My System
 2104
    1BCK1    B1    1   0.326   2.675   2.259
    1BCK1    B1    2   0.473   2.528   2.219
    1BCK1    B1    3   0.649   2.352   2.176
    1BCK1    B1    4   0.795   2.205   2.135
    1BCK1    B1    5   0.959   2.041   2.083
    1BCK1    B1    6   1.105   1.895   2.030
    1BCK1    B1    7   1.260   1.740   1.960
    1BCK1    B1    8   1.399   1.601   1.874
    1BCK1    B1    9   1.540   1.460   1.764
    1BCK1    B1   10   1.664   1.336   1.643
    1BCK1    B1   11   1.785   1.215   1.491
    1BCK1    B1   12   1.886   1.114   1.333
    1BCK1    B1   13   1.983   1.017   1.148
    1BCK1    B1   14   2.069   0.931   0.974
    1BCK1    B1   15   2.159   0.841   0.772
    1BCK1    B1   16   2.233   0.767   0.589
    1BCK1    B1   17   2.321   0.679   0.369
    1BCK1    B1   18   2.397   0.602   0.187
    1BCK1    B1   19   9.200   6.523   0.669
    1BCK1    B1   20   9.379   6.621   0.727
    1BCK1    B1   21   9.594   6.734   0.795
    1BCK1    B1   22   9.773   6.829   0.855
    1BCK1    B1   23   9.974   6.937   0.924
    1BCK1    B1   24  10.145   7.040   0.994
    1BCK1    B1   25  10.325   7.158   1.080
    1BCK1    B1   26  10.481   7.267   1.174
    1BCK1    B1   27  10.635   7.392   1.287
    1BCK1    B1   28  10.757   7.518   1.409
    1BCK1    B1   29  10.865   7.653   1.559
    1BCK1    B1   30  10.950   7.780   1.707
    1BCK1    B1   31  11.025   7.919   1.876
    1BCK1    B1   32  11.082   8.049   2.034
    1BCK1    B1   33  11.135   8.191   2.216
    1BCK1    B1   34  11.191   8.316   2.379
    1BCK1    B1   35  11.226   8.469   2.577
    1BCK1    B1   36  11.119   8.601   2.746
    1BCK1    B1   37   0.681   3.497   0.021
    1BCK1    B1   38   0.582   3.606  20.562
    1BCK1    B1   39   0.263   3.789  20.523
    1BCK1    B1   40   0.131   3.832  20.592
    1BCK1    B1   41  23.399   4.156   0.140
    1BCK1    B1   42  23.381   4.249   0.054
    1BCK1    B1   43  23.157   4.255  20.386
    1BCK1    B1   44  22.932   4.209  20.481
    1BCK1    B1   45  22.704   4.350  20.584
    1BCK1    B1   46  22.703   4.649  20.584
    1BCK1    B1   47  22.931   4.791  20.481
    1BCK1    B1   48  23.169   4.749  20.404
    1BCK1    B1   49  23.380   4.744   0.052
    1BCK1    B1   50  23.414   4.878   0.199
    1BCK1    B1   51   0.121   5.168  20.598
    1BCK1    B1   52   0.253   5.216  20.559
    1BCK1    B1   53   0.524   5.417   0.105
    1BCK1    B1   54   0.616   5.504   0.131
    1BCK1    B1   55  23.245   3.936   5.762
    1BCK1    B1   56  23.298   4.179   5.834
    1BCK1    B1   57  23.349   4.417   5.904
    1BCK1    B1   58  23.401   4.666   5.971
    1BCK1    B1   59   0.016   4.882   6.020
    1BCK1    B1   60   0.059   5.162   6.078
    1BCK1    B1   61   0.124   5.329   6.165
    1BCK1    B1   62   0.190   5.642   6.245
    1BCK1    B1   63   0.214   5.802   6.239
    1BCK1    B1   64   0.214   6.198   6.239
    1BCK1    B1   65   0.190   6.358   6.245
    1BCK1    B1   66   0.124   6.671   6.165
    1BCK1    B1   67   0.059   6.838   6.078
    1BCK1    B1   68   0.016   7.117   6.020
    1BCK1    B1   69  23.401   7.333   5.971
    1BCK1    B1   70  23.348   7.583   5.904
    1BCK1    B1   71  23.296   7.819   5.835
    1BCK1    B1   72  23.240   8.063   5.763
    1BCK1    B1   73   2.527   2.409   3.300
    1BCK1    B1   74   2.392   2.536   3.232
    1BCK1    B1   75   2.256   2.726   3.027
    1BCK1    B1   76   2.175   2.906   2.988
    1BCK1    B1   77   1.855   2.980   3.164
    1BCK1    B1   78   1.731   3.039   3.049
    1BCK1    B1   79   1.750   3.248   2.763
    1BCK1    B1   80   1.816   3.426   2.755
    1BCK1    B1   81   1.596   3.722   2.716
    1BCK1    B1   82   1.404   3.722   2.716
    1BCK1    B1   83   1.184   3.426   2.755
    1BCK1    B1   84   1.249   3.248   2.763
    1BCK1    B1   85   1.269   3.039   3.049
    1BCK1    B1   86   1.145   2.979   3.164
    1BCK1    B1   87   0.824   2.906   2.987
    1BCK1    B1   88   0.744   2.725   3.026
    1BCK1    B1   89   0.607   2.536   3.232
    1BCK1    B1   90   0.470   2.409   3.300
    1BCK1    B1   91   5.783   9.696   3.476
    1BCK1    B1   92   5.607   9.749   3.584
    1BCK1    B1   93   5.397   9.807   3.712
    1BCK1    B1   94   5.223   9.859   3.821
    1BCK1    B1   95   5.030   9.919   3.945
    1BCK1    B1   96   4.861   9.985   4.056
    1BCK1    B1   97   4.683  10.065   4.179
    1BCK1    B1   98   4.530  10.154   4.301
    1BCK1    B1   99   4.380  10.266   4.428
    1BCK1    B1  100   4.256  10.390   4.555
    1BCK1    B1  101   4.147  10.538   4.687
    1BCK1    B1  102   4.058  10.696   4.808
    1BCK1    B1  103   3.979  10.864   4.935
    1BCK1    B1  104   3.917  11.039   5.059
    1BCK1    B1  105   3.862  11.221   5.183
    1BCK1    B1  106   3.808  11.407   5.309
    1BCK1    B1  107   3.759  11.598   5.433
    1BCK1    B1  108   3.715  11.844   5.529
    1BCK1    B1  109   1.056   3.376   6.301
    1BCK1    B1  110   1.184   3.373   6.216
    1BCK1    B1  111   1.454   3.214   6.073
    1BCK1    B1  112   1.481   3.175   5.867
    1BCK1    B1  113   2.208   2.974   5.691
    1BCK1    B1  114   2.220   2.854   5.912
    1BCK1    B1  115   2.425   2.715   6.067
    1BCK1    B1  116   2.689   2.712   5.825
    1BCK1    B1  117   2.849   2.735   5.773
    1BCK1    B1  118   3.193   2.760   5.801
    1BCK1    B1  119   3.360   2.730   5.840
    1BCK1    B1  120   3.668   2.815   5.898
    1BCK1    B1  121   3.837   2.915   5.950
    1BCK1    B1  122   4.116   2.977   5.986
    1BCK1    B1  123   4.333   3.032   6.018
    1BCK1    B1  124   4.582   3.105   6.061
    1BCK1    B1  125   4.819   3.181   6.104
    1BCK1    B1  126   5.063   3.258   6.150
    1BCK1    B1  127   0.476   8.339   3.129
    1BCK1    B1  128   0.599   8.489   3.119
    1BCK1    B1  129   0.755   8.746   3.142
    1BCK1    B1  130   0.839   8.898   3.002
    1BCK1    B1  131   1.149   8.887   2.890
    1BCK1    B1  132   1.277   9.021   3.009
    1BCK1    B1  133   1.249   9.346   3.041
    1BCK1    B1  134   1.189   9.492   2.908
    1BCK1    B1  135   1.392   9.745   2.776
    1BCK1    B1  136   1.610   9.745   2.775
    1BCK1    B1  137   1.812   9.492   2.907
    1BCK1    B1  138   1.751   9.345   3.041
    1BCK1    B1  139   1.731   9.019   3.008
    1BCK1    B1  140   1.853   8.886   2.893
    1BCK1    B1  141   2.183   8.910   3.000
    1BCK1    B1  142   2.266   8.764   3.131
    1BCK1    B1  143   2.401   8.489   3.119
    1BCK1    B1  144   2.524   8.341   3.128
    1BCK1    B1  145  22.771   8.537   8.304
    1BCK1    B1  146  22.809   8.560   8.196
    1BCK1    B1  147  22.842   9.010   8.031
    1BCK1    B1  148  22.755   9.070   8.092
    1BCK1    B1  149  22.394   8.843   8.192
    1BCK1    B1  150  22.301   8.940   7.934
    1BCK1    B1  151  22.280   9.240   7.931
    1BCK1    B1  152  21.993   9.327   8.002
    1BCK1    B1  153  21.820   9.311   7.808
    1BCK1    B1  154  21.702   9.416   7.624
    1BCK1    B1  155  21.470   9.325   7.481
    1BCK1    B1  156  21.390   9.188   7.344
    1BCK1    B1  157  21.490   9.062   7.086
    1BCK1    B1  158  21.423   8.994   6.911
    1BCK1    B1  159  21.234   8.901   6.721
    1BCK1    B1  160  21.141   8.832   6.564
    1BCK1    B1  161  21.100   8.694   6.308
    1BCK1    B1  162  21.195   8.609   6.137
    1BCK1    B1  163   3.501   3.684   2.792
    1BCK1    B1  164   3.603   3.738   2.615
    1BCK1    B1  165   3.723   3.801   2.402
    1BCK1    B1  166   3.824   3.856   2.224
    1BCK1    B1  167   3.940   3.922   2.028
    1BCK1    B1  168   4.050   3.989   1.859
    1BCK1    B1  169   4.169   4.072   1.679
    1BCK1    B1  170   4.281   4.164   1.523
    1BCK1    B1  171   4.411   4.276   1.372
    1BCK1    B1  172   4.537   4.399   1.250
    1BCK1    B1  173   4.670   4.548   1.139
    1BCK1    B1  174   4.792   4.700   1.052
    1BCK1    B1  175   4.928   4.871   0.977
    1BCK1    B1  176   5.039   5.014   0.923
    1BCK1    B1  177   5.188   5.220   0.862
    1BCK1    B1  178   5.301   5.374   0.822
    1BCK1    B1  179   5.453   5.590   0.763
    1BCK1    B1  180   5.536   5.725   0.700
    1BCK1    B1  181   3.188   5.376   8.530
    1BCK1    B1  182   3.336   5.343   8.632
    1BCK1    B1  183   3.587   5.286   8.777
    1BCK1    B1  184   3.725   5.204   8.863
    1BCK1    B1  185   3.901   5.069   9.048
    1BCK1    B1  186   4.036   4.958   9.120
    1BCK1    B1  187   4.334   4.922   9.174
    1BCK1    B1  188   4.479   4.910   9.282
    1BCK1    B1  189   4.566   4.706   9.535
    1BCK1    B1  190   4.706   4.566   9.534
    1BCK1    B1  191   4.909   4.478   9.282
    1BCK1    B1  192   4.921   4.333   9.173
    1BCK1    B1  193   4.959   4.035   9.120
    1BCK1    B1  194   5.074   3.903   9.052
    1BCK1    B1  195   5.195   3.719   8.861
    1BCK1    B1  196   5.250   3.580   8.764
    1BCK1    B1  197   5.380   3.332   8.652
    1BCK1    B1  198   5.455   3.195   8.574
    1BCK1    B1  199   6.314   6.475   9.453
    1BCK1    B1  200   6.448   6.362   9.564
    1BCK1    B1  201   6.617   6.217   9.730
    1BCK1    B1  202   6.800   6.144   9.834
    1BCK1    B1  203   7.005   6.008   9.918
    1BCK1    B1  204   7.054   5.765  10.017
    1BCK1    B1  205   7.154   5.619  10.156
    1BCK1    B1  206   7.438   5.858  10.323
    1BCK1    B1  207   7.551   5.727  10.363
    1BCK1    B1  208   7.624   5.422  10.519
    1BCK1    B1  209   7.817   5.498  10.750
    1BCK1    B1  210   7.810   5.786  10.766
    1BCK1    B1  211   7.932   5.976  10.847
    1BCK1    B1  212   8.119   5.900  11.081
    1BCK1    B1  213   8.188   6.051  11.227
    1BCK1    B1  214   8.271   6.243  11.351
    1BCK1    B1  215   8.416   6.367  11.528
    1BCK1    B1  216   8.514   6.440  11.761
    1BCK1    B1  217   5.537   6.224   6.705
    1BCK1    B1  218   5.425   6.397   6.754
    1BCK1    B1  219   5.293   6.605   6.811
    1BCK1    B1  220   5.181   6.778   6.859
    1BCK1    B1  221   5.055   6.970   6.920
    1BCK1    B1  222   4.940   7.137   6.983
    1BCK1    B1  223   4.813   7.314   7.061
    1BCK1    B1  224   4.693   7.465   7.151
    1BCK1    B1  225   4.559   7.614   7.260
    1BCK1    B1  226   4.437   7.740   7.383
    1BCK1    B1  227   4.308   7.850   7.536
    1BCK1    B1  228   4.184   7.938   7.686
    1BCK1    B1  229   4.055   8.017   7.860
    1BCK1    B1  230   3.942   8.079   8.029
    1BCK1    B1  231   3.816   8.140   8.221
    1BCK1    B1  232   3.702   8.190   8.393
    1BCK1    B1  233   3.571   8.245   8.601
    1BCK1    B1  234   3.460   8.298   8.775
    1BCK1    B1  235   0.277  20.243  19.886
    1BCK1    B1  236   0.436  20.109  19.846
    1BCK1    B1  237   0.628  19.951  19.800
    1BCK1    B1  238   0.786  19.818  19.757
    1BCK1    B1  239   0.964  19.669  19.708
    1BCK1    B1  240   1.121  19.535  19.651
    1BCK1    B1  241   1.285  19.393  19.577
    1BCK1    B1  242   1.431  19.260  19.491
    1BCK1    B1  243   1.576  19.122  19.385
    1BCK1    B1  244   1.701  18.997  19.258
    1BCK1    B1  245   1.816  18.876  19.109
    1BCK1    B1  246   1.913  18.763  18.945
    1BCK1    B1  247   1.999  18.656  18.770
    1BCK1    B1  248   2.080  18.554  18.584
    1BCK1    B1  249   2.149  18.457  18.395
    1BCK1    B1  250   2.220  18.357  18.191
    1BCK1    B1  251   2.285  18.261  17.997
    1BCK1    B1  252   2.336  18.081  17.757
    1BCK1    B1  253   6.406   2.658   6.290
    1BCK1    B1  254   6.495   2.600   6.285
    1BCK1    B1  255   6.853   2.535   6.285
    1BCK1    B1  256   6.815   2.279   6.112
    1BCK1    B1  257   6.678   2.151   5.727
    1BCK1    B1  258   7.076   1.894   5.975
    1BCK1    B1  259   7.278   1.528   5.881
    1BCK1    B1  260   7.137   1.604   5.579
    1BCK1    B1  261   7.320   1.508   5.449
    1BCK1    B1  262   7.525   1.322   5.450
    1BCK1    B1  263   7.608   1.138   5.572
    1BCK1    B1  264   7.692   1.124   5.887
    1BCK1    B1  265   7.868   1.077   5.951
    1BCK1    B1  266   8.107   0.839   5.833
    1BCK1    B1  267   8.235   0.834   6.075
    1BCK1    B1  268   8.376   0.869   6.403
    1BCK1    B1  269   8.587   0.631   6.261
    1BCK1    B1  270   8.553   0.471   6.138
    1BCK1    B1  271   9.396   3.157   6.576
    1BCK1    B1  272   9.324   3.300   6.647
    1BCK1    B1  273   9.200   3.535   6.784
    1BCK1    B1  274   9.120   3.681   6.839
    1BCK1    B1  275   9.013   3.941   6.893
    1BCK1    B1  276   8.943   4.096   6.960
    1BCK1    B1  277   8.761   4.276   7.101
    1BCK1    B1  278   8.653   4.406   7.144
    1BCK1    B1  279   8.585   4.705   7.151
    1BCK1    B1  280   8.585   4.849   7.295
    1BCK1    B1  281   8.653   4.856   7.594
    1BCK1    B1  282   8.760   4.899   7.724
    1BCK1    B1  283   8.943   5.040   7.904
    1BCK1    B1  284   9.014   5.107   8.058
    1BCK1    B1  285   9.120   5.161   8.319
    1BCK1    B1  286   9.200   5.216   8.465
    1BCK1    B1  287   9.324   5.353   8.700
    1BCK1    B1  288   9.396   5.424   8.843
    1BCK1    B1  289   6.739   2.862   6.665
    1BCK1    B1  290   6.766   2.663   6.723
    1BCK1    B1  291   6.761   2.428   6.875
    1BCK1    B1  292   6.849   2.208   6.805
    1BCK1    B1  293   6.929   2.022   6.936
    1BCK1    B1  294   6.992   1.855   7.049
    1BCK1    B1  295   7.075   1.675   7.160
    1BCK1    B1  296   7.169   1.518   7.277
    1BCK1    B1  297   7.282   1.375   7.401
    1BCK1    B1  298   7.407   1.243   7.527
    1BCK1    B1  299   7.552   1.137   7.660
    1BCK1    B1  300   7.704   1.049   7.789
    1BCK1    B1  301   7.873   0.976   7.922
    1BCK1    B1  302   8.034   0.916   8.051
    1BCK1    B1  303   8.217   0.865   8.190
    1BCK1    B1  304   8.385   0.819   8.314
    1BCK1    B1  305   8.584   0.767   8.459
    1BCK1    B1  306   8.753   0.722   8.581
    1BCK1    B1  307   8.329   3.263   3.826
    1BCK1    B1  308   8.346   3.326   3.752
    1BCK1    B1  309   8.057   3.645   3.693
    1BCK1    B1  310   8.067   3.697   3.681
    1BCK1    B1  311   8.145   4.155   3.973
    1BCK1    B1  312   8.139   4.133   4.095
    1BCK1    B1  313   7.927   4.417   4.297
    1BCK1    B1  314   7.920   4.525   4.238
    1BCK1    B1  315   7.661   4.818   4.250
    1BCK1    B1  316   7.576   4.824   4.344
    1BCK1    B1  317   7.469   4.841   4.697
    1BCK1    B1  318   7.452   4.886   4.794
    1BCK1    B1  319   7.212   5.096   5.019
    1BCK1    B1  320   7.133   5.172   4.992
    1BCK1    B1  321   6.609   5.140   5.207
    1BCK1    B1  322   6.579   5.102   5.230
    1BCK1    B1  323   6.371   5.231   5.607
    1BCK1    B1  324   6.345   5.253   5.635
    1BCK1    B1  325   5.506   6.542   3.341
    1BCK1    B1  326   5.404   6.448   3.278
    1BCK1    B1  327   5.233   6.273   3.013
    1BCK1    B1  328   5.174   6.114   2.998
    1BCK1    B1  329   4.908   5.933   3.192
    1BCK1    B1  330   4.741   5.959   3.037
    1BCK1    B1  331   4.750   5.824   2.730
    1BCK1    B1  332   4.790   5.578   2.729
    1BCK1    B1  333   4.648   5.332   2.664
    1BCK1    B1  334   4.352   5.331   2.664
    1BCK1    B1  335   4.211   5.578   2.729
    1BCK1    B1  336   4.250   5.823   2.731
    1BCK1    B1  337   4.260   5.959   3.037
    1BCK1    B1  338   4.093   5.933   3.193
    1BCK1    B1  339   3.826   6.112   3.002
    1BCK1    B1  340   3.767   6.273   3.017
    1BCK1    B1  341   3.595   6.449   3.279
    1BCK1    B1  342   3.493   6.543   3.342
    1BCK1    B1  343   0.590   3.492   6.185
    1BCK1    B1  344   0.578   3.442   6.040
    1BCK1    B1  345   0.780   3.146   5.858
    1BCK1    B1  346   0.767   3.011   6.099
    1BCK1    B1  347   1.075   2.870   6.188
    1BCK1    B1  348   1.165   2.836   5.958
    1BCK1    B1  349   1.188   2.750   5.716
    1BCK1    B1  350   1.258   2.470   5.666
    1BCK1    B1  351   1.494   2.506   6.095
    1BCK1    B1  352   1.512   2.534   6.110
    1BCK1    B1  353   1.764   2.703   5.724
    1BCK1    B1  354   1.732   2.780   5.713
    1BCK1    B1  355   1.878   2.829   6.272
    1BCK1    B1  356   1.827   2.903   6.263
    1BCK1    B1  357   1.926   3.253   6.022
    1BCK1    B1  358   1.956   3.301   5.985
    1BCK1    B1  359   2.355   3.419   6.104
    1BCK1    B1  360   2.421   3.395   6.149
    1BCK1    B1  361   5.827   8.296   2.962
    1BCK1    B1  362   5.854   8.236   2.784
    1BCK1    B1  363   5.902   8.197   2.505
    1BCK1    B1  364   5.932   8.171   2.322
    1BCK1    B1  365   6.000   8.031   2.086
    1BCK1    B1  366   6.051   7.963   1.913
    1BCK1    B1  367   6.088   8.086   1.632
    1BCK1    B1  368   6.111   8.086   1.459
    1BCK1    B1  369   6.207   7.866   1.244
    1BCK1    B1  370   6.207   7.756   1.134
    1BCK1    B1  371   6.111   7.542   0.914
    1BCK1    B1  372   6.088   7.368   0.914
    1BCK1    B1  373   6.051   7.090   1.038
    1BCK1    B1  374   6.002   6.917   0.971
    1BCK1    B1  375   5.943   6.683   0.832
    1BCK1    B1  376   5.912   6.511   0.813
    1BCK1    B1  377   5.823   6.236   0.837
    1BCK1    B1  378   5.884   6.079   0.694
    1BCK1    B1  379   6.484   9.265   5.427
    1BCK1    B1  380   6.592   9.219   5.534
    1BCK1    B1  381   6.803   9.003   5.712
    1BCK1    B1  382   6.868   8.959   5.860
    1BCK1    B1  383   7.056   9.179   6.108
    1BCK1    B1  384   7.248   9.108   6.112
    1BCK1    B1  385   7.250   8.724   6.188
    1BCK1    B1  386   7.228   8.695   6.396
    1BCK1    B1  387   7.367   8.845   6.671
    1BCK1    B1  388   7.633   8.845   6.668
    1BCK1    B1  389   7.771   8.693   6.396
    1BCK1    B1  390   7.746   8.719   6.184
    1BCK1    B1  391   7.737   9.116   6.127
    1BCK1    B1  392   7.968   9.167   6.127
    1BCK1    B1  393   8.101   8.936   5.867
    1BCK1    B1  394   8.114   9.041   5.660
    1BCK1    B1  395   8.469   9.173   5.635
    1BCK1    B1  396   8.585   9.184   5.614
    1BCK1    B1  397   9.826   2.613   8.750
    1BCK1    B1  398   9.837   2.469   8.575
    1BCK1    B1  399   9.837   2.306   8.407
    1BCK1    B1  400   9.851   2.174   8.218
    1BCK1    B1  401   9.911   2.058   8.037
    1BCK1    B1  402   9.976   1.931   7.864
    1BCK1    B1  403  10.045   1.800   7.698
    1BCK1    B1  404  10.136   1.675   7.543
    1BCK1    B1  405  10.251   1.546   7.398
    1BCK1    B1  406  10.373   1.424   7.272
    1BCK1    B1  407  10.527   1.295   7.159
    1BCK1    B1  408  10.673   1.178   7.071
    1BCK1    B1  409  10.857   1.051   6.988
    1BCK1    B1  410  11.014   0.949   6.922
    1BCK1    B1  411  11.223   0.823   6.857
    1BCK1    B1  412  11.386   0.740   6.816
    1BCK1    B1  413  11.611   0.594   6.746
    1BCK1    B1  414  11.684   0.445   6.667
    1BCK1    B1  415   9.267   8.346   2.693
    1BCK1    B1  416   9.291   8.337   2.760
    1BCK1    B1  417   9.657   8.158   2.919
    1BCK1    B1  418   9.726   8.217   2.904
    1BCK1    B1  419  10.143   8.140   3.017
    1BCK1    B1  420  10.101   8.011   3.105
    1BCK1    B1  421  10.395   7.750   3.176
    1BCK1    B1  422  10.493   7.778   3.141
    1BCK1    B1  423  10.756   7.753   3.535
    1BCK1    B1  424  10.818   7.683   3.488
    1BCK1    B1  425  10.719   7.382   3.201
    1BCK1    B1  426  10.709   7.280   3.201
    1BCK1    B1  427  11.130   7.193   3.107
    1BCK1    B1  428  11.189   7.220   3.044
    1BCK1    B1  429  11.301   6.787   2.804
    1BCK1    B1  430  11.245   6.698   2.821
    1BCK1    B1  431  11.316   6.294   2.734
    1BCK1    B1  432  11.198   6.223   2.701
    1BCK1    B1  433  23.247   0.646   0.472
    1BCK1    B1  434  23.310   0.503   0.607
    1BCK1    B1  435  23.330   0.235   0.734
    1BCK1    B1  436  23.326   0.064   0.841
    1BCK1    B1  437   0.058   0.122   1.183
    1BCK1    B1  438   0.110  20.622   1.260
    1BCK1    B1  439  23.401  20.264   1.248
    1BCK1    B1  440   0.038  20.134   1.203
    1BCK1    B1  441   0.290  19.909   1.411
    1BCK1    B1  442   0.290  19.909   1.589
    1BCK1    B1  443   0.038  20.134   1.797
    1BCK1    B1  444  23.401  20.264   1.752
    1BCK1    B1  445   0.110  20.622   1.740
    1BCK1    B1  446   0.058   0.122   1.816
    1BCK1    B1  447  23.326   0.064   2.158
    1BCK1    B1  448  23.329   0.239   2.262
    1BCK1    B1  449  23.310   0.503   2.394
    1BCK1    B1  450  23.247   0.645   2.528
    1BCK1    B1  451   8.525  20.098   3.365
    1BCK1    B1  452   8.449  20.178   3.297
    1BCK1    B1  453   8.203  20.332   3.059
    1BCK1    B1  454   8.128  20.454   3.037
    1BCK1    B1  455   7.973   0.146   3.142
    1BCK1    B1  456   7.745   0.135   3.049
    1BCK1    B1  457   7.757   0.146   2.691
    1BCK1    B1  458   7.776   0.378   2.615
    1BCK1    B1  459   7.664   0.647   2.700
    1BCK1    B1  460   7.343   0.647   2.701
    1BCK1    B1  461   7.235   0.380   2.620
    1BCK1    B1  462   7.256   0.145   2.700
    1BCK1    B1  463   7.259   0.133   3.053
    1BCK1    B1  464   7.032   0.142   3.150
    1BCK1    B1  465   6.875  20.450   3.042
    1BCK1    B1  466   6.798  20.331   3.062
    1BCK1    B1  467   6.550  20.177   3.298
    1BCK1    B1  468   6.475  20.097   3.366
    1BCK1    B1  469   0.317   3.437   0.373
    1BCK1    B1  470   0.342   3.616   0.360
    1BCK1    B1  471   0.185   3.834   0.573
    1BCK1    B1  472   0.116   3.832   0.691
    1BCK1    B1  473   0.069   3.935   1.001
    1BCK1    B1  474  23.356   4.001   1.074
    1BCK1    B1  475  23.122   4.021   1.274
    1BCK1    B1  476  23.082   4.088   1.426
    1BCK1    B1  477  22.964   4.201   1.672
    1BCK1    B1  478  22.977   4.349   1.798
    1BCK1    B1  479  23.085   4.585   1.917
    1BCK1    B1  480  23.165   4.725   1.979
    1BCK1    B1  481  23.365   4.936   2.002
    1BCK1    B1  482   0.047   5.072   2.032
    1BCK1    B1  483   0.129   5.319   2.182
    1BCK1    B1  484   0.182   5.450   2.261
    1BCK1    B1  485   0.338   5.698   2.365
    1BCK1    B1  486   0.413   5.831   2.425
    1BCK1    B1  487  22.683   2.704   6.357
    1BCK1    B1  488  22.643   2.549   6.496
    1BCK1    B1  489  22.597   2.364   6.662
    1BCK1    B1  490  22.557   2.210   6.801
    1BCK1    B1  491  22.507   2.038   6.957
    1BCK1    B1  492  22.450   1.887   7.096
    1BCK1    B1  493  22.381   1.723   7.242
    1BCK1    B1  494  22.296   1.580   7.378
    1BCK1    B1  495  22.186   1.440   7.519
    1BCK1    B1  496  22.061   1.313   7.643
    1BCK1    B1  497  21.912   1.195   7.762
    1BCK1    B1  498  21.748   1.096   7.871
    1BCK1    B1  499  21.572   1.006   7.976
    1BCK1    B1  500  21.385   0.925   8.073
    1BCK1    B1  501  21.195   0.849   8.165
    1BCK1    B1  502  20.993   0.771   8.261
    1BCK1    B1  503  20.795   0.703   8.352
    1BCK1    B1  504  20.517   0.647   8.422
    1BCK1    B1  505   9.698   3.044   0.166
    1BCK1    B1  506   9.765   3.211   0.138
    1BCK1    B1  507   9.849   3.492   0.095
    1BCK1    B1  508   9.838   3.668   0.064
    1BCK1    B1  509   9.866   3.935  20.569
    1BCK1    B1  510   9.984   4.084  20.530
    1BCK1    B1  511  10.061   4.368  20.590
    1BCK1    B1  512  10.027   4.551  20.564
    1BCK1    B1  513  10.045   4.797  20.372
    1BCK1    B1  514  10.195   4.956  20.369
    1BCK1    B1  515  10.447   4.974  20.563
    1BCK1    B1  516  10.621   4.933  20.590
    1BCK1    B1  517  10.914   5.014  20.535
    1BCK1    B1  518  11.048   5.138  20.575
    1BCK1    B1  519  11.332   5.155   0.072
    1BCK1    B1  520  11.485   5.112   0.090
    1BCK1    B1  521  11.795   5.242   0.135
    1BCK1    B1  522  11.866   5.338   0.181
    1BCK1    B1  523   0.218   6.644   9.466
    1BCK1    B1  524   0.169   6.493   9.603
    1BCK1    B1  525   0.018   6.277   9.726
    1BCK1    B1  526  23.392   6.102   9.831
    1BCK1    B1  527   0.114   6.085  10.159
    1BCK1    B1  528   0.073   5.956  10.264
    1BCK1    B1  529  23.265   5.691  10.249
    1BCK1    B1  530  23.225   5.546  10.202
    1BCK1    B1  531  23.217   5.224  10.400
    1BCK1    B1  532  23.217   5.225  10.601
    1BCK1    B1  533  23.225   5.546  10.798
    1BCK1    B1  534  23.266   5.693  10.751
    1BCK1    B1  535   0.073   5.956  10.736
    1BCK1    B1  536   0.111   6.089  10.849
    1BCK1    B1  537  23.393   6.101  11.170
    1BCK1    B1  538   0.023   6.259  11.308
    1BCK1    B1  539   0.171   6.499  11.389
    1BCK1    B1  540   0.210   6.625  11.630
    1BCK1    B1  541  22.883   8.715   6.499
    1BCK1    B1  542  22.967   8.733   6.599
    1BCK1    B1  543  23.271   8.779   6.813
    1BCK1    B1  544  23.351   8.932   6.820
    1BCK1    B1  545  23.335   9.193   7.093
    1BCK1    B1  546  23.418   9.079   7.254
    1BCK1    B1  547   0.336   8.966   7.237
    1BCK1    B1  548   0.482   9.159   7.207
    1BCK1    B1  549   0.490   9.438   7.364
    1BCK1    B1  550   0.496   9.439   7.629
    1BCK1    B1  551   0.502   9.166   7.795
    1BCK1    B1  552   0.321   8.967   7.736
    1BCK1    B1  553   0.029   9.095   7.710
    1BCK1    B1  554  23.404   9.216   8.014
    1BCK1    B1  555  23.321   8.968   8.144
    1BCK1    B1  556  23.274   8.724   8.055
    1BCK1    B1  557  23.225   8.636   8.483
    1BCK1    B1  558  23.252   8.695   8.554
    1BCK1    B1  559  23.010   9.519   3.460
    1BCK1    B1  560  22.825   9.400   3.344
    1BCK1    B1  561  22.631   9.284   3.268
    1BCK1    B1  562  22.598   9.043   3.092
    1BCK1    B1  563  22.513   8.911   2.999
    1BCK1    B1  564  22.156   9.004   2.970
    1BCK1    B1  565  22.162   8.821   2.697
    1BCK1    B1  566  22.210   8.637   2.641
    1BCK1    B1  567  22.058   8.374   2.519
    1BCK1    B1  568  21.788   8.372   2.518
    1BCK1    B1  569  21.637   8.637   2.641
    1BCK1    B1  570  21.691   8.822   2.691
    1BCK1    B1  571  21.687   9.004   2.971
    1BCK1    B1  572  21.340   8.898   2.993
    1BCK1    B1  573  21.237   9.041   3.089
    1BCK1    B1  574  21.231   9.266   3.255
    1BCK1    B1  575  21.029   9.404   3.349
    1BCK1    B1  576  20.960   9.553   3.489
    1BCK1    B1  577  22.972   9.115   8.540
    1BCK1    B1  578  22.834   8.960   8.561
    1BCK1    B1  579  22.521   9.078   8.743
    1BCK1    B1  580  22.551   9.088   8.931
    1BCK1    B1  581  22.334   8.765   9.090
    1BCK1    B1  582  22.163   8.869   9.070
    1BCK1    B1  583  22.172   9.219   9.249
    1BCK1    B1  584  22.200   9.166   9.471
    1BCK1    B1  585  22.059   8.942   9.667
    1BCK1    B1  586  21.788   8.941   9.669
    1BCK1    B1  587  21.646   9.164   9.470
    1BCK1    B1  588  21.674   9.213   9.250
    1BCK1    B1  589  21.665   8.880   9.061
    1BCK1    B1  590  21.498   8.785   9.054
    1BCK1    B1  591  21.273   9.072   8.894
    1BCK1    B1  592  21.254   9.102   8.755
    1BCK1    B1  593  21.032   8.932   8.482
    1BCK1    B1  594  21.050   8.912   8.369
    1BCK1    B1  595   5.769   8.313   6.055
    1BCK1    B1  596   5.807   8.263   6.227
    1BCK1    B1  597   5.887   8.203   6.501
    1BCK1    B1  598   5.942   8.128   6.657
    1BCK1    B1  599   5.974   8.045   6.926
    1BCK1    B1  600   5.996   8.052   7.118
    1BCK1    B1  601   6.190   8.010   7.340
    1BCK1    B1  602   6.271   7.955   7.487
    1BCK1    B1  603   6.161   7.924   7.799
    1BCK1    B1  604   6.161   7.799   7.924
    1BCK1    B1  605   6.271   7.487   7.955
    1BCK1    B1  606   6.190   7.340   8.010
    1BCK1    B1  607   5.996   7.118   8.052
    1BCK1    B1  608   5.974   6.926   8.045
    1BCK1    B1  609   5.942   6.657   8.128
    1BCK1    B1  610   5.887   6.501   8.203
    1BCK1    B1  611   5.806   6.227   8.262
    1BCK1    B1  612   5.769   6.055   8.313
    1BCK1    B1  613   9.303   8.657   5.260
    1BCK1    B1  614   9.456   8.514   5.219
    1BCK1    B1  615   9.636   8.347   5.176
    1BCK1    B1  616   9.788   8.206   5.137
    1BCK1    B1  617   9.957   8.046   5.086
    1BCK1    B1  618  10.103   7.907   5.032
    1BCK1    B1  619  10.267   7.753   4.963
    1BCK1    B1  620  10.404   7.623   4.881
    1BCK1    B1  621  10.553   7.475   4.770
    1BCK1    B1  622  10.674   7.357   4.659
    1BCK1    B1  623  10.803   7.235   4.487
    1BCK1    B1  624  10.894   7.124   4.357
    1BCK1    B1  625  10.979   6.984   4.150
    1BCK1    B1  626  11.052   6.983   3.969
    1BCK1    B1  627  11.204   6.946   3.739
    1BCK1    B1  628  11.217   6.648   3.722
    1BCK1    B1  629  11.158   6.449   3.673
    1BCK1    B1  630  11.226   6.307   3.241
    1BCK1    B1  631   2.466   3.347   9.545
    1BCK1    B1  632   2.607   3.409   9.536
    1BCK1    B1  633   2.779   3.640   9.686
    1BCK1    B1  634   2.848   3.735   9.781
    1BCK1    B1  635   2.988   3.907   9.979
    1BCK1    B1  636   3.084   4.041  10.047
    1BCK1    B1  637   3.284   4.259  10.053
    1BCK1    B1  638   3.412   4.357  10.146
    1BCK1    B1  639   3.515   4.457  10.408
    1BCK1    B1  640   3.513   4.595  10.544
    1BCK1    B1  641   3.412   4.856  10.643
    1BCK1    B1  642   3.278   4.946  10.745
    1BCK1    B1  643   3.084   4.952  10.958
    1BCK1    B1  644   2.985   5.030  11.105
    1BCK1    B1  645   2.849   5.218  11.263
    1BCK1    B1  646   2.743   5.332  11.374
    1BCK1    B1  647   2.600   5.459  11.586
    1BCK1    B1  648   2.542   5.528  11.795
    1BCK1    B1  649   2.603   8.427   8.750
    1BCK1    B1  650   2.653   8.371   8.639
    1BCK1    B1  651   2.801   8.216   8.353
    1BCK1    B1  652   2.942   8.175   8.297
    1BCK1    B1  653   3.148   8.077   8.060
    1BCK1    B1  654   2.980   7.975   7.857
    1BCK1    B1  655   3.144   7.879   7.647
    1BCK1    B1  656   3.363   7.838   7.600
    1BCK1    B1  657   3.539   7.686   7.473
    1BCK1    B1  658   3.514   7.557   7.231
    1BCK1    B1  659   3.161   7.440   7.271
    1BCK1    B1  660   3.050   7.354   7.165
    1BCK1    B1  661   3.219   7.083   6.988
    1BCK1    B1  662   3.136   6.925   6.904
    1BCK1    B1  663   2.884   6.767   6.859
    1BCK1    B1  664   2.756   6.634   6.781
    1BCK1    B1  665   2.686   6.386   6.639
    1BCK1    B1  666   2.656   6.212   6.584
    1BCK1    B1  667   2.452   6.193   2.349
    1BCK1    B1  668   2.361   6.374   2.286
    1BCK1    B1  669   2.256   6.592   2.213
    1BCK1    B1  670   2.167   6.772   2.149
    1BCK1    B1  671   2.063   6.973   2.074
    1BCK1    B1  672   1.966   7.146   2.000
    1BCK1    B1  673   1.859   7.331   1.911
    1BCK1    B1  674   1.749   7.486   1.815
    1BCK1    B1  675   1.623   7.636   1.698
    1BCK1    B1  676   1.502   7.763   1.575
    1BCK1    B1  677   1.364   7.872   1.430
    1BCK1    B1  678   1.229   7.953   1.286
    1BCK1    B1  679   1.087   8.028   1.120
    1BCK1    B1  680   0.955   8.085   0.964
    1BCK1    B1  681   0.803   8.134   0.787
    1BCK1    B1  682   0.671   8.177   0.629
    1BCK1    B1  683   0.512   8.223   0.437
    1BCK1    B1  684   0.380   8.264   0.277
    1BCK1    B1  685   3.348   6.303   9.738
    1BCK1    B1  686   3.489   6.456   9.780
    1BCK1    B1  687   3.658   6.639   9.825
    1BCK1    B1  688   3.799   6.791   9.865
    1BCK1    B1  689   3.958   6.961   9.916
    1BCK1    B1  690   4.097   7.112   9.972
    1BCK1    B1  691   4.248   7.271  10.041
    1BCK1    B1  692   4.386   7.412  10.126
    1BCK1    B1  693   4.523   7.558  10.233
    1BCK1    B1  694   4.647   7.681  10.362
    1BCK1    B1  695   4.769   7.795  10.513
    1BCK1    B1  696   4.877   7.899  10.672
    1BCK1    B1  697   4.978   7.994  10.850
    1BCK1    B1  698   5.071   8.076  11.035
    1BCK1    B1  699   5.161   8.153  11.228
    1BCK1    B1  700   5.251   8.231  11.427
    1BCK1    B1  701   5.337   8.305  11.630
    1BCK1    B1  702   5.407   8.366  11.882
    1BCK1    B1  703   3.515   9.488  20.216
    1BCK1    B1  704   3.412   9.601  20.298
    1BCK1    B1  705   3.218   9.750  20.514
    1BCK1    B1  706   3.081   9.819  20.588
    1BCK1    B1  707   2.977  10.176  20.478
    1BCK1    B1  708   2.957  10.268  20.601
    1BCK1    B1  709   2.843  10.249   0.328
    1BCK1    B1  710   2.651  10.205   0.360
    1BCK1    B1  711   2.356  10.383   0.352
    1BCK1    B1  712   2.356  10.617   0.352
    1BCK1    B1  713   2.651  10.795   0.360
    1BCK1    B1  714   2.843  10.751   0.327
    1BCK1    B1  715   2.957  10.733  20.601
    1BCK1    B1  716   2.983  10.831  20.478
    1BCK1    B1  717   3.080  11.184  20.588
    1BCK1    B1  718   3.206  11.280  20.514
    1BCK1    B1  719   3.417  11.391  20.294
    1BCK1    B1  720   3.502  11.608  20.228
    1BCK1    B1  721   3.726   5.747   5.585
    1BCK1    B1  722   3.770   5.582   5.462
    1BCK1    B1  723   3.820   5.383   5.313
    1BCK1    B1  724   3.864   5.217   5.191
    1BCK1    B1  725   3.916   5.032   5.050
    1BCK1    B1  726   3.975   4.873   4.923
    1BCK1    B1  727   4.050   4.702   4.787
    1BCK1    B1  728   4.138   4.552   4.662
    1BCK1    B1  729   4.246   4.405   4.526
    1BCK1    B1  730   4.367   4.282   4.399
    1BCK1    B1  731   4.521   4.170   4.273
    1BCK1    B1  732   4.678   4.077   4.162
    1BCK1    B1  733   4.856   3.990   4.044
    1BCK1    B1  734   5.028   3.923   3.938
    1BCK1    B1  735   5.227   3.855   3.828
    1BCK1    B1  736   5.405   3.796   3.729
    1BCK1    B1  737   5.620   3.733   3.612
    1BCK1    B1  738   5.799   3.675   3.514
    1BCK1    B1  739   6.420   0.468   3.485
    1BCK1    B1  740   6.365   0.592   3.383
    1BCK1    B1  741   6.275   0.806   3.143
    1BCK1    B1  742   6.059   0.825   3.080
    1BCK1    B1  743   5.820   1.012   3.101
    1BCK1    B1  744   5.977   1.268   2.989
    1BCK1    B1  745   5.937   1.252   2.678
    1BCK1    B1  746   5.690   1.209   2.594
    1BCK1    B1  747   5.455   1.347   2.538
    1BCK1    B1  748   5.455   1.653   2.538
    1BCK1    B1  749   5.690   1.791   2.594
    1BCK1    B1  750   5.937   1.748   2.678
    1BCK1    B1  751   5.977   1.732   2.989
    1BCK1    B1  752   5.820   1.988   3.101
    1BCK1    B1  753   6.059   2.175   3.080
    1BCK1    B1  754   6.276   2.195   3.144
    1BCK1    B1  755   6.365   2.410   3.383
    1BCK1    B1  756   6.421   2.537   3.484
    1BCK1    B1  757   6.267   0.394   5.267
    1BCK1    B1  758   6.429   0.524   5.225
    1BCK1    B1  759   6.624   0.678   5.179
    1BCK1    B1  760   6.786   0.808   5.136
    1BCK1    B1  761   6.966   0.954   5.085
    1BCK1    B1  762   7.126   1.085   5.034
    1BCK1    B1  763   7.294   1.227   4.964
    1BCK1    B1  764   7.440   1.355   4.874
    1BCK1    B1  765   7.583   1.490   4.760
    1BCK1    B1  766   7.706   1.613   4.635
    1BCK1    B1  767   7.823   1.738   4.484
    1BCK1    B1  768   7.916   1.850   4.326
    1BCK1    B1  769   8.002   1.962   4.144
    1BCK1    B1  770   8.077   2.064   3.972
    1BCK1    B1  771   8.148   2.171   3.772
    1BCK1    B1  772   8.211   2.264   3.591
    1BCK1    B1  773   8.280   2.378   3.376
    1BCK1    B1  774   8.349   2.473   3.200
    1BCK1    B1  775   2.197   6.215   6.456
    1BCK1    B1  776   2.203   6.394   6.579
    1BCK1    B1  777   2.218   6.601   6.717
    1BCK1    B1  778   2.151   6.780   6.825
    1BCK1    B1  779   2.081   6.969   6.941
    1BCK1    B1  780   2.017   7.141   7.057
    1BCK1    B1  781   1.940   7.316   7.182
    1BCK1    B1  782   1.849   7.472   7.300
    1BCK1    B1  783   1.735   7.620   7.428
    1BCK1    B1  784   1.610   7.744   7.553
    1BCK1    B1  785   1.461   7.854   7.683
    1BCK1    B1  786   1.308   7.944   7.805
    1BCK1    B1  787   1.135   8.019   7.936
    1BCK1    B1  788   0.969   8.081   8.055
    1BCK1    B1  789   0.778   8.139   8.183
    1BCK1    B1  790   0.606   8.187   8.299
    1BCK1    B1  791   0.400   8.243   8.434
    1BCK1    B1  792   0.227   8.295   8.547
    1BCK1    B1  793   6.702   0.039   8.826
    1BCK1    B1  794   6.759   0.211   8.853
    1BCK1    B1  795   6.834   0.488   8.901
    1BCK1    B1  796   6.850   0.658   8.959
    1BCK1    B1  797   6.901   0.921   9.050
    1BCK1    B1  798   6.999   1.096   9.010
    1BCK1    B1  799   7.012   1.375   9.015
    1BCK1    B1  800   6.974   1.542   9.133
    1BCK1    B1  801   7.073   1.776   9.250
    1BCK1    B1  802   7.224   1.927   9.250
    1BCK1    B1  803   7.459   2.026   9.133
    1BCK1    B1  804   7.625   1.987   9.015
    1BCK1    B1  805   7.906   2.001   9.009
    1BCK1    B1  806   8.076   2.098   9.052
    1BCK1    B1  807   8.346   2.152   8.956
    1BCK1    B1  808   8.491   2.173   8.899
    1BCK1    B1  809   8.799   2.248   8.851
    1BCK1    B1  810   8.924   2.234   8.796
    1BCK1    B1  811   8.374   9.227   5.138
    1BCK1    B1  812   8.271   9.385   5.287
    1BCK1    B1  813   8.190   9.629   5.340
    1BCK1    B1  814   8.148   9.793   5.160
    1BCK1    B1  815   8.087   9.969   5.042
    1BCK1    B1  816   7.991  10.160   4.970
    1BCK1    B1  817   7.898  10.340   4.871
    1BCK1    B1  818   7.801  10.495   4.758
    1BCK1    B1  819   7.686  10.651   4.636
    1BCK1    B1  820   7.562  10.768   4.512
    1BCK1    B1  821   7.416  10.880   4.372
    1BCK1    B1  822   7.274  10.959   4.239
    1BCK1    B1  823   7.110  11.031   4.090
    1BCK1    B1  824   6.959  11.085   3.953
    1BCK1    B1  825   6.786  11.136   3.798
    1BCK1    B1  826   6.627  11.169   3.656
    1BCK1    B1  827   6.447  11.220   3.496
    1BCK1    B1  828   6.304  11.372   3.368
    1BCK1    B1  829   9.143   0.443   3.679
    1BCK1    B1  830   9.089   0.573   3.535
    1BCK1    B1  831   8.973   0.737   3.323
    1BCK1    B1  832   9.030   0.822   3.125
    1BCK1    B1  833   9.149   1.045   2.985
    1BCK1    B1  834   9.012   1.245   2.957
    1BCK1    B1  835   8.820   1.255   2.692
    1BCK1    B1  836   8.871   1.220   2.490
    1BCK1    B1  837   8.906   1.353   2.211
    1BCK1    B1  838   8.906   1.647   2.211
    1BCK1    B1  839   8.872   1.780   2.491
    1BCK1    B1  840   8.820   1.745   2.692
    1BCK1    B1  841   9.012   1.755   2.957
    1BCK1    B1  842   9.149   1.955   2.986
    1BCK1    B1  843   9.028   2.178   3.126
    1BCK1    B1  844   8.969   2.263   3.323
    1BCK1    B1  845   9.086   2.428   3.535
    1BCK1    B1  846   9.141   2.558   3.678
    1BCK1    B1  847  23.275   0.358   3.602
    1BCK1    B1  848  23.140   0.305   3.672
    1BCK1    B1  849  22.864   0.214   3.819
    1BCK1    B1  850  22.736   0.112   3.822
    1BCK1    B1  851  22.490  20.538   3.853
    1BCK1    B1  852  22.346  20.542   3.989
    1BCK1    B1  853  22.102  20.514   4.144
    1BCK1    B1  854  21.938  20.365   4.125
    1BCK1    B1  855  21.749  20.163   4.133
    1BCK1    B1  856  21.558  20.160   4.324
    1BCK1    B1  857  21.548  20.364   4.515
    1BCK1    B1  858  21.568  20.515   4.673
    1BCK1    B1  859  21.411  20.541   4.922
    1BCK1    B1  860  21.285  20.531   5.066
    1BCK1    B1  861  21.247   0.112   5.312
    1BCK1    B1  862  21.216   0.213   5.425
    1BCK1    B1  863  21.099   0.307   5.716
    1BCK1    B1  864  21.186   0.365   5.878
    1BCK1    B1  865   9.335   3.742  20.307
    1BCK1    B1  866   9.481   3.783  20.162
    1BCK1    B1  867   9.653   3.826  19.981
    1BCK1    B1  868   9.797   3.866  19.832
    1BCK1    B1  869   9.960   3.917  19.665
    1BCK1    B1  870  10.103   3.971  19.519
    1BCK1    B1  871  10.258   4.040  19.361
    1BCK1    B1  872  10.396   4.125  19.222
    1BCK1    B1  873  10.539   4.236  19.083
    1BCK1    B1  874  10.664   4.357  18.960
    1BCK1    B1  875  10.783   4.509  18.837
    1BCK1    B1  876  10.884   4.668  18.736
    1BCK1    B1  877  10.984   4.851  18.638
    1BCK1    B1  878  11.069   5.028  18.552
    1BCK1    B1  879  11.158   5.228  18.466
    1BCK1    B1  880  11.247   5.416  18.396
    1BCK1    B1  881  11.321   5.631  18.304
    1BCK1    B1  882  11.239   5.802  18.109
    1BCK1    B1  883   6.259  19.894  20.217
    1BCK1    B1  884   6.423  19.851  20.092
    1BCK1    B1  885   6.620  19.802  19.941
    1BCK1    B1  886   6.784  19.758  19.815
    1BCK1    B1  887   6.967  19.706  19.673
    1BCK1    B1  888   7.127  19.647  19.544
    1BCK1    B1  889   7.295  19.574  19.405
    1BCK1    B1  890   7.445  19.488  19.277
    1BCK1    B1  891   7.590  19.379  19.141
    1BCK1    B1  892   7.715  19.252  19.016
    1BCK1    B1  893   7.829  19.105  18.893
    1BCK1    B1  894   7.922  18.942  18.776
    1BCK1    B1  895   8.006  18.768  18.664
    1BCK1    B1  896   8.081  18.584  18.556
    1BCK1    B1  897   8.145  18.397  18.452
    1BCK1    B1  898   8.212  18.194  18.345
    1BCK1    B1  899   8.270  18.002  18.242
    1BCK1    B1  900   8.319  17.761  18.062
    1BCK1    B1  901   3.535  20.185   9.082
    1BCK1    B1  902   3.453  20.079   9.018
    1BCK1    B1  903   3.250  19.771   9.078
    1BCK1    B1  904   3.083  19.754   9.091
    1BCK1    B1  905   2.983  19.561   8.728
    1BCK1    B1  906   2.998  19.356   8.869
    1BCK1    B1  907   2.680  19.368   9.082
    1BCK1    B1  908   2.508  19.411   8.916
    1BCK1    B1  909   2.380  19.262   8.675
    1BCK1    B1  910   2.378  18.984   8.674
    1BCK1    B1  911   2.514  18.835   8.913
    1BCK1    B1  912   2.686  18.872   9.066
    1BCK1    B1  913   3.010  18.867   8.886
    1BCK1    B1  914   3.048  18.660   8.794
    1BCK1    B1  915   3.057  18.462   9.111
    1BCK1    B1  916   3.235  18.442   9.210
    1BCK1    B1  917   3.497  18.235   9.159
    1BCK1    B1  918   3.570  18.012   9.184
    1BCK1    B1  919   8.419   5.605   9.235
    1BCK1    B1  920   8.362   5.657   9.344
    1BCK1    B1  921   8.219   5.806   9.633
    1BCK1    B1  922   8.190   5.928   9.706
    1BCK1    B1  923   8.060   6.127   9.933
    1BCK1    B1  924   7.954   6.007  10.114
    1BCK1    B1  925   7.875   6.135  10.349
    1BCK1    B1  926   7.872   6.319  10.463
    1BCK1    B1  927   7.684   6.533  10.522
    1BCK1    B1  928   7.521   6.527  10.730
    1BCK1    B1  929   7.447   6.179  10.750
    1BCK1    B1  930   7.392   6.067  10.900
    1BCK1    B1  931   7.069   6.208  11.004
    1BCK1    B1  932   6.923   6.096  11.056
    1BCK1    B1  933   6.768   5.881  11.154
    1BCK1    B1  934   6.587   5.784  11.226
    1BCK1    B1  935   6.369   5.678  11.346
    1BCK1    B1  936   6.227   5.602  11.540
    1BCK1    B1  937   8.596   2.593   8.500
    1BCK1    B1  938   8.656   2.572   8.493
    1BCK1    B1  939   8.859   2.264   8.259
    1BCK1    B1  940   8.876   2.240   8.239
    1BCK1    B1  941   9.049   1.861   8.054
    1BCK1    B1  942   9.105   1.908   8.002
    1BCK1    B1  943   9.256   1.778   7.602
    1BCK1    B1  944   9.265   1.694   7.642
    1BCK1    B1  945   9.589   1.398   7.696
    1BCK1    B1  946   9.589   1.308   7.612
    1BCK1    B1  947   9.252   1.355   7.341
    1BCK1    B1  948   9.256   1.421   7.238
    1BCK1    B1  949   9.160   1.019   7.044
    1BCK1    B1  950   9.079   1.011   7.050
    1BCK1    B1  951   8.898   0.878   6.663
    1BCK1    B1  952   8.839   0.815   6.676
    1BCK1    B1  953   8.752   0.418   6.636
    1BCK1    B1  954   8.710   0.350   6.612
    1BCK1    B1  955  22.699   2.984   9.023
    1BCK1    B1  956  22.637   2.804   9.020
    1BCK1    B1  957  22.595   2.525   8.990
    1BCK1    B1  958  22.568   2.344   8.991
    1BCK1    B1  959  22.476   2.083   9.034
    1BCK1    B1  960  22.417   1.903   9.030
    1BCK1    B1  961  22.470   1.626   8.946
    1BCK1    B1  962  22.482   1.453   8.929
    1BCK1    B1  963  22.363   1.187   9.036
    1BCK1    B1  964  22.245   1.059   9.039
    1BCK1    B1  965  21.972   0.943   8.930
    1BCK1    B1  966  21.811   0.950   8.939
    1BCK1    B1  967  21.521   1.005   9.028
    1BCK1    B1  968  21.359   0.950   9.041
    1BCK1    B1  969  21.078   0.855   8.987
    1BCK1    B1  970  20.925   0.853   8.974
    1BCK1    B1  971  20.612   0.768   9.012
    1BCK1    B1  972  20.516   0.690   9.022
    1BCK1    B1  973   3.128   0.036   3.710
    1BCK1    B1  974   3.111   0.205   3.770
    1BCK1    B1  975   3.096   0.499   3.841
    1BCK1    B1  976   3.049   0.659   3.862
    1BCK1    B1  977   2.919   0.934   3.906
    1BCK1    B1  978   2.945   1.099   3.975
    1BCK1    B1  979   3.038   1.381   4.031
    1BCK1    B1  980   2.963   1.565   4.017
    1BCK1    B1  981   2.758   1.781   4.052
    1BCK1    B1  982   2.758   1.948   4.219
    1BCK1    B1  983   2.963   1.983   4.436
    1BCK1    B1  984   3.037   1.970   4.620
    1BCK1    B1  985   2.945   2.025   4.902
    1BCK1    B1  986   2.919   2.094   5.067
    1BCK1    B1  987   3.049   2.138   5.341
    1BCK1    B1  988   3.096   2.162   5.502
    1BCK1    B1  989   3.112   2.244   5.784
    1BCK1    B1  990   3.123   2.290   5.962
    1BCK1    B1  991   0.416   0.502   9.454
    1BCK1    B1  992   0.371   0.376   9.591
    1BCK1    B1  993   0.293   0.164   9.803
    1BCK1    B1  994   0.012   0.137   9.841
    1BCK1    B1  995  23.257   0.097   9.986
    1BCK1    B1  996   0.055  20.540  10.254
    1BCK1    B1  997  23.332  20.308  10.254
    1BCK1    B1  998  23.057  20.275  10.221
    1BCK1    B1  999  22.887  20.083  10.343
    1BCK1    B1 1000  22.887  20.083  10.657
    1BCK1    B1 1001  23.057  20.275  10.779
    1BCK1    B1 1002  23.331  20.309  10.746
    1BCK1    B1 1003   0.055  20.540  10.746
    1BCK1    B1 1004  23.263   0.098  11.013
    1BCK1    B1 1005   0.012   0.135  11.164
    1BCK1    B1 1006   0.299   0.182  11.202
    1BCK1    B1 1007   0.376   0.381  11.402
    1BCK1    B1 1008   0.406   0.487  11.640
    1BCK1    B1 1009   0.937   3.125   9.273
    1BCK1    B1 1010   1.181   3.086   9.190
    1BCK1    B1 1011   1.417   3.051   9.110
    1BCK1    B1 1012   1.667   3.015   9.033
    1BCK1    B1 1013   1.882   2.990   8.977
    1BCK1    B1 1014   2.162   2.960   8.912
    1BCK1    B1 1015   2.322   2.918   8.803
    1BCK1    B1 1016   2.639   2.855   8.694
    1BCK1    B1 1017   2.806   2.814   8.736
    1BCK1    B1 1018   3.196   2.821   8.747
    1BCK1    B1 1019   3.362   2.868   8.722
    1BCK1    B1 1020   3.674   2.905   8.794
    1BCK1    B1 1021   3.870   2.904   8.828
    1BCK1    B1 1022   4.131   2.977   8.956
    1BCK1    B1 1023   4.326   3.017   9.039
    1BCK1    B1 1024   4.583   3.053   9.112
    1BCK1    B1 1025   4.820   3.089   9.187
    1BCK1    B1 1026   5.065   3.130   9.267
    1BCK1    B1 1027   6.794   5.442   5.848
    1BCK1    B1 1028   6.792   5.420   5.825
    1BCK1    B1 1029   7.009   5.275   5.456
    1BCK1    B1 1030   7.048   5.270   5.453
    1BCK1    B1 1031   6.700   4.933   4.792
    1BCK1    B1 1032   6.763   4.920   4.801
    1BCK1    B1 1033   7.025   4.824   4.486
    1BCK1    B1 1034   7.037   4.700   4.494
    1BCK1    B1 1035   7.198   4.477   4.238
    1BCK1    B1 1036   7.216   4.561   4.091
    1BCK1    B1 1037   7.526   4.411   3.902
    1BCK1    B1 1038   7.587   4.346   3.923
    1BCK1    B1 1039   7.695   3.960   3.895
    1BCK1    B1 1040   7.662   3.897   3.842
    1BCK1    B1 1041   8.475   3.802   3.988
    1BCK1    B1 1042   8.482   3.786   3.964
    1BCK1    B1 1043   8.812   3.489   3.864
    1BCK1    B1 1044   8.819   3.431   3.853
    1BCK1    B1 1045  23.336   3.683   9.439
    1BCK1    B1 1046  23.323   3.532   9.567
    1BCK1    B1 1047  23.238   3.306   9.741
    1BCK1    B1 1048  23.415   3.137   9.828
    1BCK1    B1 1049   0.131   3.044   9.999
    1BCK1    B1 1050  23.394   2.950  10.244
    1BCK1    B1 1051   0.025   2.658  10.260
    1BCK1    B1 1052   0.134   2.489  10.222
    1BCK1    B1 1053   0.121   2.191  10.356
    1BCK1    B1 1054   0.121   2.192  10.644
    1BCK1    B1 1055   0.134   2.489  10.778
    1BCK1    B1 1056   0.027   2.659  10.741
    1BCK1    B1 1057  23.394   2.950  10.756
    1BCK1    B1 1058   0.125   3.046  11.001
    1BCK1    B1 1059  23.415   3.135  11.175
    1BCK1    B1 1060  23.246   3.323  11.264
    1BCK1    B1 1061  23.321   3.538  11.425
    1BCK1    B1 1062  23.334   3.659  11.654
    1BCK1    B1 1063  23.032   2.416   3.167
    1BCK1    B1 1064  23.107   2.352   3.304
    1BCK1    B1 1065  23.245   2.205   3.545
    1BCK1    B1 1066  23.282   2.154   3.701
    1BCK1    B1 1067  23.422   2.141   3.982
    1BCK1    B1 1068   0.139   2.052   4.065
    1BCK1    B1 1069   0.207   1.815   4.270
    1BCK1    B1 1070   0.239   1.812   4.457
    1BCK1    B1 1071   0.454   1.874   4.696
    1BCK1    B1 1072   0.454   1.696   4.874
    1BCK1    B1 1073   0.239   1.457   4.811
    1BCK1    B1 1074   0.206   1.271   4.815
    1BCK1    B1 1075   0.139   1.066   5.052
    1BCK1    B1 1076  23.421   0.982   5.140
    1BCK1    B1 1077  23.281   0.702   5.154
    1BCK1    B1 1078  23.243   0.545   5.204
    1BCK1    B1 1079  23.106   0.304   5.351
    1BCK1    B1 1080  23.031   0.167   5.416
    1BCK1    B1 1081   9.415   6.555   6.199
    1BCK1    B1 1082   9.337   6.625   6.333
    1BCK1    B1 1083   9.240   6.748   6.608
    1BCK1    B1 1084   9.163   6.819   6.738
    1BCK1    B1 1085   8.907   6.942   6.893
    1BCK1    B1 1086   8.833   7.005   7.029
    1BCK1    B1 1087   8.874   7.095   7.353
    1BCK1    B1 1088   8.767   7.145   7.484
    1BCK1    B1 1089   8.457   7.265   7.569
    1BCK1    B1 1090   8.457   7.431   7.735
    1BCK1    B1 1091   8.767   7.516   7.855
    1BCK1    B1 1092   8.874   7.647   7.905
    1BCK1    B1 1093   8.833   7.971   7.995
    1BCK1    B1 1094   8.907   8.107   8.058
    1BCK1    B1 1095   9.163   8.262   8.181
    1BCK1    B1 1096   9.240   8.392   8.252
    1BCK1    B1 1097   9.337   8.667   8.375
    1BCK1    B1 1098   9.415   8.801   8.445
    1BCK1    B1 1099   0.937   6.251   9.163
    1BCK1    B1 1100   1.181   6.175   9.113
    1BCK1    B1 1101   1.417   6.102   9.066
    1BCK1    B1 1102   1.667   6.031   9.020
    1BCK1    B1 1103   1.882   5.978   8.986
    1BCK1    B1 1104   2.163   5.916   8.945
    1BCK1    B1 1105   2.325   5.821   8.889
    1BCK1    B1 1106   2.645   5.751   8.827
    1BCK1    B1 1107   2.791   5.724   8.805
    1BCK1    B1 1108   3.202   5.781   8.814
    1BCK1    B1 1109   3.357   5.788   8.838
    1BCK1    B1 1110   3.672   5.820   8.886
    1BCK1    B1 1111   3.837   5.916   8.943
    1BCK1    B1 1112   4.115   5.977   8.985
    1BCK1    B1 1113   4.332   6.031   9.020
    1BCK1    B1 1114   4.582   6.102   9.066
    1BCK1    B1 1115   4.819   6.174   9.113
    1BCK1    B1 1116   5.063   6.250   9.162
    1BCK1    B1 1117  23.119   9.740   2.652
    1BCK1    B1 1118  22.967   9.781   2.511
    1BCK1    B1 1119  22.784   9.824   2.342
    1BCK1    B1 1120  22.631   9.865   2.201
    1BCK1    B1 1121  22.461   9.917   2.043
    1BCK1    B1 1122  22.312   9.972   1.902
    1BCK1    B1 1123  22.151  10.040   1.752
    1BCK1    B1 1124  22.008  10.127   1.618
    1BCK1    B1 1125  21.866  10.235   1.477
    1BCK1    B1 1126  21.742  10.359   1.352
    1BCK1    B1 1127  21.625  10.511   1.233
    1BCK1    B1 1128  21.525  10.672   1.126
    1BCK1    B1 1129  21.430  10.851   1.023
    1BCK1    B1 1130  21.348  11.032   0.929
    1BCK1    B1 1131  21.270  11.228   0.839
    1BCK1    B1 1132  21.188  11.423   0.751
    1BCK1    B1 1133  21.118  11.629   0.661
    1BCK1    B1 1134  21.209  11.897   0.588
    1BCK1    B1 1135   3.242   0.431  19.903
    1BCK1    B1 1136   3.411   0.550  19.858
    1BCK1    B1 1137   3.614   0.692  19.806
    1BCK1    B1 1138   3.781   0.813  19.761
    1BCK1    B1 1139   3.968   0.950  19.706
    1BCK1    B1 1140   4.132   1.070  19.644
    1BCK1    B1 1141   4.304   1.203  19.568
    1BCK1    B1 1142   4.453   1.331  19.483
    1BCK1    B1 1143   4.601   1.465  19.374
    1BCK1    B1 1144   4.726   1.587  19.246
    1BCK1    B1 1145   4.839   1.713  19.097
    1BCK1    B1 1146   4.932   1.834  18.940
    1BCK1    B1 1147   5.010   1.952  18.766
    1BCK1    B1 1148   5.080   2.064  18.586
    1BCK1    B1 1149   5.144   2.175  18.399
    1BCK1    B1 1150   5.203   2.289  18.206
    1BCK1    B1 1151   5.260   2.399  18.009
    1BCK1    B1 1152   5.308   2.485  17.760
    1BCK1    B1 1153   3.279  20.157   3.466
    1BCK1    B1 1154   3.400  20.072   3.385
    1BCK1    B1 1155   3.639  19.905   3.261
    1BCK1    B1 1156   3.740  19.814   3.166
    1BCK1    B1 1157   3.895  19.700   2.915
    1BCK1    B1 1158   4.038  19.648   2.839
    1BCK1    B1 1159   4.304  19.455   2.835
    1BCK1    B1 1160   4.390  19.360   2.718
    1BCK1    B1 1161   4.509  19.309   2.405
    1BCK1    B1 1162   4.687  19.130   2.408
    1BCK1    B1 1163   4.736  19.013   2.719
    1BCK1    B1 1164   4.836  18.922   2.836
    1BCK1    B1 1165   5.025  18.661   2.838
    1BCK1    B1 1166   5.078  18.511   2.923
    1BCK1    B1 1167   5.190  18.364   3.165
    1BCK1    B1 1168   5.296  18.259   3.274
    1BCK1    B1 1169   5.444  18.027   3.389
    1BCK1    B1 1170   5.509  17.819   3.442
    1BCK1    B1 1171   3.091  20.115   9.442
    1BCK1    B1 1172   3.108  20.082   9.459
    1BCK1    B1 1173   3.210  19.658   9.640
    1BCK1    B1 1174   3.150  19.628   9.716
    1BCK1    B1 1175   2.817  19.834   9.897
    1BCK1    B1 1176   2.824  19.725  10.028
    1BCK1    B1 1177   2.943  19.493  10.264
    1BCK1    B1 1178   2.783  19.458  10.432
    1BCK1    B1 1179   2.552  19.470  10.598
    1BCK1    B1 1180   2.520  19.298  10.815
    1BCK1    B1 1181   2.734  19.092  10.826
    1BCK1    B1 1182   2.830  18.941  10.902
    1BCK1    B1 1183   2.890  18.709  11.046
    1BCK1    B1 1184   2.971  18.529  11.090
    1BCK1    B1 1185   3.125  18.320  11.153
    1BCK1    B1 1186   3.231  18.158  11.233
    1BCK1    B1 1187   3.323  17.932  11.346
    1BCK1    B1 1188   3.361  17.720  11.508
    1BCK1    B1 1189   6.274   3.726   3.401
    1BCK1    B1 1190   6.441   3.768   3.533
    1BCK1    B1 1191   6.634   3.817   3.691
    1BCK1    B1 1192   6.801   3.866   3.823
    1BCK1    B1 1193   7.001   3.963   3.929
    1BCK1    B1 1194   7.156   4.022   4.068
    1BCK1    B1 1195   7.265   3.970   4.299
    1BCK1    B1 1196   7.432   4.066   4.427
    1BCK1    B1 1197   7.532   4.252   4.531
    1BCK1    B1 1198   7.681   4.297   4.729
    1BCK1    B1 1199   7.853   4.448   4.786
    1BCK1    B1 1200   7.922   4.680   4.775
    1BCK1    B1 1201   7.963   4.869   4.916
    1BCK1    B1 1202   8.060   5.008   5.058
    1BCK1    B1 1203   8.143   5.210   5.165
    1BCK1    B1 1204   8.203   5.396   5.255
    1BCK1    B1 1205   8.274   5.614   5.368
    1BCK1    B1 1206   8.338   5.796   5.464
    1BCK1    B1 1207   0.483   3.217   6.686
    1BCK1    B1 1208   0.590   3.391   6.737
    1BCK1    B1 1209   0.716   3.602   6.800
    1BCK1    B1 1210   0.821   3.775   6.857
    1BCK1    B1 1211   0.943   3.970   6.922
    1BCK1    B1 1212   1.056   4.138   6.984
    1BCK1    B1 1213   1.179   4.318   7.063
    1BCK1    B1 1214   1.297   4.470   7.155
    1BCK1    B1 1215   1.428   4.618   7.269
    1BCK1    B1 1216   1.551   4.744   7.391
    1BCK1    B1 1217   1.683   4.857   7.539
    1BCK1    B1 1218   1.807   4.943   7.690
    1BCK1    B1 1219   1.935   5.020   7.866
    1BCK1    B1 1220   2.054   5.083   8.031
    1BCK1    B1 1221   2.187   5.141   8.220
    1BCK1    B1 1222   2.300   5.190   8.390
    1BCK1    B1 1223   2.437   5.249   8.598
    1BCK1    B1 1224   2.548   5.279   8.768
    1BCK1    B1 1225   3.644   3.280   9.133
    1BCK1    B1 1226   3.799   3.167   9.242
    1BCK1    B1 1227   3.875   3.033   9.485
    1BCK1    B1 1228   3.839   3.035   9.686
    1BCK1    B1 1229   3.881   3.063   9.970
    1BCK1    B1 1230   4.022   3.013  10.120
    1BCK1    B1 1231   4.040   2.786  10.335
    1BCK1    B1 1232   3.988   2.759  10.526
    1BCK1    B1 1233   4.082   2.954  10.797
    1BCK1    B1 1234   4.210   2.951  10.918
    1BCK1    B1 1235   4.475   2.757  11.013
    1BCK1    B1 1236   4.669   2.796  10.961
    1BCK1    B1 1237   4.883   3.015  10.978
    1BCK1    B1 1238   5.044   3.051  11.119
    1BCK1    B1 1239   5.324   3.038  11.160
    1BCK1    B1 1240   5.521   3.079  11.137
    1BCK1    B1 1241   5.786   3.143  11.243
    1BCK1    B1 1242   5.928   3.168  11.418
    1BCK1    B1 1243   2.777   5.948  19.721
    1BCK1    B1 1244   2.834   5.762  19.729
    1BCK1    B1 1245   2.910   5.497  19.717
    1BCK1    B1 1246   2.950   5.305  19.711
    1BCK1    B1 1247   2.987   5.044  19.692
    1BCK1    B1 1248   3.041   4.853  19.650
    1BCK1    B1 1249   3.117   4.606  19.649
    1BCK1    B1 1250   3.155   4.405  19.685
    1BCK1    B1 1251   3.216   4.154  19.628
    1BCK1    B1 1252   3.214   3.997  19.464
    1BCK1    B1 1253   3.156   3.939  19.217
    1BCK1    B1 1254   3.114   3.976  19.010
    1BCK1    B1 1255   3.041   3.975  18.769
    1BCK1    B1 1256   2.987   3.932  18.568
    1BCK1    B1 1257   2.951   3.913  18.318
    1BCK1    B1 1258   2.900   3.909  18.109
    1BCK1    B1 1259   2.833   3.897  17.860
    1BCK1    B1 1260   2.806   3.877  17.612
    1BCK1    B1 1261   2.901   8.063  20.342
    1BCK1    B1 1262   2.931   7.820  20.427
    1BCK1    B1 1263   2.960   7.583  20.509
    1BCK1    B1 1264   2.989   7.333  20.589
    1BCK1    B1 1265   3.011   7.118   0.025
    1BCK1    B1 1266   3.038   6.838   0.094
    1BCK1    B1 1267   3.045   6.672   0.198
    1BCK1    B1 1268   3.111   6.363   0.285
    1BCK1    B1 1269   3.164   6.203   0.256
    1BCK1    B1 1270   3.160   5.801   0.254
    1BCK1    B1 1271   3.106   5.639   0.283
    1BCK1    B1 1272   3.061   5.328   0.197
    1BCK1    B1 1273   3.033   5.162   0.092
    1BCK1    B1 1274   3.008   4.882   0.023
    1BCK1    B1 1275   2.988   4.667  20.587
    1BCK1    B1 1276   2.959   4.417  20.507
    1BCK1    B1 1277   2.931   4.181  20.425
    1BCK1    B1 1278   2.901   3.938  20.339
    1BCK1    B1 1279   2.473   5.802   3.667
    1BCK1    B1 1280   2.378   5.622   3.727
    1BCK1    B1 1281   2.266   5.406   3.794
    1BCK1    B1 1282   2.171   5.226   3.853
    1BCK1    B1 1283   2.062   5.027   3.924
    1BCK1    B1 1284   1.961   4.854   3.994
    1BCK1    B1 1285   1.846   4.672   4.080
    1BCK1    B1 1286   1.732   4.520   4.175
    1BCK1    B1 1287   1.607   4.368   4.290
    1BCK1    B1 1288   1.484   4.243   4.412
    1BCK1    B1 1289   1.348   4.131   4.558
    1BCK1    B1 1290   1.220   4.047   4.707
    1BCK1    B1 1291   1.081   3.976   4.877
    1BCK1    B1 1292   0.952   3.917   5.035
    1BCK1    B1 1293   0.807   3.863   5.217
    1BCK1    B1 1294   0.683   3.819   5.379
    1BCK1    B1 1295   0.531   3.769   5.580
    1BCK1    B1 1296   0.383   3.748   5.721
    1BCK1    B1 1297   3.479   6.147   8.501
    1BCK1    B1 1298   3.458   6.146   8.421
    1BCK1    B1 1299   3.086   6.156   8.168
    1BCK1    B1 1300   3.057   6.069   8.161
    1BCK1    B1 1301   3.158   5.808   7.841
    1BCK1    B1 1302   2.956   5.997   7.710
    1BCK1    B1 1303   2.678   5.953   7.750
    1BCK1    B1 1304   2.622   5.657   7.813
    1BCK1    B1 1305   2.591   5.457   7.655
    1BCK1    B1 1306   2.593   5.459   7.348
    1BCK1    B1 1307   2.625   5.662   7.192
    1BCK1    B1 1308   2.672   5.954   7.246
    1BCK1    B1 1309   2.959   6.015   7.257
    1BCK1    B1 1310   3.151   5.857   7.131
    1BCK1    B1 1311   3.087   6.044   6.813
    1BCK1    B1 1312   3.111   6.226   6.808
    1BCK1    B1 1313   3.357   6.385   6.602
    1BCK1    B1 1314   3.451   6.419   6.512
    1BCK1    B1 1315   3.445   8.505   6.305
    1BCK1    B1 1316   3.359   8.401   6.442
    1BCK1    B1 1317   3.223   8.241   6.648
    1BCK1    B1 1318   3.053   8.191   6.772
    1BCK1    B1 1319   2.887   8.107   6.942
    1BCK1    B1 1320   3.000   7.913   7.163
    1BCK1    B1 1321   2.805   7.813   7.284
    1BCK1    B1 1322   2.518   7.819   7.290
    1BCK1    B1 1323   2.419   7.635   7.494
    1BCK1    B1 1324   2.708   7.562   7.690
    1BCK1    B1 1325   2.851   7.439   7.697
    1BCK1    B1 1326   2.713   7.098   7.820
    1BCK1    B1 1327   2.736   7.083   7.981
    1BCK1    B1 1328   3.064   7.102   8.192
    1BCK1    B1 1329   3.087   6.752   8.086
    1BCK1    B1 1330   3.142   6.626   8.120
    1BCK1    B1 1331   3.373   6.647   8.475
    1BCK1    B1 1332   3.428   6.686   8.531
    1BCK1    B1 1333   6.163   0.407   0.575
    1BCK1    B1 1334   6.305   0.327   0.640
    1BCK1    B1 1335   6.551   0.205   0.756
    1BCK1    B1 1336   6.698   0.148   0.832
    1BCK1    B1 1337   6.929  20.614   0.911
    1BCK1    B1 1338   7.057  20.506   0.964
    1BCK1    B1 1339   7.300  20.420   1.119
    1BCK1    B1 1340   7.447  20.346   1.154
    1BCK1    B1 1341   7.674  20.137   1.167
    1BCK1    B1 1342   7.833  20.137   1.327
    1BCK1    B1 1343   7.846  20.346   1.554
    1BCK1    B1 1344   7.881  20.420   1.702
    1BCK1    B1 1345   8.036  20.508   1.944
    1BCK1    B1 1346   8.090  20.615   2.072
    1BCK1    B1 1347   8.162   0.149   2.307
    1BCK1    B1 1348   8.233   0.205   2.455
    1BCK1    B1 1349   8.344   0.322   2.706
    1BCK1    B1 1350   8.410   0.407   2.842
    1BCK1    B1 1351   3.650  19.724   9.355
    1BCK1    B1 1352   3.618  19.864   9.427
    1BCK1    B1 1353   3.680  19.953   9.859
    1BCK1    B1 1354   3.763  19.748   9.842
    1BCK1    B1 1355   4.028  19.668   9.910
    1BCK1    B1 1356   4.123  19.653  10.094
    1BCK1    B1 1357   4.279  19.591  10.270
    1BCK1    B1 1358   4.422  19.496  10.385
    1BCK1    B1 1359   4.574  19.385  10.530
    1BCK1    B1 1360   4.691  19.259  10.647
    1BCK1    B1 1361   4.816  19.106  10.773
    1BCK1    B1 1362   4.905  18.945  10.876
    1BCK1    B1 1363   4.998  18.762  10.984
    1BCK1    B1 1364   5.078  18.582  11.073
    1BCK1    B1 1365   5.158  18.386  11.167
    1BCK1    B1 1366   5.230  18.188  11.256
    1BCK1    B1 1367   5.302  17.987  11.346
    1BCK1    B1 1368   5.350  17.750  11.520
    1BCK1    B1 1369   2.627   9.283   2.263
    1BCK1    B1 1370   2.493   9.441   2.222
    1BCK1    B1 1371   2.331   9.630   2.177
    1BCK1    B1 1372   2.196   9.787   2.136
    1BCK1    B1 1373   2.045   9.965   2.086
    1BCK1    B1 1374   1.911  10.118   2.028
    1BCK1    B1 1375   1.763  10.280   1.955
    1BCK1    B1 1376   1.631  10.425   1.871
    1BCK1    B1 1377   1.494  10.573   1.765
    1BCK1    B1 1378   1.371  10.696   1.638
    1BCK1    B1 1379   1.248  10.810   1.485
    1BCK1    B1 1380   1.139  10.908   1.327
    1BCK1    B1 1381   1.029  10.998   1.148
    1BCK1    B1 1382   0.933  11.077   0.970
    1BCK1    B1 1383   0.834  11.150   0.772
    1BCK1    B1 1384   0.743  11.212   0.580
    1BCK1    B1 1385   0.644  11.290   0.373
    1BCK1    B1 1386   0.562  11.461   0.210
    1BCK1    B1 1387   6.455   3.164   3.617
    1BCK1    B1 1388   6.568   3.154   3.525
    1BCK1    B1 1389   6.837   3.205   3.293
    1BCK1    B1 1390   6.817   3.056   3.128
    1BCK1    B1 1391   6.900   2.817   2.980
    1BCK1    B1 1392   7.234   2.993   2.960
    1BCK1    B1 1393   7.258   3.018   2.708
    1BCK1    B1 1394   7.221   2.830   2.502
    1BCK1    B1 1395   7.325   2.772   2.276
    1BCK1    B1 1396   7.676   2.777   2.287
    1BCK1    B1 1397   7.780   2.829   2.496
    1BCK1    B1 1398   7.748   3.019   2.724
    1BCK1    B1 1399   7.746   2.979   2.956
    1BCK1    B1 1400   8.116   2.834   2.987
    1BCK1    B1 1401   8.163   3.080   3.111
    1BCK1    B1 1402   8.114   3.222   3.309
    1BCK1    B1 1403   8.507   2.995   3.432
    1BCK1    B1 1404   8.554   3.008   3.439
    1BCK1    B1 1405   6.512   5.333   6.219
    1BCK1    B1 1406   6.634   5.280   6.370
    1BCK1    B1 1407   6.742   5.210   6.595
    1BCK1    B1 1408   6.832   5.150   6.772
    1BCK1    B1 1409   6.938   5.074   6.973
    1BCK1    B1 1410   7.034   5.001   7.146
    1BCK1    B1 1411   7.146   4.916   7.330
    1BCK1    B1 1412   7.260   4.823   7.484
    1BCK1    B1 1413   7.385   4.706   7.636
    1BCK1    B1 1414   7.506   4.579   7.758
    1BCK1    B1 1415   7.642   4.433   7.869
    1BCK1    B1 1416   7.775   4.290   7.954
    1BCK1    B1 1417   7.918   4.123   8.026
    1BCK1    B1 1418   8.048   3.965   8.082
    1BCK1    B1 1419   8.194   3.785   8.136
    1BCK1    B1 1420   8.325   3.624   8.179
    1BCK1    B1 1421   8.480   3.431   8.225
    1BCK1    B1 1422   8.612   3.268   8.271
    1BCK1    B1 1423   5.378   6.196   2.414
    1BCK1    B1 1424   5.301   6.392   2.324
    1BCK1    B1 1425   5.221   6.607   2.229
    1BCK1    B1 1426   5.140   6.812   2.132
    1BCK1    B1 1427   5.042   7.005   2.076
    1BCK1    B1 1428   4.900   7.213   1.995
    1BCK1    B1 1429   4.913   7.330   1.781
    1BCK1    B1 1430   4.942   7.422   1.567
    1BCK1    B1 1431   4.819   7.650   1.453
    1BCK1    B1 1432   4.621   7.760   1.531
    1BCK1    B1 1433   4.375   7.809   1.489
    1BCK1    B1 1434   4.272   7.919   1.284
    1BCK1    B1 1435   4.151   8.010   1.118
    1BCK1    B1 1436   3.978   8.076   0.974
    1BCK1    B1 1437   3.809   8.127   0.816
    1BCK1    B1 1438   3.654   8.171   0.664
    1BCK1    B1 1439   3.470   8.217   0.489
    1BCK1    B1 1440   3.317   8.259   0.344
    1BCK1    B1 1441   5.580   8.736   2.275
    1BCK1    B1 1442   5.448   8.551   2.227
    1BCK1    B1 1443   5.300   8.361   2.180
    1BCK1    B1 1444   5.154   8.177   2.125
    1BCK1    B1 1445   5.055   7.991   2.037
    1BCK1    B1 1446   4.911   7.806   1.943
    1BCK1    B1 1447   4.678   7.728   2.013
    1BCK1    B1 1448   4.482   7.606   2.021
    1BCK1    B1 1449   4.388   7.385   1.885
    1BCK1    B1 1450   4.446   7.299   1.669
    1BCK1    B1 1451   4.373   7.235   1.444
    1BCK1    B1 1452   4.191   7.112   1.341
    1BCK1    B1 1453   4.056   7.006   1.180
    1BCK1    B1 1454   3.955   6.935   0.993
    1BCK1    B1 1455   3.836   6.863   0.789
    1BCK1    B1 1456   3.735   6.803   0.612
    1BCK1    B1 1457   3.607   6.734   0.387
    1BCK1    B1 1458   3.528   6.679   0.211
    1BCK1    B1 1459   8.755   6.425  19.904
    1BCK1    B1 1460   8.587   6.546  19.857
    1BCK1    B1 1461   8.385   6.690  19.807
    1BCK1    B1 1462   8.218   6.811  19.760
    1BCK1    B1 1463   8.032   6.948  19.705
    1BCK1    B1 1464   7.870   7.073  19.646
    1BCK1    B1 1465   7.699   7.208  19.570
    1BCK1    B1 1466   7.549   7.334  19.483
    1BCK1    B1 1467   7.399   7.466  19.376
    1BCK1    B1 1468   7.276   7.593  19.248
    1BCK1    B1 1469   7.166   7.719  19.099
    1BCK1    B1 1470   7.071   7.837  18.939
    1BCK1    B1 1471   6.991   7.952  18.764
    1BCK1    B1 1472   6.919   8.065  18.584
    1BCK1    B1 1473   6.852   8.182  18.402
    1BCK1    B1 1474   6.790   8.297  18.210
    1BCK1    B1 1475   6.751   8.389  18.000
    1BCK1    B1 1476   6.696   8.481  17.756
    1BCK1    B1 1477   5.382   9.490   9.088
    1BCK1    B1 1478   5.473   9.570   9.084
    1BCK1    B1 1479   5.762   9.811   9.161
    1BCK1    B1 1480   5.877   9.857   9.082
    1BCK1    B1 1481   6.003  10.041   8.783
    1BCK1    B1 1482   6.044  10.254   8.887
    1BCK1    B1 1483   6.297  10.251   9.130
    1BCK1    B1 1484   6.525  10.230   9.014
    1BCK1    B1 1485   6.648  10.341   8.768
    1BCK1    B1 1486   6.648  10.659   8.768
    1BCK1    B1 1487   6.525  10.770   9.014
    1BCK1    B1 1488   6.298  10.748   9.130
    1BCK1    B1 1489   6.044  10.745   8.887
    1BCK1    B1 1490   6.001  10.959   8.786
    1BCK1    B1 1491   5.877  11.143   9.082
    1BCK1    B1 1492   5.747  11.194   9.157
    1BCK1    B1 1493   5.467  11.423   9.085
    1BCK1    B1 1494   5.400  11.604   9.089
    1BCK1    B1 1495   9.501   8.624   3.590
    1BCK1    B1 1496   9.467   8.589   3.488
    1BCK1    B1 1497   9.801   8.283   3.397
    1BCK1    B1 1498   9.838   8.279   3.407
    1BCK1    B1 1499   9.916   7.956   2.514
    1BCK1    B1 1500   9.903   7.848   2.627
    1BCK1    B1 1501  10.260   7.661   2.706
    1BCK1    B1 1502  10.338   7.686   2.673
    1BCK1    B1 1503  10.365   7.380   2.293
    1BCK1    B1 1504  10.406   7.325   2.309
    1BCK1    B1 1505  10.696   7.388   2.689
    1BCK1    B1 1506  10.712   7.356   2.703
    1BCK1    B1 1507  10.832   6.939   2.726
    1BCK1    B1 1508  10.875   6.916   2.558
    1BCK1    B1 1509  11.011   6.736   3.269
    1BCK1    B1 1510  11.332   6.808   3.284
    1BCK1    B1 1511  11.547   6.854   3.344
    1BCK1    B1 1512  11.634   6.574   3.543
    1BCK1    B1 1513   9.702   0.417   6.705
    1BCK1    B1 1514   9.651   0.525   6.689
    1BCK1    B1 1515   9.279   0.598   6.855
    1BCK1    B1 1516   9.221   0.555   6.940
    1BCK1    B1 1517   8.561   1.214   6.852
    1BCK1    B1 1518   8.581   1.150   6.935
    1BCK1    B1 1519   8.739   1.323   7.312
    1BCK1    B1 1520   8.761   1.424   7.269
    1BCK1    B1 1521   8.392   1.685   7.237
    1BCK1    B1 1522   8.384   1.771   7.322
    1BCK1    B1 1523   8.756   1.745   7.606
    1BCK1    B1 1524   8.739   1.705   7.682
    1BCK1    B1 1525   8.596   2.115   7.851
    1BCK1    B1 1526   8.594   2.168   7.818
    1BCK1    B1 1527   9.360   2.199   8.273
    1BCK1    B1 1528   9.358   2.166   8.336
    1BCK1    B1 1529   9.394   2.359   8.746
    1BCK1    B1 1530   9.415   2.301   8.812
    1BCK1    B1 1531   9.364   0.523   8.501
    1BCK1    B1 1532   9.291   0.435   8.394
    1BCK1    B1 1533   9.041   0.242   8.241
    1BCK1    B1 1534   9.014   0.086   8.194
    1BCK1    B1 1535   9.179  20.618   7.829
    1BCK1    B1 1536   9.028  20.596   7.745
    1BCK1    B1 1537   8.720  20.442   7.752
    1BCK1    B1 1538   8.701  20.235   7.826
    1BCK1    B1 1539   8.657  19.965   7.604
    1BCK1    B1 1540   8.659  19.954   7.407
    1BCK1    B1 1541   8.691  20.222   7.168
    1BCK1    B1 1542   8.681  20.435   7.250
    1BCK1    B1 1543   9.014  20.554   7.302
    1BCK1    B1 1544   9.163  20.567   7.218
    1BCK1    B1 1545   9.101   0.073   6.883
    1BCK1    B1 1546   9.162   0.100   6.763
    1BCK1    B1 1547   9.250   0.319   6.457
    1BCK1    B1 1548   9.236   0.413   6.379
    1BCK1    B1 1549   9.646   3.405   2.751
    1BCK1    B1 1550   9.503   3.587   2.813
    1BCK1    B1 1551   9.380   3.790   2.866
    1BCK1    B1 1552   9.104   3.823   2.967
    1BCK1    B1 1553   8.956   3.910   3.027
    1BCK1    B1 1554   8.968   4.259   2.992
    1BCK1    B1 1555   8.669   4.267   3.103
    1BCK1    B1 1556   8.521   4.213   3.198
    1BCK1    B1 1557   8.238   4.361   3.298
    1BCK1    B1 1558   8.238   4.635   3.295
    1BCK1    B1 1559   8.521   4.784   3.196
    1BCK1    B1 1560   8.669   4.732   3.102
    1BCK1    B1 1561   8.969   4.741   2.992
    1BCK1    B1 1562   8.957   5.089   3.026
    1BCK1    B1 1563   9.105   5.176   2.966
    1BCK1    B1 1564   9.381   5.210   2.866
    1BCK1    B1 1565   9.503   5.413   2.813
    1BCK1    B1 1566   9.646   5.595   2.751
    1BCK1    B1 1567   8.487   8.548  20.387
    1BCK1    B1 1568   8.406   8.631  20.256
    1BCK1    B1 1569   8.290   8.776  20.010
    1BCK1    B1 1570   8.213   8.879  19.890
    1BCK1    B1 1571   7.985   9.001  19.720
    1BCK1    B1 1572   7.924   9.060  19.554
    1BCK1    B1 1573   8.030   9.273  19.326
    1BCK1    B1 1574   7.932   9.412  19.223
    1BCK1    B1 1575   7.619   9.428  19.123
    1BCK1    B1 1576   7.501   9.428  19.002
    1BCK1    B1 1577   7.400   9.412  18.690
    1BCK1    B1 1578   7.295   9.269  18.596
    1BCK1    B1 1579   7.068   9.060  18.699
    1BCK1    B1 1580   6.897   9.001  18.626
    1BCK1    B1 1581   6.738   8.871  18.407
    1BCK1    B1 1582   6.606   8.749  18.342
    1BCK1    B1 1583   6.365   8.628  18.227
    1BCK1    B1 1584   6.251   8.568  18.038
    1BCK1    B1 1585   9.254   2.278   9.406
    1BCK1    B1 1586   9.419   2.230   9.535
    1BCK1    B1 1587   9.616   2.180   9.684
    1BCK1    B1 1588   9.782   2.136   9.810
    1BCK1    B1 1589   9.966   2.085   9.950
    1BCK1    B1 1590  10.128   2.024  10.076
    1BCK1    B1 1591  10.297   1.950  10.214
    1BCK1    B1 1592  10.447   1.865  10.341
    1BCK1    B1 1593  10.593   1.754  10.475
    1BCK1    B1 1594  10.715   1.629  10.601
    1BCK1    B1 1595  10.831   1.480  10.726
    1BCK1    B1 1596  10.926   1.324  10.841
    1BCK1    B1 1597  11.007   1.145  10.958
    1BCK1    B1 1598  11.077   0.968  11.063
    1BCK1    B1 1599  11.145   0.774  11.172
    1BCK1    B1 1600  11.214   0.585  11.270
    1BCK1    B1 1601  11.267   0.381  11.386
    1BCK1    B1 1602  11.170   0.219  11.593
    1BCK1    B1 1603   8.063   6.292  20.554
    1BCK1    B1 1604   7.820   6.203  20.575
    1BCK1    B1 1605   7.583   6.119  20.595
    1BCK1    B1 1606   7.334   6.036  20.615
    1BCK1    B1 1607   7.119   5.976   0.006
    1BCK1    B1 1608   6.840   5.904   0.023
    1BCK1    B1 1609   6.676   5.791   0.042
    1BCK1    B1 1610   6.360   5.710   0.074
    1BCK1    B1 1611   6.206   5.730   0.115
    1BCK1    B1 1612   5.796   5.738   0.126
    1BCK1    B1 1613   5.639   5.709   0.080
    1BCK1    B1 1614   5.324   5.789   0.045
    1BCK1    B1 1615   5.161   5.904   0.025
    1BCK1    B1 1616   4.882   5.976   0.006
    1BCK1    B1 1617   4.666   6.036  20.615
    1BCK1    B1 1618   4.416   6.119  20.596
    1BCK1    B1 1619   4.179   6.203  20.577
    1BCK1    B1 1620   3.934   6.295  20.559
    1BCK1    B1 1621  22.723   5.823   3.045
    1BCK1    B1 1622  22.665   5.854   3.209
    1BCK1    B1 1623  22.579   5.910   3.492
    1BCK1    B1 1624  22.556   5.927   3.658
    1BCK1    B1 1625  22.557   5.996   3.953
    1BCK1    B1 1626  22.488   6.063   4.098
    1BCK1    B1 1627  22.325   6.110   4.351
    1BCK1    B1 1628  22.335   6.125   4.532
    1BCK1    B1 1629  22.417   6.191   4.821
    1BCK1    B1 1630  22.251   6.192   4.995
    1BCK1    B1 1631  21.956   6.125   4.914
    1BCK1    B1 1632  21.781   6.114   4.894
    1BCK1    B1 1633  21.521   6.063   5.064
    1BCK1    B1 1634  21.394   5.995   5.144
    1BCK1    B1 1635  21.081   5.927   5.133
    1BCK1    B1 1636  20.941   5.924   5.124
    1BCK1    B1 1637  20.629   5.858   5.249
    1BCK1    B1 1638  20.558   5.807   5.335
    1BCK1    B1 1639   8.981  19.894   0.026
    1BCK1    B1 1640   8.800  19.837   0.021
    1BCK1    B1 1641   8.513  19.814   0.029
    1BCK1    B1 1642   8.339  19.766   0.029
    1BCK1    B1 1643   8.084  19.647  20.585
    1BCK1    B1 1644   7.901  19.620  20.567
    1BCK1    B1 1645   7.623  19.688   0.043
    1BCK1    B1 1646   7.445  19.675   0.045
    1BCK1    B1 1647   7.199  19.552  20.523
    1BCK1    B1 1648   7.070  19.420  20.525
    1BCK1    B1 1649   6.946  19.177   0.046
    1BCK1    B1 1650   6.938  18.992   0.040
    1BCK1    B1 1651   7.004  18.722  20.566
    1BCK1    B1 1652   6.970  18.529  20.589
    1BCK1    B1 1653   6.857  18.283   0.029
    1BCK1    B1 1654   6.808  18.090   0.028
    1BCK1    B1 1655   6.769  17.814   0.021
    1BCK1    B1 1656   6.734  17.584   0.024
    1HEX     C0 1657   0.000   0.001   0.002
    1HB      S1 1658   0.487   0.002  20.511
    1HB      S2 1659  23.058  20.621  20.623
    1HB      S3 1660   0.007   0.373  20.530
    1HB      S4 1661   0.009  20.163   0.001
    1HB      S5 1662   0.015  20.609   0.328
    1HB      S6 1663   0.003  20.605  20.251
    1HEX     C0 1664  23.422   0.003   2.999
    1HB      S1 1665   0.369   0.001   3.002
    1HB      S2 1666  23.054   0.002   3.003
    1HB      S3 1667  23.420   0.370   2.996
    1HB      S4 1668  23.422  20.253   3.004
    1HB      S5 1669  23.420   0.002   3.369
    1HB      S6 1670   0.006  20.607   2.658
    1HEX     C0 1671  23.423   0.001   5.998
    1HB      S1 1672   0.490   0.006   6.008
    1HB      S2 1673  23.055   0.002   5.996
    1HB      S3 1674   0.003   0.365   5.997
    1HB      S4 1675   0.005  20.260   5.999
    1HB      S5 1676   0.005   0.000   6.364
    1HB      S6 1677   0.003   0.003   5.633
    1HEX     C0 1678   0.001   0.001   9.003
    1HB      S1 1679   0.368   0.003   9.005
    1HB      S2 1680  23.056   0.000   9.001
    1HB      S3 1681   0.003   0.368   9.005
    1HB      S4 1682   0.000  20.256   9.001
    1HB      S5 1683   0.003   0.002   9.369
    1HB      S6 1684   0.000   0.000   8.633
    1HEX     C0 1685   0.003   3.005   0.001
    1HB      S1 1686   0.367   3.011  20.621
    1HB      S2 1687  23.060   3.001  20.619
    1HB      S3 1688  23.422   3.361  20.620
    1HB      S4 1689   0.001   2.637  20.619
    1HB      S5 1690   0.002   3.005   0.368
    1HB      S6 1691  23.423   3.009  20.165
    1HEX     C0 1692   0.002   2.996   3.001
    1HB      S1 1693   0.346   3.010   2.999
    1HB      S2 1694  23.057   2.995   3.001
    1HB      S3 1695  23.421   3.368   3.000
    1HB      S4 1696   0.006   2.627   3.005
    1HB      S5 1697   0.000   2.995   3.369
    1HB      S6 1698   0.001   2.997   2.631
    1HEX     C0 1699   0.005   3.003   6.001
    1HB      S1 1700   0.309   2.986   5.998
    1HB      S2 1701  23.056   3.000   6.002
    1HB      S3 1702   0.008   3.376   5.999
    1HB      S4 1703  23.417   2.624   6.003
    1HB      S5 1704  23.419   3.003   6.376
    1HB      S6 1705  23.420   3.006   5.627
    1HEX     C0 1706  23.421   3.001   9.003
    1HB      S1 1707   0.369   3.001   9.002
    1HB      S2 1708  23.074   3.009   9.001
    1HB      S3 1709  23.422   3.370   9.008
    1HB      S4 1710  23.421   2.633   9.001
    1HB      S5 1711   0.000   3.001   9.365
    1HB      S6 1712  23.422   3.001   8.634
    1HEX     C0 1713   0.002   5.997  20.623
    1HB      S1 1714   0.493   5.984   0.002
    1HB      S2 1715  23.058   6.000  20.619
    1HB      S3 1716   0.006   6.359  20.618
    1HB      S4 1717   0.004   5.649  20.620
    1HB      S5 1718   0.006   5.999   0.364
    1HB      S6 1719   0.005   6.006  20.166
    1HEX     C0 1720  23.422   5.999   2.999
    1HB      S1 1721   0.496   5.996   2.987
    1HB      S2 1722  23.074   6.009   3.001
    1HB      S3 1723   0.137   6.363   3.001
    1HB      S4 1724   0.005   5.637   2.998
    1HB      S5 1725   0.140   6.005   3.365
    1HB      S6 1726   0.006   5.997   2.634
    1HEX     C0 1727  23.326   6.000   5.886
    1HB      S1 1728   0.475   6.000   5.864
    1HB      S2 1729  23.036   6.000   6.031
    1HB      S3 1730  23.291   6.389   5.846
    1HB      S4 1731  23.291   5.611   5.846
    1HB      S5 1732  23.266   6.000   6.507
    1HB      S6 1733   0.036   6.000   5.584
    1HEX     C0 1734   0.001   6.002   9.003
    1HB      S1 1735   0.381   6.016   9.000
    1HB      S2 1736  23.058   5.996   9.000
    1HB      S3 1737   0.002   6.371   9.008
    1HB      S4 1738   0.133   5.612   9.101
    1HB      S5 1739  23.419   5.993   9.346
    1HB      S6 1740   0.001   5.996   8.638
    1HEX     C0 1741   0.000   9.000   0.000
    1HB      S1 1742   0.368   8.999   0.001
    1HB      S2 1743  23.055   9.000   0.000
    1HB      S3 1744   0.000   9.368   0.000
    1HB      S4 1745   0.002   8.631   0.001
    1HB      S5 1746   0.000   8.999   0.368
    1HB      S6 1747   0.000   9.000  20.255
    1HEX     C0 1748   0.000   9.000   3.001
    1HB      S1 1749   0.404   9.035   2.980
    1HB      S2 1750  23.062   9.003   3.001
    1HB      S3 1751  23.420   9.368   3.001
    1HB      S4 1752   0.009   8.636   3.001
    1HB      S5 1753   0.002   9.002   3.364
    1HB      S6 1754   0.003   9.001   2.636
    1HEX     C0 1755  23.421   8.999   6.003
    1HB      S1 1756   0.367   8.999   6.001
    1HB      S2 1757  23.054   8.997   6.006
    1HB      S3 1758  23.422   9.367   6.001
    1HB      S4 1759  23.420   8.630   6.002
    1HB      S5 1760  23.422   9.000   6.356
    1HB      S6 1761  23.422   8.999   5.633
    1HEX     C0 1762  23.416   8.996   8.990
    1HB      S1 1763   0.374   8.998   9.007
    1HB      S2 1764  23.057   8.997   8.999
    1HB      S3 1765  23.415   9.371   9.005
    1HB      S4 1766   0.003   8.632   9.002
    1HB      S5 1767  23.421   8.999   9.365
    1HB      S6 1768   0.031   9.040   8.642
    1HEX     C0 1769   3.000   0.000  20.623
    1HB      S1 1770   3.364  20.619  20.622
    1HB      S2 1771   2.635  20.622   0.001
    1HB      S3 1772   2.999   0.369  20.623
    1HB      S4 1773   3.006  20.164  20.618
    1HB      S5 1774   3.000  20.619   0.364
    1HB      S6 1775   3.001  20.621  20.257
    1HEX     C0 1776   3.002  20.622   3.004
    1HB      S1 1777   3.368  20.619   3.004
    1HB      S2 1778   2.633  20.623   3.001
    1HB      S3 1779   3.001   0.367   3.003
    1HB      S4 1780   3.004  20.253   3.003
    1HB      S5 1781   2.998  20.613   3.354
    1HB      S6 1782   3.001  20.623   2.633
    1HEX     C0 1783   3.000  20.622   6.000
    1HB      S1 1784   3.365  20.619   6.000
    1HB      S2 1785   2.636  20.618   6.000
    1HB      S3 1786   3.000   0.368   6.000
    1HB      S4 1787   3.009  20.166   5.994
    1HB      S5 1788   3.000  20.619   6.364
    1HB      S6 1789   3.000  20.619   5.635
    1HEX     C0 1790   3.004  20.615   9.003
    1HB      S1 1791   3.364  20.622   9.002
    1HB      S2 1792   2.633  20.622   9.001
    1HB      S3 1793   3.001   0.366   9.001
    1HB      S4 1794   2.990  20.257   8.977
    1HB      S5 1795   3.002  20.614   9.367
    1HB      S6 1796   3.001   0.001   8.631
    1HEX     C0 1797   3.000   3.000  20.623
    1HB      S1 1798   3.368   3.000  20.623
    1HB      S2 1799   2.632   3.000  20.623
    1HB      S3 1800   3.000   3.370  20.622
    1HB      S4 1801   3.000   2.632  20.623
    1HB      S5 1802   3.000   3.000   0.368
    1HB      S6 1803   3.000   3.000  20.255
    1HEX     C0 1804   2.997   2.999   3.000
    1HB      S1 1805   3.367   3.001   3.000
    1HB      S2 1806   2.654   3.012   3.000
    1HB      S3 1807   3.004   3.371   2.999
    1HB      S4 1808   2.993   2.630   3.003
    1HB      S5 1809   2.999   2.999   3.368
    1HB      S6 1810   3.001   3.000   2.632
    1HEX     C0 1811   2.994   3.127   6.090
    1HB      S1 1812   3.387   3.162   6.119
    1HB      S2 1813   2.718   3.117   6.095
    1HB      S3 1814   3.028   3.465   5.949
    1HB      S4 1815   2.996   2.479   6.190
    1HB      S5 1816   3.040   2.951   6.413
    1HB      S6 1817   3.014   3.141   5.529
    1HEX     C0 1818   2.999   3.085   9.140
    1HB      S1 1819   3.337   3.091   9.164
    1HB      S2 1820   2.653   3.048   9.124
    1HB      S3 1821   2.993   3.368   8.978
    1HB      S4 1822   3.000   2.551   9.116
    1HB      S5 1823   2.992   2.991   9.527
    1HB      S6 1824   3.000   3.164   8.445
    1HEX     C0 1825   2.926   6.000  20.473
    1HB      S1 1826   3.444   6.002  20.520
    1HB      S2 1827   2.652   6.000   0.018
    1HB      S3 1828   2.914   6.385  20.435
    1HB      S4 1829   2.909   5.613  20.431
    1HB      S5 1830   2.843   6.001   0.582
    1HB      S6 1831   3.036   5.999  20.116
    1HEX     C0 1832   3.002   6.002   3.001
    1HB      S1 1833   3.353   5.994   3.001
    1HB      S2 1834   2.632   6.001   3.000
    1HB      S3 1835   3.006   6.369   3.002
    1HB      S4 1836   2.999   5.632   3.000
    1HB      S5 1837   3.000   6.001   3.369
    1HB      S6 1838   2.998   6.002   2.631
    1HEX     C0 1839   3.000   6.002   6.005
    1HB      S1 1840   3.372   6.002   6.000
    1HB      S2 1841   2.631   6.003   6.006
    1HB      S3 1842   3.000   6.369   6.009
    1HB      S4 1843   3.000   5.631   5.999
    1HB      S5 1844   3.029   5.980   6.337
    1HB      S6 1845   3.001   6.000   5.634
    1HEX     C0 1846   2.997   6.124   9.091
    1HB      S1 1847   3.396   6.175   9.133
    1HB      S2 1848   2.613   6.160   9.121
    1HB      S3 1849   3.006   6.443   8.980
    1HB      S4 1850   3.011   5.472   9.158
    1HB      S5 1851   3.003   5.973   9.377
    1HB      S6 1852   2.947   6.137   8.620
    1HEX     C0 1853   3.002   9.002  20.622
    1HB      S1 1854   3.366   9.004  20.616
    1HB      S2 1855   2.633   8.997  20.618
    1HB      S3 1856   2.987   9.338   0.007
    1HB      S4 1857   3.002   8.633  20.618
    1HB      S5 1858   3.003   8.993   0.370
    1HB      S6 1859   3.008   9.111  20.158
    1HEX     C0 1860   2.996   8.998   3.000
    1HB      S1 1861   3.366   8.999   3.000
    1HB      S2 1862   2.659   9.015   2.992
    1HB      S3 1863   3.002   9.371   2.999
    1HB      S4 1864   2.992   8.630   3.001
    1HB      S5 1865   2.999   8.999   3.368
    1HB      S6 1866   3.000   9.001   2.629
    1HEX     C0 1867   3.001   8.998   6.001
    1HB      S1 1868   3.368   8.996   6.002
    1HB      S2 1869   2.633   8.999   6.000
    1HB      S3 1870   3.000   9.367   6.000
    1HB      S4 1871   3.003   8.630   6.004
    1HB      S5 1872   3.002   8.996   6.369
    1HB      S6 1873   3.000   8.999   5.633
    1HEX     C0 1874   2.999   8.998   8.999
    1HB      S1 1875   3.361   9.000   9.003
    1HB      S2 1876   2.640   9.001   9.003
    1HB      S3 1877   3.007   9.459   9.002
    1HB      S4 1878   3.000   8.631   9.000
    1HB      S5 1879   2.992   9.113   9.456
    1HB      S6 1880   2.999   9.000   8.634
    1HEX     C0 1881   6.001   0.001   0.002
    1HB      S1 1882   6.368   0.001   0.003
    1HB      S2 1883   5.633  20.623   0.001
    1HB      S3 1884   6.002   0.368   0.004
    1HB      S4 1885   6.002  20.254  20.622
    1HB      S5 1886   6.003   0.001   0.370
    1HB      S6 1887   6.001  20.622  20.256
    1HEX     C0 1888   6.004   0.001   3.002
    1HB      S1 1889   6.371  20.620   3.005
    1HB      S2 1890   5.637  20.619   3.001
    1HB      S3 1891   6.003   0.360   3.002
    1HB      S4 1892   6.012  20.161   3.009
    1HB      S5 1893   6.007  20.621   3.365
    1HB      S6 1894   6.002  20.619   2.638
    1HEX     C0 1895   6.000   0.000   6.000
    1HB      S1 1896   6.368   0.000   5.999
    1HB      S2 1897   5.633   0.000   6.000
    1HB      S3 1898   6.001   0.368   5.999
    1HB      S4 1899   6.000  20.255   6.000
    1HB      S5 1900   6.000   0.000   6.368
    1HB      S6 1901   6.001   0.002   5.631
    1HEX     C0 1902   6.002   0.000   9.000
    1HB      S1 1903   6.355  20.614   9.004
    1HB      S2 1904   5.636  20.619   9.000
    1HB      S3 1905   6.003   0.368   9.000
    1HB      S4 1906   5.994  20.164   9.001
    1HB      S5 1907   6.001  20.619   9.364
    1HB      S6 1908   6.002  20.619   8.636
    1HEX     C0 1909   6.000   3.000  20.622
    1HB      S1 1910   6.364   3.000  20.618
    1HB      S2 1911   5.636   3.000  20.619
    1HB      S3 1912   6.000   3.364  20.619
    1HB      S4 1913   6.000   2.636  20.618
    1HB      S5 1914   6.000   3.000   0.368
    1HB      S6 1915   5.998   3.002  20.161
    1HEX     C0 1916   6.004   2.998   3.004
    1HB      S1 1917   6.366   2.997   3.007
    1HB      S2 1918   5.634   3.000   3.002
    1HB      S3 1919   6.003   3.369   3.006
    1HB      S4 1920   6.003   2.641   3.003
    1HB      S5 1921   6.009   3.001   3.371
    1HB      S6 1922   6.002   3.000   2.635
    1HEX     C0 1923   6.003   2.997   6.002
    1HB      S1 1924   6.370   2.999   6.001
    1HB      S2 1925   5.631   3.000   6.001
    1HB      S3 1926   6.000   3.366   6.001
    1HB      S4 1927   6.002   2.631   6.001
    1HB      S5 1928   6.007   2.996   6.369
    1HB      S6 1929   6.001   2.999   5.634
    1HEX     C0 1930   5.998   3.001   8.999
    1HB      S1 1931   6.364   3.000   9.004
    1HB      S2 1932   5.631   3.003   9.005
    1HB      S3 1933   5.995   3.365   9.002
    1HB      S4 1934   5.999   2.637   9.004
    1HB      S5 1935   5.991   2.994   9.456
    1HB      S6 1936   5.996   3.002   8.632
    1HEX     C0 1937   5.999   6.168  20.563
    1HB      S1 1938   6.407   6.194  20.543
    1HB      S2 1939   5.593   6.192  20.548
    1HB      S3 1940   6.000   6.444   0.032
    1HB      S4 1941   5.999   5.372  20.486
    1HB      S5 1942   6.027   6.067   0.371
    1HB      S6 1943   6.003   5.988  20.180
    1HEX     C0 1944   5.996   6.002   3.000
    1HB      S1 1945   6.366   6.001   3.000
    1HB      S2 1946   5.646   5.994   2.999
    1HB      S3 1947   5.993   6.369   3.002
    1HB      S4 1948   6.000   5.632   3.000
    1HB      S5 1949   5.998   6.002   3.368
    1HB      S6 1950   5.997   6.002   2.631
    1HEX     C0 1951   6.001   5.999   6.000
    1HB      S1 1952   6.371   5.994   6.000
    1HB      S2 1953   5.633   6.000   6.001
    1HB      S3 1954   6.000   6.367   6.000
    1HB      S4 1955   6.006   5.628   5.999
    1HB      S5 1956   5.999   6.000   6.369
    1HB      S6 1957   6.003   5.995   5.633
    1HEX     C0 1958   6.000   6.002   8.999
    1HB      S1 1959   6.368   6.003   9.004
    1HB      S2 1960   5.631   6.002   8.999
    1HB      S3 1961   6.002   6.368   9.001
    1HB      S4 1962   6.000   5.634   9.000
    1HB      S5 1963   6.004   6.003   9.370
    1HB      S6 1964   6.004   5.997   8.639
    1HEX     C0 1965   6.000   9.001  20.622
    1HB      S1 1966   6.361   9.004  20.618
    1HB      S2 1967   5.636   9.108  20.512
    1HB      S3 1968   6.013   9.458  20.622
    1HB      S4 1969   5.995   8.640  20.618
    1HB      S5 1970   5.995   9.005   0.360
    1HB      S6 1971   5.998   8.993  20.163
    1HEX     C0 1972   5.999   8.998   2.999
    1HB      S1 1973   6.363   9.004   3.000
    1HB      S2 1974   5.635   9.002   2.999
    1HB      S3 1975   5.992   9.459   3.008
    1HB      S4 1976   6.003   8.641   3.003
    1HB      S5 1977   5.998   9.007   3.365
    1HB      S6 1978   5.998   9.000   2.634
    1HEX     C0 1979   6.002   8.998   5.999
    1HB      S1 1980   6.371   9.001   5.998
    1HB      S2 1981   5.634   8.998   6.000
    1HB      S3 1982   6.003   9.367   5.999
    1HB      S4 1983   6.006   8.639   5.997
    1HB      S5 1984   6.001   8.997   6.367
    1HB      S6 1985   6.007   9.002   5.631
    1HEX     C0 1986   5.998   9.003   9.001
    1HB      S1 1987   6.367   8.995   9.106
    1HB      S2 1988   5.634   9.008   9.006
    1HB      S3 1989   5.997   9.368   9.005
    1HB      S4 1990   5.999   8.637   9.004
    1HB      S5 1991   5.998   8.997   9.464
    1HB      S6 1992   6.004   9.002   8.637
    1HEX     C0 1993   8.999  20.620   0.000
    1HB      S1 1994   9.368  20.623   0.000
    1HB      S2 1995   8.511  20.511   0.008
    1HB      S3 1996   8.994   0.363   0.000
    1HB      S4 1997   9.006  20.274  20.622
    1HB      S5 1998   8.995  20.621   0.364
    1HB      S6 1999   8.994  20.622  20.259
    1HEX     C0 2000   8.995   0.002   3.002
    1HB      S1 2001   9.366   0.001   3.001
    1HB      S2 2002   8.628  20.617   3.003
    1HB      S3 2003   8.995   0.358   2.995
    1HB      S4 2004   8.992  20.256   3.004
    1HB      S5 2005   8.997   0.006   3.369
    1HB      S6 2006   8.994   0.002   2.633
    1HEX     C0 2007   9.000   0.009   6.011
    1HB      S1 2008   9.364   0.009   6.014
    1HB      S2 2009   8.511   0.001   5.996
    1HB      S3 2010   8.986   0.360   5.966
    1HB      S4 2011   8.997  20.247   5.987
    1HB      S5 2012   8.945  20.580   6.339
    1HB      S6 2013   8.993  20.621   5.636
    1HEX     C0 2014   9.001   0.002   8.996
    1HB      S1 2015   9.489   0.010   8.989
    1HB      S2 2016   8.507   0.010   8.999
    1HB      S3 2017   9.001   0.364   8.993
    1HB      S4 2018   9.000  20.259   9.003
    1HB      S5 2019   9.000   0.001   9.359
    1HB      S6 2020   8.997  20.613   8.667
    1HEX     C0 2021   9.003   3.001   0.000
    1HB      S1 2022   9.357   2.996  20.618
    1HB      S2 2023   8.633   3.001  20.623
    1HB      S3 2024   9.004   3.370  20.622
    1HB      S4 2025   9.001   2.633   0.000
    1HB      S5 2026   9.002   3.001   0.367
    1HB      S6 2027   9.001   3.001  20.255
    1HEX     C0 2028   8.995   3.000   3.006
    1HB      S1 2029   9.367   3.009   3.003
    1HB      S2 2030   8.637   2.996   2.969
    1HB      S3 2031   8.999   3.361   3.003
    1HB      S4 2032   8.998   2.642   2.999
    1HB      S5 2033   9.030   2.994   3.368
    1HB      S6 2034   9.000   2.999   2.634
    1HEX     C0 2035   9.001   3.001   6.002
    1HB      S1 2036   9.368   3.002   6.004
    1HB      S2 2037   8.633   3.000   6.001
    1HB      S3 2038   9.001   3.368   6.004
    1HB      S4 2039   9.000   2.633   6.001
    1HB      S5 2040   9.001   3.003   6.371
    1HB      S6 2041   9.000   3.000   5.633
    1HEX     C0 2042   8.999   2.995   8.997
    1HB      S1 2043   9.374   2.999   8.997
    1HB      S2 2044   8.632   2.992   8.994
    1HB      S3 2045   8.998   3.365   8.995
    1HB      S4 2046   9.017   2.663   9.012
    1HB      S5 2047   9.001   3.000   9.371
    1HB      S6 2048   8.996   2.994   8.626
    1HEX     C0 2049   9.000   6.001  20.622
    1HB      S1 2050   9.364   6.001  20.619
    1HB      S2 2051   8.633   6.002  20.618
    1HB      S3 2052   8.999   6.366  20.616
    1HB      S4 2053   9.000   5.636  20.619
    1HB      S5 2054   9.001   6.003   0.369
    1HB      S6 2055   8.992   6.008  20.163
    1HEX     C0 2056   9.002   5.997   2.999
    1HB      S1 2057   9.370   5.993   2.998
    1HB      S2 2058   8.633   5.999   3.000
    1HB      S3 2059   9.001   6.367   3.000
    1HB      S4 2060   9.003   5.637   2.999
    1HB      S5 2061   9.001   5.999   3.367
    1HB      S6 2062   9.002   5.998   2.633
    1HEX     C0 2063   9.000   6.002   6.001
    1HB      S1 2064   9.368   6.004   6.002
    1HB      S2 2065   8.506   5.997   5.988
    1HB      S3 2066   8.997   6.367   6.003
    1HB      S4 2067   8.995   5.637   6.000
    1HB      S5 2068   8.997   6.004   6.364
    1HB      S6 2069   8.992   6.000   5.636
    1HEX     C0 2070   8.999   5.997   9.000
    1HB      S1 2071   9.367   5.996   8.999
    1HB      S2 2072   8.630   5.997   9.003
    1HB      S3 2073   9.000   6.366   9.000
    1HB      S4 2074   8.998   5.629   8.998
    1HB      S5 2075   8.997   5.998   9.367
    1HB      S6 2076   9.001   5.996   8.633
    1HEX     C0 2077   8.998   8.999  20.622
    1HB      S1 2078   9.367   9.000  20.623
    1HB      S2 2079   8.629   8.997  20.619
    1HB      S3 2080   8.999   9.367  20.623
    1HB      S4 2081   8.996   8.632  20.621
    1HB      S5 2082   8.999   9.000   0.367
    1HB      S6 2083   8.996   8.998  20.254
    1HEX     C0 2084   9.001   8.997   3.000
    1HB      S1 2085   9.370   8.992   3.003
    1HB      S2 2086   8.512   9.006   3.005
    1HB      S3 2087   8.996   9.363   3.000
    1HB      S4 2088   8.992   8.640   3.007
    1HB      S5 2089   8.999   8.997   3.366
    1HB      S6 2090   8.997   8.997   2.637
    1HEX     C0 2091   8.994   9.002   5.995
    1HB      S1 2092   9.364   9.000   6.006
    1HB      S2 2093   8.625   8.978   6.014
    1HB      S3 2094   8.990   9.363   5.991
    1HB      S4 2095   8.999   8.632   6.000
    1HB      S5 2096   8.884   8.997   6.387
    1HB      S6 2097   9.025   8.987   5.632
    1HEX     C0 2098   9.000   8.999   8.999
    1HB      S1 2099   9.365   8.999   9.001
    1HB      S2 2100   8.514   8.999   8.993
    1HB      S3 2101   8.995   9.362   8.999
    1HB      S4 2102   8.996   8.641   9.002
    1HB      S5 2103   8.990   9.106   9.463
    1HB      S6 2104   8.998   8.996   8.632
  23.42295  20.62295  20.62295
