My System
 2104
    1BCK1    B1    1   0.265   2.739   2.289
    1BCK1    B1    2   0.411   2.593   2.245
    1BCK1    B1    3   0.604   2.399   2.195
    1BCK1    B1    4   0.750   2.252   2.154
    1BCK1    B1    5   0.933   2.067   2.100
    1BCK1    B1    6   1.080   1.920   2.060
    1BCK1    B1    7   1.260   1.740   2.006
    1BCK1    B1    8   1.398   1.602   1.919
    1BCK1    B1    9   1.558   1.442   1.799
    1BCK1    B1   10   1.688   1.312   1.689
    1BCK1    B1   11   1.822   1.178   1.515
    1BCK1    B1   12   1.912   1.088   1.342
    1BCK1    B1   13   2.006   0.994   1.121
    1BCK1    B1   14   2.093   0.907   0.946
    1BCK1    B1   15   2.188   0.812   0.719
    1BCK1    B1   16   2.258   0.742   0.529
    1BCK1    B1   17   2.356   0.644   0.290
    1BCK1    B1   18   2.443   0.560   0.112
    1BCK1    B1   19   9.126   6.477   0.632
    1BCK1    B1   20   9.302   6.577   0.698
    1BCK1    B1   21   9.536   6.705   0.776
    1BCK1    B1   22   9.718   6.796   0.833
    1BCK1    B1   23   9.950   6.907   0.902
    1BCK1    B1   24  10.122   7.013   0.963
    1BCK1    B1   25  10.328   7.148   1.050
    1BCK1    B1   26  10.494   7.242   1.139
    1BCK1    B1   27  10.685   7.376   1.256
    1BCK1    B1   28  10.803   7.511   1.368
    1BCK1    B1   29  10.903   7.668   1.555
    1BCK1    B1   30  10.978   7.782   1.708
    1BCK1    B1   31  11.058   7.944   1.909
    1BCK1    B1   32  11.117   8.067   2.056
    1BCK1    B1   33  11.124   8.241   2.281
    1BCK1    B1   34  11.140   8.366   2.425
    1BCK1    B1   35  11.251   8.533   2.658
    1BCK1    B1   36  11.385   8.601   2.771
    1BCK1    B1   37   0.672   3.506  11.975
    1BCK1    B1   38   0.569   3.604  11.902
    1BCK1    B1   39   0.241   3.808  11.913
    1BCK1    B1   40   0.125   3.835  11.977
    1BCK1    B1   41  11.963   4.163   0.189
    1BCK1    B1   42  11.962   4.282   0.089
    1BCK1    B1   43  11.772   4.255  11.740
    1BCK1    B1   44  11.529   4.210  11.842
    1BCK1    B1   45  11.325   4.334  11.997
    1BCK1    B1   46  11.321   4.659  11.990
    1BCK1    B1   47  11.528   4.748  11.789
    1BCK1    B1   48  11.771   4.778  11.786
    1BCK1    B1   49  11.923   4.773   0.104
    1BCK1    B1   50   0.021   4.806   0.219
    1BCK1    B1   51   0.179   5.136  11.865
    1BCK1    B1   52   0.227   5.174  11.910
    1BCK1    B1   53   0.498   5.433   0.125
    1BCK1    B1   54   0.571   5.496   0.127
    1BCK1    B1   55  11.829   3.915   5.760
    1BCK1    B1   56  11.888   4.166   5.832
    1BCK1    B1   57  11.927   4.396   5.900
    1BCK1    B1   58  11.979   4.666   5.971
    1BCK1    B1   59   0.011   4.880   6.012
    1BCK1    B1   60   0.060   5.175   6.078
    1BCK1    B1   61   0.137   5.332   6.187
    1BCK1    B1   62   0.182   5.669   6.237
    1BCK1    B1   63   0.220   5.820   6.245
    1BCK1    B1   64   0.220   6.180   6.245
    1BCK1    B1   65   0.182   6.331   6.237
    1BCK1    B1   66   0.137   6.668   6.187
    1BCK1    B1   67   0.060   6.824   6.078
    1BCK1    B1   68   0.011   7.119   6.013
    1BCK1    B1   69  11.978   7.331   5.972
    1BCK1    B1   70  11.923   7.601   5.901
    1BCK1    B1   71  11.872   7.824   5.835
    1BCK1    B1   72  11.817   8.082   5.763
    1BCK1    B1   73   2.520   2.442   3.288
    1BCK1    B1   74   2.391   2.558   3.227
    1BCK1    B1   75   2.229   2.748   2.988
    1BCK1    B1   76   2.188   2.924   2.930
    1BCK1    B1   77   1.822   2.982   3.199
    1BCK1    B1   78   1.740   3.033   3.089
    1BCK1    B1   79   1.754   3.210   2.754
    1BCK1    B1   80   1.811   3.402   2.752
    1BCK1    B1   81   1.605   3.701   2.742
    1BCK1    B1   82   1.394   3.701   2.742
    1BCK1    B1   83   1.189   3.401   2.752
    1BCK1    B1   84   1.246   3.210   2.753
    1BCK1    B1   85   1.258   3.032   3.089
    1BCK1    B1   86   1.176   2.981   3.198
    1BCK1    B1   87   0.812   2.921   2.926
    1BCK1    B1   88   0.769   2.742   2.985
    1BCK1    B1   89   0.604   2.557   3.226
    1BCK1    B1   90   0.467   2.441   3.289
    1BCK1    B1   91   5.853   9.688   3.428
    1BCK1    B1   92   5.703   9.758   3.568
    1BCK1    B1   93   5.462   9.770   3.705
    1BCK1    B1   94   5.246   9.807   3.739
    1BCK1    B1   95   5.055   9.899   3.912
    1BCK1    B1   96   4.901   9.963   4.035
    1BCK1    B1   97   4.677  10.032   4.163
    1BCK1    B1   98   4.522  10.110   4.279
    1BCK1    B1   99   4.339  10.229   4.421
    1BCK1    B1  100   4.218  10.346   4.553
    1BCK1    B1  101   4.111  10.525   4.707
    1BCK1    B1  102   4.029  10.689   4.813
    1BCK1    B1  103   3.944  10.888   4.957
    1BCK1    B1  104   3.895  11.054   5.081
    1BCK1    B1  105   3.845  11.273   5.221
    1BCK1    B1  106   3.796  11.447   5.333
    1BCK1    B1  107   3.733  11.671   5.484
    1BCK1    B1  108   3.681  11.842   5.600
    1BCK1    B1  109   1.034   3.388   6.326
    1BCK1    B1  110   1.165   3.370   6.197
    1BCK1    B1  111   1.445   3.170   6.067
    1BCK1    B1  112   1.507   3.162   5.871
    1BCK1    B1  113   2.186   2.997   5.737
    1BCK1    B1  114   2.248   2.917   5.879
    1BCK1    B1  115   2.416   2.701   6.074
    1BCK1    B1  116   2.698   2.676   5.808
    1BCK1    B1  117   2.843   2.709   5.762
    1BCK1    B1  118   3.189   2.761   5.798
    1BCK1    B1  119   3.343   2.733   5.845
    1BCK1    B1  120   3.670   2.787   5.895
    1BCK1    B1  121   3.823   2.916   5.951
    1BCK1    B1  122   4.117   2.986   5.990
    1BCK1    B1  123   4.331   3.031   6.018
    1BCK1    B1  124   4.599   3.109   6.063
    1BCK1    B1  125   4.824   3.181   6.104
    1BCK1    B1  126   5.081   3.259   6.150
    1BCK1    B1  127   0.482   8.370   3.113
    1BCK1    B1  128   0.594   8.499   3.119
    1BCK1    B1  129   0.758   8.806   3.154
    1BCK1    B1  130   0.790   8.944   2.975
    1BCK1    B1  131   1.177   8.872   2.858
    1BCK1    B1  132   1.262   8.996   3.028
    1BCK1    B1  133   1.246   9.322   3.074
    1BCK1    B1  134   1.195   9.480   2.912
    1BCK1    B1  135   1.379   9.715   2.769
    1BCK1    B1  136   1.627   9.715   2.764
    1BCK1    B1  137   1.811   9.480   2.908
    1BCK1    B1  138   1.754   9.323   3.072
    1BCK1    B1  139   1.735   8.998   3.028
    1BCK1    B1  140   1.824   8.873   2.856
    1BCK1    B1  141   2.205   8.942   2.972
    1BCK1    B1  142   2.240   8.805   3.154
    1BCK1    B1  143   2.406   8.500   3.118
    1BCK1    B1  144   2.517   8.370   3.113
    1BCK1    B1  145  11.377   8.541   8.280
    1BCK1    B1  146  11.405   8.568   8.200
    1BCK1    B1  147  11.427   9.018   8.045
    1BCK1    B1  148  11.380   9.062   8.066
    1BCK1    B1  149  10.972   8.848   8.223
    1BCK1    B1  150  10.896   8.932   7.951
    1BCK1    B1  151  10.896   9.251   7.930
    1BCK1    B1  152  10.574   9.323   8.020
    1BCK1    B1  153  10.400   9.325   7.843
    1BCK1    B1  154  10.278   9.461   7.628
    1BCK1    B1  155  10.031   9.338   7.499
    1BCK1    B1  156   9.957   9.166   7.374
    1BCK1    B1  157  10.071   9.072   7.078
    1BCK1    B1  158  10.009   9.004   6.902
    1BCK1    B1  159   9.795   8.888   6.703
    1BCK1    B1  160   9.722   8.826   6.530
    1BCK1    B1  161   9.651   8.674   6.270
    1BCK1    B1  162   9.565   8.601   6.105
    1BCK1    B1  163   3.453   3.649   2.866
    1BCK1    B1  164   3.477   3.662   2.844
    1BCK1    B1  165   3.692   3.783   2.460
    1BCK1    B1  166   3.764   3.843   2.269
    1BCK1    B1  167   3.913   3.899   2.052
    1BCK1    B1  168   4.062   3.928   1.896
    1BCK1    B1  169   4.158   4.040   1.674
    1BCK1    B1  170   4.185   4.131   1.474
    1BCK1    B1  171   4.400   4.243   1.326
    1BCK1    B1  172   4.567   4.249   1.182
    1BCK1    B1  173   4.687   4.538   1.097
    1BCK1    B1  174   4.769   4.714   0.988
    1BCK1    B1  175   4.954   4.899   0.946
    1BCK1    B1  176   5.097   5.057   0.838
    1BCK1    B1  177   5.230   5.278   0.840
    1BCK1    B1  178   5.392   5.455   0.884
    1BCK1    B1  179   5.513   5.669   0.723
    1BCK1    B1  180   5.519   5.839   0.549
    1BCK1    B1  181   3.138   5.394   8.516
    1BCK1    B1  182   3.293   5.331   8.605
    1BCK1    B1  183   3.571   5.321   8.772
    1BCK1    B1  184   3.723   5.254   8.865
    1BCK1    B1  185   3.893   5.074   9.072
    1BCK1    B1  186   4.024   4.939   9.130
    1BCK1    B1  187   4.364   4.907   9.151
    1BCK1    B1  188   4.510   4.916   9.275
    1BCK1    B1  189   4.559   4.710   9.574
    1BCK1    B1  190   4.710   4.559   9.574
    1BCK1    B1  191   4.915   4.511   9.276
    1BCK1    B1  192   4.903   4.366   9.149
    1BCK1    B1  193   4.934   4.026   9.135
    1BCK1    B1  194   5.074   3.895   9.087
    1BCK1    B1  195   5.208   3.709   8.856
    1BCK1    B1  196   5.250   3.564   8.755
    1BCK1    B1  197   5.405   3.292   8.652
    1BCK1    B1  198   5.484   3.166   8.557
    1BCK1    B1  199   6.290   6.475   9.420
    1BCK1    B1  200   6.421   6.353   9.536
    1BCK1    B1  201   6.598   6.212   9.727
    1BCK1    B1  202   6.797   6.152   9.832
    1BCK1    B1  203   7.033   6.023   9.919
    1BCK1    B1  204   7.061   5.754  10.020
    1BCK1    B1  205   7.118   5.585  10.160
    1BCK1    B1  206   7.445   5.864  10.332
    1BCK1    B1  207   7.555   5.727  10.339
    1BCK1    B1  208   7.611   5.411  10.500
    1BCK1    B1  209   7.806   5.502  10.739
    1BCK1    B1  210   7.818   5.799  10.749
    1BCK1    B1  211   7.918   5.977  10.850
    1BCK1    B1  212   8.139   5.843  11.110
    1BCK1    B1  213   8.218   6.086  11.229
    1BCK1    B1  214   8.260   6.247  11.361
    1BCK1    B1  215   8.432   6.342  11.599
    1BCK1    B1  216   8.537   6.448  11.720
    1BCK1    B1  217   5.588   6.152   6.673
    1BCK1    B1  218   5.474   6.323   6.730
    1BCK1    B1  219   5.328   6.550   6.795
    1BCK1    B1  220   5.216   6.725   6.838
    1BCK1    B1  221   5.079   6.943   6.898
    1BCK1    B1  222   4.967   7.115   6.953
    1BCK1    B1  223   4.831   7.323   7.027
    1BCK1    B1  224   4.708   7.476   7.114
    1BCK1    B1  225   4.552   7.649   7.219
    1BCK1    B1  226   4.435   7.783   7.342
    1BCK1    B1  227   4.297   7.894   7.528
    1BCK1    B1  228   4.157   7.964   7.676
    1BCK1    B1  229   4.008   8.039   7.873
    1BCK1    B1  230   3.908   8.098   8.053
    1BCK1    B1  231   3.768   8.158   8.268
    1BCK1    B1  232   3.645   8.202   8.437
    1BCK1    B1  233   3.503   8.267   8.664
    1BCK1    B1  234   3.397   8.333   8.837
    1BCK1    B1  235   0.183  11.670  11.269
    1BCK1    B1  236   0.360  11.566  11.226
    1BCK1    B1  237   0.572  11.379  11.191
    1BCK1    B1  238   0.730  11.241  11.153
    1BCK1    B1  239   0.932  11.073  11.110
    1BCK1    B1  240   1.094  10.941  11.061
    1BCK1    B1  241   1.285  10.782  10.987
    1BCK1    B1  242   1.433  10.646  10.910
    1BCK1    B1  243   1.603  10.485  10.807
    1BCK1    B1  244   1.735  10.363  10.686
    1BCK1    B1  245   1.860  10.234  10.504
    1BCK1    B1  246   1.943  10.125  10.337
    1BCK1    B1  247   2.027  10.007  10.124
    1BCK1    B1  248   2.102   9.913   9.947
    1BCK1    B1  249   2.173   9.805   9.716
    1BCK1    B1  250   2.235   9.719   9.530
    1BCK1    B1  251   2.327   9.610   9.293
    1BCK1    B1  252   2.402   9.520   9.113
    1BCK1    B1  253   6.413   2.664   6.303
    1BCK1    B1  254   6.454   2.615   6.305
    1BCK1    B1  255   6.857   2.422   6.265
    1BCK1    B1  256   6.811   2.299   6.156
    1BCK1    B1  257   6.839   2.109   5.872
    1BCK1    B1  258   7.065   1.902   5.980
    1BCK1    B1  259   7.121   1.685   5.850
    1BCK1    B1  260   7.134   1.602   5.576
    1BCK1    B1  261   7.304   1.515   5.407
    1BCK1    B1  262   7.517   1.308   5.435
    1BCK1    B1  263   7.594   1.120   5.525
    1BCK1    B1  264   7.716   1.116   5.854
    1BCK1    B1  265   7.833   1.118   5.976
    1BCK1    B1  266   8.139   0.822   5.904
    1BCK1    B1  267   8.228   0.826   6.063
    1BCK1    B1  268   8.385   0.875   6.376
    1BCK1    B1  269   8.654   0.621   6.222
    1BCK1    B1  270   8.559   0.433   6.165
    1BCK1    B1  271   9.404   3.120   6.533
    1BCK1    B1  272   9.349   3.268   6.619
    1BCK1    B1  273   9.206   3.507   6.786
    1BCK1    B1  274   9.120   3.657   6.839
    1BCK1    B1  275   9.012   3.958   6.867
    1BCK1    B1  276   8.962   4.115   6.950
    1BCK1    B1  277   8.756   4.281   7.149
    1BCK1    B1  278   8.622   4.408   7.170
    1BCK1    B1  279   8.555   4.738   7.105
    1BCK1    B1  280   8.555   4.896   7.262
    1BCK1    B1  281   8.622   4.830   7.593
    1BCK1    B1  282   8.756   4.851   7.720
    1BCK1    B1  283   8.961   5.050   7.885
    1BCK1    B1  284   9.012   5.133   8.042
    1BCK1    B1  285   9.120   5.162   8.344
    1BCK1    B1  286   9.206   5.214   8.493
    1BCK1    B1  287   9.345   5.383   8.734
    1BCK1    B1  288   9.403   5.467   8.881
    1BCK1    B1  289   6.723   2.938   6.625
    1BCK1    B1  290   6.759   2.726   6.707
    1BCK1    B1  291   6.706   2.462   6.747
    1BCK1    B1  292   6.813   2.234   6.723
    1BCK1    B1  293   6.927   2.061   6.893
    1BCK1    B1  294   6.965   1.903   7.038
    1BCK1    B1  295   7.030   1.665   7.137
    1BCK1    B1  296   7.129   1.508   7.247
    1BCK1    B1  297   7.257   1.342   7.396
    1BCK1    B1  298   7.369   1.204   7.515
    1BCK1    B1  299   7.543   1.088   7.673
    1BCK1    B1  300   7.698   1.020   7.795
    1BCK1    B1  301   7.905   0.947   7.946
    1BCK1    B1  302   8.055   0.890   8.072
    1BCK1    B1  303   8.275   0.846   8.236
    1BCK1    B1  304   8.440   0.822   8.340
    1BCK1    B1  305   8.681   0.738   8.506
    1BCK1    B1  306   8.778   0.618   8.614
    1BCK1    B1  307   8.345   3.258   3.831
    1BCK1    B1  308   8.348   3.313   3.749
    1BCK1    B1  309   8.062   3.655   3.650
    1BCK1    B1  310   8.051   3.708   3.641
    1BCK1    B1  311   8.139   4.161   3.909
    1BCK1    B1  312   8.119   4.120   4.078
    1BCK1    B1  313   7.928   4.399   4.296
    1BCK1    B1  314   7.915   4.519   4.265
    1BCK1    B1  315   7.630   4.802   4.241
    1BCK1    B1  316   7.541   4.826   4.327
    1BCK1    B1  317   7.493   4.807   4.719
    1BCK1    B1  318   7.460   4.828   4.819
    1BCK1    B1  319   7.177   5.082   4.993
    1BCK1    B1  320   7.120   5.187   4.953
    1BCK1    B1  321   6.608   5.173   5.220
    1BCK1    B1  322   6.593   5.113   5.260
    1BCK1    B1  323   6.355   5.243   5.653
    1BCK1    B1  324   6.327   5.285   5.670
    1BCK1    B1  325   5.501   6.504   3.320
    1BCK1    B1  326   5.405   6.425   3.268
    1BCK1    B1  327   5.209   6.259   2.960
    1BCK1    B1  328   5.183   6.118   2.928
    1BCK1    B1  329   4.910   5.913   3.208
    1BCK1    B1  330   4.745   5.958   3.074
    1BCK1    B1  331   4.756   5.868   2.727
    1BCK1    B1  332   4.788   5.602   2.723
    1BCK1    B1  333   4.663   5.360   2.696
    1BCK1    B1  334   4.339   5.358   2.696
    1BCK1    B1  335   4.213   5.600   2.724
    1BCK1    B1  336   4.249   5.865   2.731
    1BCK1    B1  337   4.261   5.956   3.075
    1BCK1    B1  338   4.094   5.908   3.212
    1BCK1    B1  339   3.816   6.108   2.946
    1BCK1    B1  340   3.793   6.257   2.982
    1BCK1    B1  341   3.594   6.428   3.273
    1BCK1    B1  342   3.496   6.507   3.326
    1BCK1    B1  343   0.551   3.484   6.184
    1BCK1    B1  344   0.592   3.432   6.059
    1BCK1    B1  345   0.782   3.179   5.846
    1BCK1    B1  346   0.790   2.982   6.180
    1BCK1    B1  347   1.045   2.875   6.191
    1BCK1    B1  348   1.141   2.829   5.863
    1BCK1    B1  349   1.196   2.718   5.731
    1BCK1    B1  350   1.304   2.418   5.646
    1BCK1    B1  351   1.457   2.559   6.157
    1BCK1    B1  352   1.471   2.541   6.134
    1BCK1    B1  353   1.745   2.694   5.740
    1BCK1    B1  354   1.735   2.739   5.745
    1BCK1    B1  355   1.878   2.843   6.210
    1BCK1    B1  356   1.853   2.900   6.224
    1BCK1    B1  357   1.917   3.331   6.122
    1BCK1    B1  358   1.957   3.350   6.008
    1BCK1    B1  359   2.388   3.429   6.016
    1BCK1    B1  360   2.456   3.346   6.136
    1BCK1    B1  361   5.819   8.322   3.007
    1BCK1    B1  362   5.830   8.221   2.804
    1BCK1    B1  363   5.872   8.243   2.513
    1BCK1    B1  364   5.902   8.214   2.306
    1BCK1    B1  365   5.996   8.004   2.095
    1BCK1    B1  366   6.054   7.926   1.917
    1BCK1    B1  367   6.073   8.114   1.618
    1BCK1    B1  368   6.099   8.133   1.459
    1BCK1    B1  369   6.242   7.874   1.217
    1BCK1    B1  370   6.245   7.786   1.129
    1BCK1    B1  371   6.101   7.544   0.868
    1BCK1    B1  372   6.074   7.394   0.877
    1BCK1    B1  373   6.056   7.087   1.077
    1BCK1    B1  374   6.017   6.925   1.022
    1BCK1    B1  375   5.947   6.676   0.796
    1BCK1    B1  376   5.877   6.510   0.789
    1BCK1    B1  377   5.802   6.187   0.840
    1BCK1    B1  378   6.012   6.048   0.652
    1BCK1    B1  379   6.486   9.253   5.465
    1BCK1    B1  380   6.588   9.218   5.558
    1BCK1    B1  381   6.832   8.973   5.735
    1BCK1    B1  382   6.866   8.921   5.868
    1BCK1    B1  383   7.063   9.191   6.140
    1BCK1    B1  384   7.248   9.131   6.128
    1BCK1    B1  385   7.241   8.715   6.151
    1BCK1    B1  386   7.232   8.688   6.367
    1BCK1    B1  387   7.363   8.886   6.616
    1BCK1    B1  388   7.637   8.888   6.620
    1BCK1    B1  389   7.767   8.688   6.363
    1BCK1    B1  390   7.740   8.713   6.156
    1BCK1    B1  391   7.748   9.137   6.136
    1BCK1    B1  392   7.976   9.166   6.150
    1BCK1    B1  393   8.122   8.905   5.871
    1BCK1    B1  394   8.086   9.035   5.663
    1BCK1    B1  395   8.482   9.208   5.674
    1BCK1    B1  396   8.569   9.193   5.659
    1BCK1    B1  397   9.820   2.667   8.808
    1BCK1    B1  398   9.854   2.510   8.596
    1BCK1    B1  399   9.834   2.314   8.458
    1BCK1    B1  400   9.867   2.166   8.233
    1BCK1    B1  401   9.852   2.077   8.028
    1BCK1    B1  402   9.918   1.907   7.811
    1BCK1    B1  403  10.013   1.723   7.727
    1BCK1    B1  404  10.273   1.636   7.592
    1BCK1    B1  405  10.306   1.594   7.363
    1BCK1    B1  406  10.260   1.430   7.140
    1BCK1    B1  407  10.432   1.216   7.083
    1BCK1    B1  408  10.678   1.166   7.186
    1BCK1    B1  409  10.916   1.128   7.077
    1BCK1    B1  410  11.001   0.958   6.890
    1BCK1    B1  411  11.220   0.806   6.837
    1BCK1    B1  412  11.417   0.708   6.805
    1BCK1    B1  413  11.653   0.567   6.730
    1BCK1    B1  414  11.830   0.456   6.667
    1BCK1    B1  415   9.244   8.388   2.694
    1BCK1    B1  416   9.274   8.340   2.744
    1BCK1    B1  417   9.640   8.167   2.915
    1BCK1    B1  418   9.746   8.284   2.873
    1BCK1    B1  419  10.148   8.146   2.977
    1BCK1    B1  420  10.119   8.023   3.054
    1BCK1    B1  421  10.406   7.763   3.207
    1BCK1    B1  422  10.527   7.782   3.168
    1BCK1    B1  423  10.763   7.761   3.558
    1BCK1    B1  424  10.886   7.648   3.486
    1BCK1    B1  425  10.719   7.333   3.250
    1BCK1    B1  426  10.726   7.238   3.220
    1BCK1    B1  427  11.144   7.195   3.045
    1BCK1    B1  428  11.181   7.191   2.997
    1BCK1    B1  429  11.319   6.788   2.798
    1BCK1    B1  430  11.272   6.701   2.825
    1BCK1    B1  431  11.294   6.285   2.752
    1BCK1    B1  432  11.362   6.213   2.733
    1BCK1    B1  433  11.837   0.620   0.474
    1BCK1    B1  434  11.902   0.480   0.605
    1BCK1    B1  435  11.890   0.203   0.772
    1BCK1    B1  436  11.877   0.015   0.830
    1BCK1    B1  437   0.089   0.143   1.234
    1BCK1    B1  438   0.143   0.016   1.252
    1BCK1    B1  439  11.947  11.659   1.244
    1BCK1    B1  440   0.017  11.528   1.215
    1BCK1    B1  441   0.305  11.327   1.402
    1BCK1    B1  442   0.301  11.327   1.591
    1BCK1    B1  443   0.017  11.528   1.780
    1BCK1    B1  444  11.946  11.659   1.755
    1BCK1    B1  445   0.143   0.017   1.748
    1BCK1    B1  446   0.089   0.143   1.764
    1BCK1    B1  447  11.875   0.016   2.168
    1BCK1    B1  448  11.888   0.205   2.225
    1BCK1    B1  449  11.902   0.480   2.395
    1BCK1    B1  450  11.836   0.621   2.525
    1BCK1    B1  451   8.523  11.512   3.344
    1BCK1    B1  452   8.450  11.587   3.290
    1BCK1    B1  453   8.174  11.730   3.019
    1BCK1    B1  454   8.133  11.850   2.969
    1BCK1    B1  455   7.993   0.194   3.131
    1BCK1    B1  456   7.757   0.166   3.072
    1BCK1    B1  457   7.771   0.101   2.685
    1BCK1    B1  458   7.771   0.354   2.612
    1BCK1    B1  459   7.683   0.596   2.747
    1BCK1    B1  460   7.340   0.600   2.751
    1BCK1    B1  461   7.244   0.350   2.613
    1BCK1    B1  462   7.261   0.096   2.713
    1BCK1    B1  463   7.255   0.164   3.080
    1BCK1    B1  464   7.025   0.190   3.156
    1BCK1    B1  465   6.886  11.832   2.992
    1BCK1    B1  466   6.858  11.733   2.990
    1BCK1    B1  467   6.542  11.594   3.282
    1BCK1    B1  468   6.477  11.637   3.331
    1BCK1    B1  469   0.321   3.415   0.345
    1BCK1    B1  470   0.338   3.543   0.351
    1BCK1    B1  471   0.192   3.865   0.509
    1BCK1    B1  472   0.095   3.849   0.646
    1BCK1    B1  473   0.092   3.914   0.998
    1BCK1    B1  474  11.961   4.027   1.083
    1BCK1    B1  475  11.691   4.039   1.265
    1BCK1    B1  476  11.623   4.064   1.438
    1BCK1    B1  477  11.487   4.162   1.702
    1BCK1    B1  478  11.491   4.323   1.835
    1BCK1    B1  479  11.631   4.576   1.931
    1BCK1    B1  480  11.733   4.726   1.987
    1BCK1    B1  481  11.967   4.933   1.982
    1BCK1    B1  482   0.079   5.077   2.008
    1BCK1    B1  483   0.131   5.344   2.198
    1BCK1    B1  484   0.171   5.477   2.291
    1BCK1    B1  485   0.370   5.735   2.393
    1BCK1    B1  486   0.426   5.873   2.462
    1BCK1    B1  487  11.280   2.741   6.324
    1BCK1    B1  488  11.237   2.598   6.450
    1BCK1    B1  489  11.174   2.370   6.651
    1BCK1    B1  490  11.144   2.238   6.784
    1BCK1    B1  491  11.104   2.023   7.003
    1BCK1    B1  492  11.051   1.854   7.075
    1BCK1    B1  493  10.825   1.644   7.179
    1BCK1    B1  494  10.794   1.609   7.405
    1BCK1    B1  495  10.876   1.484   7.650
    1BCK1    B1  496  10.752   1.253   7.737
    1BCK1    B1  497  10.481   1.179   7.630
    1BCK1    B1  498  10.264   1.159   7.744
    1BCK1    B1  499  10.172   1.047   7.986
    1BCK1    B1  500   9.979   0.955   8.095
    1BCK1    B1  501   9.768   0.810   8.166
    1BCK1    B1  502   9.592   0.683   8.241
    1BCK1    B1  503   9.312   0.830   8.390
    1BCK1    B1  504   9.196   0.846   8.485
    1BCK1    B1  505   9.669   3.016   0.168
    1BCK1    B1  506   9.788   3.178   0.157
    1BCK1    B1  507   9.849   3.485   0.093
    1BCK1    B1  508   9.794   3.667   0.052
    1BCK1    B1  509   9.826   3.949  11.901
    1BCK1    B1  510   9.990   4.081  11.860
    1BCK1    B1  511  10.094   4.375  11.980
    1BCK1    B1  512  10.029   4.574  11.961
    1BCK1    B1  513  10.012   4.807  11.725
    1BCK1    B1  514  10.184   4.989  11.719
    1BCK1    B1  515  10.426   4.975  11.958
    1BCK1    B1  516  10.607   4.894  11.987
    1BCK1    B1  517  10.921   4.970  11.878
    1BCK1    B1  518  11.053   5.126  11.918
    1BCK1    B1  519  11.321   5.171   0.086
    1BCK1    B1  520  11.520   5.136   0.104
    1BCK1    B1  521  11.792   5.265   0.169
    1BCK1    B1  522  11.924   5.316   0.328
    1BCK1    B1  523   0.216   6.617   9.468
    1BCK1    B1  524   0.166   6.465   9.604
    1BCK1    B1  525  11.972   6.258   9.749
    1BCK1    B1  526  11.902   6.070   9.817
    1BCK1    B1  527   0.153   6.096  10.200
    1BCK1    B1  528   0.107   5.957  10.252
    1BCK1    B1  529  11.814   5.724  10.237
    1BCK1    B1  530  11.779   5.569  10.201
    1BCK1    B1  531  11.805   5.236  10.391
    1BCK1    B1  532  11.810   5.237  10.598
    1BCK1    B1  533  11.795   5.568  10.783
    1BCK1    B1  534  11.822   5.724  10.749
    1BCK1    B1  535   0.115   5.959  10.739
    1BCK1    B1  536   0.159   6.096  10.795
    1BCK1    B1  537  11.913   6.080  11.171
    1BCK1    B1  538  11.976   6.276  11.234
    1BCK1    B1  539   0.168   6.469  11.397
    1BCK1    B1  540   0.216   6.621  11.533
    1BCK1    B1  541  11.491   8.742   6.499
    1BCK1    B1  542  11.552   8.744   6.598
    1BCK1    B1  543  11.892   8.784   6.827
    1BCK1    B1  544  11.987   8.891   6.813
    1BCK1    B1  545  11.921   9.220   7.114
    1BCK1    B1  546  11.960   9.128   7.235
    1BCK1    B1  547   0.316   8.928   7.229
    1BCK1    B1  548   0.466   9.128   7.224
    1BCK1    B1  549   0.414   9.412   7.359
    1BCK1    B1  550   0.437   9.426   7.640
    1BCK1    B1  551   0.511   9.146   7.790
    1BCK1    B1  552   0.274   8.944   7.735
    1BCK1    B1  553   0.017   9.135   7.710
    1BCK1    B1  554  11.985   9.218   8.061
    1BCK1    B1  555  11.917   8.991   8.160
    1BCK1    B1  556  11.857   8.727   8.024
    1BCK1    B1  557  11.810   8.634   8.504
    1BCK1    B1  558  11.828   8.676   8.537
    1BCK1    B1  559  11.610   9.488   3.430
    1BCK1    B1  560  11.410   9.390   3.324
    1BCK1    B1  561  11.158   9.327   3.258
    1BCK1    B1  562  11.193   8.987   3.096
    1BCK1    B1  563  11.099   8.880   3.055
    1BCK1    B1  564  10.736   9.032   2.958
    1BCK1    B1  565  10.754   8.861   2.696
    1BCK1    B1  566  10.755   8.639   2.642
    1BCK1    B1  567  10.656   8.378   2.555
    1BCK1    B1  568  10.325   8.365   2.564
    1BCK1    B1  569  10.206   8.601   2.668
    1BCK1    B1  570  10.251   8.862   2.723
    1BCK1    B1  571  10.255   9.020   2.953
    1BCK1    B1  572   9.833   8.792   3.015
    1BCK1    B1  573   9.808   8.966   3.129
    1BCK1    B1  574   9.836   9.262   3.238
    1BCK1    B1  575   9.589   9.382   3.332
    1BCK1    B1  576   9.404   9.477   3.431
    1BCK1    B1  577  11.526   9.074   8.559
    1BCK1    B1  578  11.395   8.954   8.558
    1BCK1    B1  579  11.070   9.126   8.785
    1BCK1    B1  580  11.148   9.120   8.957
    1BCK1    B1  581  10.895   8.759   9.105
    1BCK1    B1  582  10.743   8.834   9.077
    1BCK1    B1  583  10.742   9.233   9.226
    1BCK1    B1  584  10.772   9.181   9.440
    1BCK1    B1  585  10.640   8.912   9.605
    1BCK1    B1  586  10.361   8.914   9.603
    1BCK1    B1  587  10.229   9.179   9.442
    1BCK1    B1  588  10.249   9.231   9.223
    1BCK1    B1  589  10.250   8.844   9.068
    1BCK1    B1  590  10.101   8.762   9.089
    1BCK1    B1  591   9.848   9.121   8.946
    1BCK1    B1  592   9.861   9.124   8.815
    1BCK1    B1  593   9.689   8.991   8.489
    1BCK1    B1  594   9.600   9.084   8.375
    1BCK1    B1  595   5.759   8.341   6.009
    1BCK1    B1  596   5.775   8.257   6.197
    1BCK1    B1  597   5.891   8.226   6.479
    1BCK1    B1  598   5.958   8.126   6.645
    1BCK1    B1  599   5.956   8.033   6.933
    1BCK1    B1  600   5.967   8.055   7.140
    1BCK1    B1  601   6.223   7.995   7.350
    1BCK1    B1  602   6.310   7.944   7.491
    1BCK1    B1  603   6.149   7.957   7.842
    1BCK1    B1  604   6.149   7.842   7.957
    1BCK1    B1  605   6.310   7.491   7.944
    1BCK1    B1  606   6.223   7.350   7.994
    1BCK1    B1  607   5.967   7.140   8.055
    1BCK1    B1  608   5.956   6.933   8.033
    1BCK1    B1  609   5.958   6.645   8.126
    1BCK1    B1  610   5.890   6.479   8.226
    1BCK1    B1  611   5.773   6.198   8.256
    1BCK1    B1  612   5.758   6.009   8.341
    1BCK1    B1  613   9.240   8.716   5.288
    1BCK1    B1  614   9.388   8.578   5.244
    1BCK1    B1  615   9.593   8.387   5.190
    1BCK1    B1  616   9.744   8.250   5.155
    1BCK1    B1  617   9.938   8.065   5.102
    1BCK1    B1  618  10.084   7.924   5.058
    1BCK1    B1  619  10.278   7.750   4.994
    1BCK1    B1  620  10.418   7.616   4.913
    1BCK1    B1  621  10.580   7.439   4.797
    1BCK1    B1  622  10.712   7.328   4.671
    1BCK1    B1  623  10.852   7.226   4.465
    1BCK1    B1  624  10.938   7.057   4.340
    1BCK1    B1  625  10.982   6.894   4.134
    1BCK1    B1  626  11.068   6.994   3.865
    1BCK1    B1  627  11.203   6.972   3.709
    1BCK1    B1  628  11.240   6.547   3.712
    1BCK1    B1  629  11.199   6.450   3.652
    1BCK1    B1  630  11.363   6.332   3.254
    1BCK1    B1  631   2.593   3.417   9.498
    1BCK1    B1  632   2.615   3.426   9.520
    1BCK1    B1  633   2.781   3.743   9.816
    1BCK1    B1  634   2.931   3.695   9.799
    1BCK1    B1  635   3.229   3.936   9.935
    1BCK1    B1  636   3.060   4.145   9.978
    1BCK1    B1  637   3.244   4.431  10.068
    1BCK1    B1  638   3.337   4.545  10.087
    1BCK1    B1  639   3.452   4.440  10.549
    1BCK1    B1  640   3.449   4.457  10.567
    1BCK1    B1  641   3.333   4.916  10.458
    1BCK1    B1  642   3.243   4.935  10.572
    1BCK1    B1  643   3.056   5.022  10.862
    1BCK1    B1  644   3.222   5.066  11.068
    1BCK1    B1  645   2.935   5.202  11.323
    1BCK1    B1  646   2.783   5.191  11.284
    1BCK1    B1  647   2.546   5.454  11.521
    1BCK1    B1  648   2.627   5.538  11.627
    1BCK1    B1  649   2.610   8.460   8.775
    1BCK1    B1  650   2.657   8.394   8.657
    1BCK1    B1  651   2.787   8.217   8.357
    1BCK1    B1  652   2.975   8.181   8.315
    1BCK1    B1  653   3.206   8.093   8.095
    1BCK1    B1  654   2.952   7.976   7.845
    1BCK1    B1  655   3.144   7.854   7.661
    1BCK1    B1  656   3.368   7.837   7.606
    1BCK1    B1  657   3.579   7.695   7.459
    1BCK1    B1  658   3.508   7.546   7.218
    1BCK1    B1  659   3.164   7.429   7.313
    1BCK1    B1  660   3.036   7.356   7.185
    1BCK1    B1  661   3.245   7.076   6.966
    1BCK1    B1  662   3.151   6.923   6.906
    1BCK1    B1  663   2.871   6.739   6.859
    1BCK1    B1  664   2.754   6.633   6.791
    1BCK1    B1  665   2.697   6.343   6.583
    1BCK1    B1  666   2.659   6.194   6.574
    1BCK1    B1  667   2.496   6.118   2.389
    1BCK1    B1  668   2.403   6.297   2.317
    1BCK1    B1  669   2.286   6.534   2.233
    1BCK1    B1  670   2.198   6.717   2.172
    1BCK1    B1  671   2.083   6.943   2.095
    1BCK1    B1  672   1.991   7.123   2.028
    1BCK1    B1  673   1.886   7.344   1.946
    1BCK1    B1  674   1.772   7.501   1.852
    1BCK1    B1  675   1.632   7.671   1.724
    1BCK1    B1  676   1.522   7.811   1.603
    1BCK1    B1  677   1.360   7.925   1.437
    1BCK1    B1  678   1.215   7.983   1.292
    1BCK1    B1  679   1.062   8.055   1.096
    1BCK1    B1  680   0.935   8.112   0.935
    1BCK1    B1  681   0.760   8.152   0.738
    1BCK1    B1  682   0.626   8.190   0.580
    1BCK1    B1  683   0.454   8.245   0.368
    1BCK1    B1  684   0.322   8.291   0.209
    1BCK1    B1  685   3.289   6.238   9.695
    1BCK1    B1  686   3.429   6.389   9.750
    1BCK1    B1  687   3.613   6.589   9.810
    1BCK1    B1  688   3.756   6.741   9.846
    1BCK1    B1  689   3.932   6.933   9.895
    1BCK1    B1  690   4.067   7.090   9.945
    1BCK1    B1  691   4.245   7.269  10.005
    1BCK1    B1  692   4.390   7.410  10.075
    1BCK1    B1  693   4.539   7.589  10.184
    1BCK1    B1  694   4.656   7.710  10.320
    1BCK1    B1  695   4.798   7.819  10.502
    1BCK1    B1  696   4.905   7.922  10.656
    1BCK1    B1  697   5.006   8.029  10.870
    1BCK1    B1  698   5.090   8.098  11.053
    1BCK1    B1  699   5.189   8.177  11.285
    1BCK1    B1  700   5.268   8.248  11.470
    1BCK1    B1  701   5.376   8.342  11.706
    1BCK1    B1  702   5.464   8.421  11.886
    1BCK1    B1  703   3.547   9.535  11.660
    1BCK1    B1  704   3.416   9.594  11.704
    1BCK1    B1  705   3.191   9.782  11.923
    1BCK1    B1  706   3.069   9.802   0.010
    1BCK1    B1  707   2.946  10.220  11.818
    1BCK1    B1  708   2.946  10.262  11.944
    1BCK1    B1  709   2.882  10.244   0.321
    1BCK1    B1  710   2.674  10.213   0.363
    1BCK1    B1  711   2.385  10.370   0.308
    1BCK1    B1  712   2.384  10.629   0.308
    1BCK1    B1  713   2.673  10.787   0.364
    1BCK1    B1  714   2.882  10.755   0.325
    1BCK1    B1  715   2.947  10.739  11.947
    1BCK1    B1  716   2.950  10.785  11.826
    1BCK1    B1  717   3.074  11.198   0.017
    1BCK1    B1  718   3.209  11.219  11.936
    1BCK1    B1  719   3.399  11.401  11.681
    1BCK1    B1  720   3.486  11.508  11.609
    1BCK1    B1  721   3.697   5.817   5.641
    1BCK1    B1  722   3.747   5.653   5.517
    1BCK1    B1  723   3.807   5.436   5.352
    1BCK1    B1  724   3.847   5.267   5.232
    1BCK1    B1  725   3.891   5.057   5.076
    1BCK1    B1  726   3.941   4.900   4.942
    1BCK1    B1  727   4.017   4.700   4.794
    1BCK1    B1  728   4.102   4.540   4.682
    1BCK1    B1  729   4.204   4.366   4.522
    1BCK1    B1  730   4.314   4.250   4.381
    1BCK1    B1  731   4.509   4.137   4.247
    1BCK1    B1  732   4.672   4.048   4.155
    1BCK1    B1  733   4.880   3.956   4.018
    1BCK1    B1  734   5.045   3.901   3.912
    1BCK1    B1  735   5.285   3.834   3.793
    1BCK1    B1  736   5.456   3.785   3.706
    1BCK1    B1  737   5.705   3.706   3.567
    1BCK1    B1  738   5.838   3.613   3.469
    1BCK1    B1  739   6.389   0.459   3.454
    1BCK1    B1  740   6.367   0.578   3.377
    1BCK1    B1  741   6.266   0.822   3.104
    1BCK1    B1  742   6.045   0.802   3.064
    1BCK1    B1  743   5.784   1.007   3.100
    1BCK1    B1  744   5.974   1.265   2.997
    1BCK1    B1  745   5.979   1.247   2.699
    1BCK1    B1  746   5.700   1.209   2.586
    1BCK1    B1  747   5.482   1.328   2.587
    1BCK1    B1  748   5.482   1.672   2.587
    1BCK1    B1  749   5.700   1.791   2.586
    1BCK1    B1  750   5.979   1.753   2.699
    1BCK1    B1  751   5.974   1.734   2.996
    1BCK1    B1  752   5.785   1.994   3.100
    1BCK1    B1  753   6.050   2.195   3.067
    1BCK1    B1  754   6.266   2.182   3.108
    1BCK1    B1  755   6.368   2.431   3.376
    1BCK1    B1  756   6.394   2.563   3.450
    1BCK1    B1  757   6.200   0.338   5.294
    1BCK1    B1  758   6.363   0.470   5.246
    1BCK1    B1  759   6.574   0.638   5.193
    1BCK1    B1  760   6.741   0.770   5.147
    1BCK1    B1  761   6.940   0.933   5.111
    1BCK1    B1  762   7.111   1.074   5.101
    1BCK1    B1  763   7.296   1.215   4.995
    1BCK1    B1  764   7.453   1.354   4.936
    1BCK1    B1  765   7.612   1.504   4.805
    1BCK1    B1  766   7.733   1.621   4.670
    1BCK1    B1  767   7.862   1.761   4.498
    1BCK1    B1  768   7.945   1.870   4.333
    1BCK1    B1  769   8.028   1.989   4.116
    1BCK1    B1  770   8.103   2.089   3.944
    1BCK1    B1  771   8.176   2.206   3.712
    1BCK1    B1  772   8.229   2.302   3.532
    1BCK1    B1  773   8.324   2.450   3.306
    1BCK1    B1  774   8.466   2.506   3.149
    1BCK1    B1  775   2.176   6.161   6.408
    1BCK1    B1  776   2.171   6.328   6.529
    1BCK1    B1  777   2.259   6.550   6.699
    1BCK1    B1  778   2.227   6.732   6.802
    1BCK1    B1  779   2.088   6.942   6.910
    1BCK1    B1  780   2.037   7.114   7.028
    1BCK1    B1  781   2.002   7.325   7.178
    1BCK1    B1  782   1.920   7.494   7.289
    1BCK1    B1  783   1.782   7.660   7.424
    1BCK1    B1  784   1.646   7.775   7.551
    1BCK1    B1  785   1.472   7.893   7.694
    1BCK1    B1  786   1.313   7.980   7.812
    1BCK1    B1  787   1.112   8.048   7.962
    1BCK1    B1  788   0.945   8.102   8.081
    1BCK1    B1  789   0.723   8.160   8.220
    1BCK1    B1  790   0.554   8.204   8.330
    1BCK1    B1  791   0.318   8.280   8.478
    1BCK1    B1  792   0.170   8.310   8.602
    1BCK1    B1  793   6.673  11.999   8.821
    1BCK1    B1  794   6.779   0.172   8.824
    1BCK1    B1  795   6.836   0.472   8.887
    1BCK1    B1  796   6.826   0.646   8.970
    1BCK1    B1  797   6.883   0.930   9.083
    1BCK1    B1  798   7.033   1.096   8.996
    1BCK1    B1  799   7.043   1.394   8.979
    1BCK1    B1  800   6.948   1.565   9.138
    1BCK1    B1  801   7.036   1.792   9.287
    1BCK1    B1  802   7.207   1.967   9.290
    1BCK1    B1  803   7.442   2.049   9.137
    1BCK1    B1  804   7.596   1.953   8.973
    1BCK1    B1  805   7.917   1.977   8.996
    1BCK1    B1  806   8.050   2.111   9.104
    1BCK1    B1  807   8.374   2.183   8.946
    1BCK1    B1  808   8.473   2.204   8.871
    1BCK1    B1  809   8.860   2.225   8.809
    1BCK1    B1  810   8.941   2.213   8.762
    1BCK1    B1  811   8.386   9.195   5.163
    1BCK1    B1  812   8.264   9.282   5.232
    1BCK1    B1  813   8.205   9.588   5.420
    1BCK1    B1  814   8.184   9.761   5.226
    1BCK1    B1  815   8.127   9.900   5.033
    1BCK1    B1  816   8.018  10.140   4.988
    1BCK1    B1  817   7.920  10.328   4.924
    1BCK1    B1  818   7.833  10.522   4.785
    1BCK1    B1  819   7.726  10.675   4.655
    1BCK1    B1  820   7.585  10.820   4.521
    1BCK1    B1  821   7.428  10.922   4.376
    1BCK1    B1  822   7.272  11.006   4.227
    1BCK1    B1  823   7.080  11.044   4.071
    1BCK1    B1  824   6.916  11.086   3.933
    1BCK1    B1  825   6.765  11.202   3.738
    1BCK1    B1  826   6.607  11.221   3.602
    1BCK1    B1  827   6.349  11.142   3.481
    1BCK1    B1  828   6.187  11.176   3.354
    1BCK1    B1  829   9.145   0.442   3.650
    1BCK1    B1  830   9.086   0.556   3.531
    1BCK1    B1  831   8.934   0.759   3.303
    1BCK1    B1  832   9.014   0.806   3.104
    1BCK1    B1  833   9.192   1.016   2.942
    1BCK1    B1  834   9.022   1.262   2.964
    1BCK1    B1  835   8.793   1.249   2.737
    1BCK1    B1  836   8.863   1.223   2.494
    1BCK1    B1  837   8.924   1.335   2.245
    1BCK1    B1  838   8.924   1.665   2.246
    1BCK1    B1  839   8.864   1.776   2.494
    1BCK1    B1  840   8.793   1.751   2.739
    1BCK1    B1  841   9.023   1.737   2.964
    1BCK1    B1  842   9.187   1.989   2.948
    1BCK1    B1  843   8.999   2.191   3.111
    1BCK1    B1  844   8.909   2.246   3.306
    1BCK1    B1  845   9.072   2.451   3.530
    1BCK1    B1  846   9.136   2.557   3.650
    1BCK1    B1  847  11.870   0.355   3.568
    1BCK1    B1  848  11.754   0.334   3.654
    1BCK1    B1  849  11.445   0.224   3.826
    1BCK1    B1  850  11.333   0.117   3.804
    1BCK1    B1  851  11.058  11.893   3.839
    1BCK1    B1  852  10.928  11.918   3.997
    1BCK1    B1  853  10.663  11.903   4.170
    1BCK1    B1  854  10.490  11.737   4.127
    1BCK1    B1  855  10.339  11.513   4.096
    1BCK1    B1  856  10.096  11.513   4.339
    1BCK1    B1  857  10.127  11.737   4.491
    1BCK1    B1  858  10.171  11.903   4.663
    1BCK1    B1  859   9.997  11.919   4.929
    1BCK1    B1  860   9.839  11.892   5.057
    1BCK1    B1  861   9.804   0.121   5.336
    1BCK1    B1  862   9.825   0.222   5.446
    1BCK1    B1  863   9.638   0.318   5.766
    1BCK1    B1  864   9.582   0.397   5.870
    1BCK1    B1  865   9.299   3.713  11.770
    1BCK1    B1  866   9.438   3.760  11.626
    1BCK1    B1  867   9.627   3.820  11.427
    1BCK1    B1  868   9.757   3.853  11.266
    1BCK1    B1  869   9.933   3.900  11.070
    1BCK1    B1  870  10.078   3.943  10.923
    1BCK1    B1  871  10.253   3.996  10.736
    1BCK1    B1  872  10.392   4.078  10.595
    1BCK1    B1  873  10.560   4.199  10.445
    1BCK1    B1  874  10.692   4.314  10.320
    1BCK1    B1  875  10.815   4.490  10.178
    1BCK1    B1  876  10.906   4.661  10.085
    1BCK1    B1  877  11.011   4.876   9.988
    1BCK1    B1  878  11.097   5.056   9.910
    1BCK1    B1  879  11.194   5.286   9.823
    1BCK1    B1  880  11.272   5.474   9.753
    1BCK1    B1  881  11.376   5.712   9.661
    1BCK1    B1  882  11.469   5.891   9.580
    1BCK1    B1  883   6.190  11.300  11.651
    1BCK1    B1  884   6.354  11.250  11.527
    1BCK1    B1  885   6.571  11.188  11.364
    1BCK1    B1  886   6.738  11.150  11.240
    1BCK1    B1  887   6.945  11.107  11.080
    1BCK1    B1  888   7.102  11.053  10.948
    1BCK1    B1  889   7.297  10.985  10.792
    1BCK1    B1  890   7.453  10.914  10.665
    1BCK1    B1  891   7.622  10.799  10.508
    1BCK1    B1  892   7.746  10.675  10.386
    1BCK1    B1  893   7.870  10.496  10.249
    1BCK1    B1  894   7.948  10.332  10.137
    1BCK1    B1  895   8.030  10.118  10.017
    1BCK1    B1  896   8.099   9.941   9.922
    1BCK1    B1  897   8.162   9.713   9.804
    1BCK1    B1  898   8.218   9.534   9.705
    1BCK1    B1  899   8.298   9.302   9.575
    1BCK1    B1  900   8.366   9.126   9.476
    1BCK1    B1  901   3.476  11.529   9.045
    1BCK1    B1  902   3.440  11.453   8.995
    1BCK1    B1  903   3.191  11.113   9.118
    1BCK1    B1  904   3.066  11.127   9.122
    1BCK1    B1  905   2.968  10.934   8.699
    1BCK1    B1  906   3.002  10.730   8.820
    1BCK1    B1  907   2.721  10.748   9.105
    1BCK1    B1  908   2.519  10.779   8.949
    1BCK1    B1  909   2.449  10.650   8.682
    1BCK1    B1  910   2.440  10.351   8.677
    1BCK1    B1  911   2.527  10.212   8.947
    1BCK1    B1  912   2.705  10.246   9.100
    1BCK1    B1  913   3.024  10.239   8.857
    1BCK1    B1  914   3.031  10.043   8.766
    1BCK1    B1  915   3.010   9.837   9.152
    1BCK1    B1  916   3.174   9.839   9.214
    1BCK1    B1  917   3.470   9.606   9.139
    1BCK1    B1  918   3.552   9.485   9.167
    1BCK1    B1  919   8.455   5.606   9.207
    1BCK1    B1  920   8.386   5.649   9.320
    1BCK1    B1  921   8.225   5.785   9.627
    1BCK1    B1  922   8.202   5.942   9.693
    1BCK1    B1  923   8.060   6.156   9.925
    1BCK1    B1  924   7.936   5.973  10.121
    1BCK1    B1  925   7.868   6.136  10.378
    1BCK1    B1  926   7.882   6.323  10.473
    1BCK1    B1  927   7.695   6.578  10.546
    1BCK1    B1  928   7.522   6.542  10.756
    1BCK1    B1  929   7.461   6.164  10.731
    1BCK1    B1  930   7.406   6.058  10.874
    1BCK1    B1  931   7.064   6.239  11.016
    1BCK1    B1  932   6.933   6.117  11.044
    1BCK1    B1  933   6.761   5.861  11.167
    1BCK1    B1  934   6.606   5.794  11.255
    1BCK1    B1  935   6.340   5.681  11.400
    1BCK1    B1  936   6.193   5.599  11.459
    1BCK1    B1  937   8.594   2.613   8.554
    1BCK1    B1  938   8.652   2.614   8.537
    1BCK1    B1  939   8.851   2.285   8.269
    1BCK1    B1  940   8.847   2.237   8.273
    1BCK1    B1  941   9.037   1.854   8.070
    1BCK1    B1  942   9.069   1.868   8.030
    1BCK1    B1  943   9.285   1.803   7.617
    1BCK1    B1  944   9.336   1.759   7.635
    1BCK1    B1  945   9.608   1.408   7.730
    1BCK1    B1  946   9.585   1.302   7.611
    1BCK1    B1  947   9.291   1.380   7.325
    1BCK1    B1  948   9.264   1.444   7.219
    1BCK1    B1  949   9.084   1.033   7.054
    1BCK1    B1  950   9.039   0.993   7.085
    1BCK1    B1  951   8.889   0.875   6.618
    1BCK1    B1  952   8.842   0.818   6.650
    1BCK1    B1  953   8.767   0.394   6.665
    1BCK1    B1  954   8.733   0.334   6.636
    1BCK1    B1  955  11.302   3.035   9.030
    1BCK1    B1  956  11.182   2.842   9.028
    1BCK1    B1  957  11.188   2.550   8.976
    1BCK1    B1  958  11.168   2.345   8.979
    1BCK1    B1  959  11.043   2.084   9.063
    1BCK1    B1  960  10.958   1.898   9.052
    1BCK1    B1  961  11.040   1.613   8.911
    1BCK1    B1  962  11.087   1.438   8.902
    1BCK1    B1  963  10.974   1.145   9.065
    1BCK1    B1  964  10.851   1.026   9.064
    1BCK1    B1  965  10.559   0.914   8.901
    1BCK1    B1  966  10.383   0.959   8.909
    1BCK1    B1  967  10.096   1.038   9.047
    1BCK1    B1  968   9.910   0.955   9.058
    1BCK1    B1  969   9.650   0.825   8.948
    1BCK1    B1  970   9.458   0.800   8.921
    1BCK1    B1  971   9.153   0.823   8.987
    1BCK1    B1  972   8.991   0.699   9.050
    1BCK1    B1  973   3.133   0.005   3.683
    1BCK1    B1  974   3.133   0.161   3.793
    1BCK1    B1  975   3.109   0.488   3.839
    1BCK1    B1  976   3.057   0.651   3.846
    1BCK1    B1  977   2.893   0.943   3.894
    1BCK1    B1  978   2.923   1.105   3.991
    1BCK1    B1  979   3.060   1.396   4.055
    1BCK1    B1  980   2.984   1.599   4.015
    1BCK1    B1  981   2.728   1.782   4.018
    1BCK1    B1  982   2.729   1.981   4.219
    1BCK1    B1  983   2.985   1.984   4.400
    1BCK1    B1  984   3.059   1.945   4.605
    1BCK1    B1  985   2.922   2.008   4.892
    1BCK1    B1  986   2.893   2.106   5.059
    1BCK1    B1  987   3.054   2.155   5.344
    1BCK1    B1  988   3.107   2.184   5.511
    1BCK1    B1  989   3.125   2.252   5.819
    1BCK1    B1  990   3.106   2.299   6.000
    1BCK1    B1  991   0.381   0.476   9.450
    1BCK1    B1  992   0.359   0.350   9.591
    1BCK1    B1  993   0.289   0.128   9.822
    1BCK1    B1  994  11.962   0.147   9.848
    1BCK1    B1  995  11.798   0.100   9.959
    1BCK1    B1  996   0.092  11.897  10.260
    1BCK1    B1  997  11.950  11.711  10.256
    1BCK1    B1  998  11.641  11.670  10.224
    1BCK1    B1  999  11.488  11.491  10.326
    1BCK1    B1 1000  11.493  11.493  10.679
    1BCK1    B1 1001  11.644  11.671  10.780
    1BCK1    B1 1002  11.962  11.707  10.769
    1BCK1    B1 1003   0.104  11.880  10.758
    1BCK1    B1 1004  11.793   0.097  11.060
    1BCK1    B1 1005  11.956   0.138  11.156
    1BCK1    B1 1006   0.293   0.144  11.172
    1BCK1    B1 1007   0.357   0.341  11.407
    1BCK1    B1 1008   0.380   0.475  11.552
    1BCK1    B1 1009   0.917   3.125   9.274
    1BCK1    B1 1010   1.176   3.086   9.190
    1BCK1    B1 1011   1.399   3.053   9.114
    1BCK1    B1 1012   1.669   3.015   9.033
    1BCK1    B1 1013   1.883   2.994   8.987
    1BCK1    B1 1014   2.173   2.959   8.908
    1BCK1    B1 1015   2.326   2.908   8.766
    1BCK1    B1 1016   2.666   2.863   8.709
    1BCK1    B1 1017   2.823   2.821   8.746
    1BCK1    B1 1018   3.177   2.819   8.745
    1BCK1    B1 1019   3.339   2.868   8.715
    1BCK1    B1 1020   3.670   2.898   8.790
    1BCK1    B1 1021   3.853   2.900   8.833
    1BCK1    B1 1022   4.143   2.959   8.941
    1BCK1    B1 1023   4.308   3.025   9.057
    1BCK1    B1 1024   4.601   3.058   9.122
    1BCK1    B1 1025   4.829   3.088   9.181
    1BCK1    B1 1026   5.095   3.125   9.251
    1BCK1    B1 1027   6.784   5.479   5.853
    1BCK1    B1 1028   6.794   5.437   5.839
    1BCK1    B1 1029   7.038   5.276   5.467
    1BCK1    B1 1030   7.058   5.254   5.455
    1BCK1    B1 1031   6.678   4.924   4.793
    1BCK1    B1 1032   6.728   4.914   4.792
    1BCK1    B1 1033   7.055   4.884   4.479
    1BCK1    B1 1034   7.063   4.667   4.517
    1BCK1    B1 1035   7.168   4.474   4.223
    1BCK1    B1 1036   7.200   4.535   4.065
    1BCK1    B1 1037   7.551   4.422   3.909
    1BCK1    B1 1038   7.622   4.355   3.891
    1BCK1    B1 1039   7.676   3.940   3.924
    1BCK1    B1 1040   7.679   3.867   3.950
    1BCK1    B1 1041   8.431   3.743   4.007
    1BCK1    B1 1042   8.485   3.771   3.942
    1BCK1    B1 1043   8.847   3.518   3.836
    1BCK1    B1 1044   8.847   3.407   3.817
    1BCK1    B1 1045  11.929   3.664   9.442
    1BCK1    B1 1046  11.896   3.524   9.548
    1BCK1    B1 1047  11.781   3.286   9.758
    1BCK1    B1 1048   0.029   3.128   9.824
    1BCK1    B1 1049   0.184   3.025   9.924
    1BCK1    B1 1050  11.936   2.950  10.261
    1BCK1    B1 1051  11.992   2.691  10.251
    1BCK1    B1 1052   0.145   2.495  10.229
    1BCK1    B1 1053   0.117   2.204  10.349
    1BCK1    B1 1054   0.117   2.204  10.651
    1BCK1    B1 1055   0.144   2.495  10.771
    1BCK1    B1 1056  11.992   2.691  10.750
    1BCK1    B1 1057  11.938   2.951  10.743
    1BCK1    B1 1058   0.185   3.025  11.075
    1BCK1    B1 1059   0.025   3.138  11.180
    1BCK1    B1 1060  11.781   3.284  11.240
    1BCK1    B1 1061  11.912   3.534  11.473
    1BCK1    B1 1062  11.906   3.672  11.546
    1BCK1    B1 1063  11.608   2.452   3.142
    1BCK1    B1 1064  11.669   2.378   3.275
    1BCK1    B1 1065  11.831   2.203   3.527
    1BCK1    B1 1066  11.840   2.153   3.688
    1BCK1    B1 1067   0.006   2.158   4.001
    1BCK1    B1 1068   0.166   2.074   4.052
    1BCK1    B1 1069   0.205   1.782   4.283
    1BCK1    B1 1070   0.234   1.811   4.461
    1BCK1    B1 1071   0.474   1.898   4.700
    1BCK1    B1 1072   0.474   1.700   4.898
    1BCK1    B1 1073   0.234   1.461   4.810
    1BCK1    B1 1074   0.204   1.283   4.782
    1BCK1    B1 1075   0.165   1.053   5.074
    1BCK1    B1 1076   0.005   1.002   5.158
    1BCK1    B1 1077  11.836   0.690   5.151
    1BCK1    B1 1078  11.824   0.530   5.201
    1BCK1    B1 1079  11.664   0.277   5.376
    1BCK1    B1 1080  11.605   0.143   5.452
    1BCK1    B1 1081   9.415   6.521   6.171
    1BCK1    B1 1082   9.345   6.601   6.302
    1BCK1    B1 1083   9.251   6.740   6.602
    1BCK1    B1 1084   9.208   6.812   6.767
    1BCK1    B1 1085   8.886   6.941   6.889
    1BCK1    B1 1086   8.770   7.010   6.973
    1BCK1    B1 1087   8.886   7.109   7.371
    1BCK1    B1 1088   8.809   7.134   7.530
    1BCK1    B1 1089   8.441   7.260   7.567
    1BCK1    B1 1090   8.431   7.447   7.739
    1BCK1    B1 1091   8.762   7.507   7.876
    1BCK1    B1 1092   8.892   7.615   7.886
    1BCK1    B1 1093   8.802   7.991   7.985
    1BCK1    B1 1094   8.832   8.102   8.056
    1BCK1    B1 1095   9.178   8.245   8.185
    1BCK1    B1 1096   9.285   8.312   8.187
    1BCK1    B1 1097   9.314   8.664   8.407
    1BCK1    B1 1098   9.241   8.716   8.523
    1BCK1    B1 1099   0.916   6.252   9.165
    1BCK1    B1 1100   1.176   6.175   9.114
    1BCK1    B1 1101   1.401   6.106   9.069
    1BCK1    B1 1102   1.671   6.029   9.019
    1BCK1    B1 1103   1.886   5.983   8.988
    1BCK1    B1 1104   2.182   5.910   8.942
    1BCK1    B1 1105   2.340   5.785   8.874
    1BCK1    B1 1106   2.682   5.764   8.820
    1BCK1    B1 1107   2.825   5.719   8.777
    1BCK1    B1 1108   3.192   5.789   8.809
    1BCK1    B1 1109   3.320   5.780   8.839
    1BCK1    B1 1110   3.674   5.804   8.864
    1BCK1    B1 1111   3.815   5.909   8.928
    1BCK1    B1 1112   4.117   5.985   8.990
    1BCK1    B1 1113   4.326   6.028   9.019
    1BCK1    B1 1114   4.598   6.105   9.069
    1BCK1    B1 1115   4.822   6.174   9.113
    1BCK1    B1 1116   5.081   6.251   9.162
    1BCK1    B1 1117  11.757   9.710   2.719
    1BCK1    B1 1118  11.608   9.756   2.576
    1BCK1    B1 1119  11.409   9.808   2.388
    1BCK1    B1 1120  11.255   9.845   2.248
    1BCK1    B1 1121  11.065   9.901   2.070
    1BCK1    B1 1122  10.917   9.943   1.925
    1BCK1    B1 1123  10.727   9.994   1.755
    1BCK1    B1 1124  10.580  10.082   1.624
    1BCK1    B1 1125  10.420  10.194   1.461
    1BCK1    B1 1126  10.293  10.309   1.330
    1BCK1    B1 1127  10.168  10.496   1.204
    1BCK1    B1 1128  10.080  10.665   1.108
    1BCK1    B1 1129   9.977  10.873   0.995
    1BCK1    B1 1130   9.899  11.049   0.903
    1BCK1    B1 1131   9.822  11.284   0.810
    1BCK1    B1 1132   9.756  11.472   0.733
    1BCK1    B1 1133   9.660  11.707   0.622
    1BCK1    B1 1134   9.581  11.886   0.534
    1BCK1    B1 1135   3.171   0.377  11.310
    1BCK1    B1 1136   3.339   0.496  11.259
    1BCK1    B1 1137   3.562   0.651  11.196
    1BCK1    B1 1138   3.729   0.775  11.158
    1BCK1    B1 1139   3.938   0.932  11.111
    1BCK1    B1 1140   4.109   1.042  11.048
    1BCK1    B1 1141   4.313   1.182  10.972
    1BCK1    B1 1142   4.461   1.323  10.909
    1BCK1    B1 1143   4.633   1.481  10.800
    1BCK1    B1 1144   4.761   1.587  10.661
    1BCK1    B1 1145   4.881   1.725  10.484
    1BCK1    B1 1146   4.966   1.853  10.331
    1BCK1    B1 1147   5.036   1.985  10.121
    1BCK1    B1 1148   5.098   2.085   9.942
    1BCK1    B1 1149   5.167   2.209   9.719
    1BCK1    B1 1150   5.215   2.313   9.538
    1BCK1    B1 1151   5.282   2.456   9.310
    1BCK1    B1 1152   5.342   2.572   9.140
    1BCK1    B1 1153   3.259  11.562   3.465
    1BCK1    B1 1154   3.362  11.495   3.384
    1BCK1    B1 1155   3.637  11.288   3.272
    1BCK1    B1 1156   3.726  11.194   3.189
    1BCK1    B1 1157   3.893  11.076   2.890
    1BCK1    B1 1158   4.024  11.049   2.816
    1BCK1    B1 1159   4.328  10.811   2.848
    1BCK1    B1 1160   4.392  10.737   2.720
    1BCK1    B1 1161   4.505  10.694   2.384
    1BCK1    B1 1162   4.697  10.501   2.385
    1BCK1    B1 1163   4.741  10.387   2.721
    1BCK1    B1 1164   4.815  10.329   2.851
    1BCK1    B1 1165   5.048  10.013   2.825
    1BCK1    B1 1166   5.065   9.887   2.879
    1BCK1    B1 1167   5.216   9.762   3.228
    1BCK1    B1 1168   5.293   9.644   3.248
    1BCK1    B1 1169   5.457   9.344   3.370
    1BCK1    B1 1170   5.537   9.259   3.453
    1BCK1    B1 1171   3.127  11.506   9.458
    1BCK1    B1 1172   3.143  11.485   9.472
    1BCK1    B1 1173   3.208  11.019   9.627
    1BCK1    B1 1174   3.200  11.027   9.685
    1BCK1    B1 1175   2.829  11.228   9.881
    1BCK1    B1 1176   2.822  11.113  10.016
    1BCK1    B1 1177   2.945  10.873  10.250
    1BCK1    B1 1178   2.791  10.825  10.437
    1BCK1    B1 1179   2.537  10.878  10.576
    1BCK1    B1 1180   2.473  10.695  10.821
    1BCK1    B1 1181   2.729  10.481  10.815
    1BCK1    B1 1182   2.846  10.359  10.873
    1BCK1    B1 1183   2.876  10.082  11.070
    1BCK1    B1 1184   2.930   9.914  11.084
    1BCK1    B1 1185   3.161   9.699  11.205
    1BCK1    B1 1186   3.223   9.550  11.243
    1BCK1    B1 1187   3.312   9.238  11.315
    1BCK1    B1 1188   3.379   9.104  11.413
    1BCK1    B1 1189   6.303   3.691   3.342
    1BCK1    B1 1190   6.393   3.723   3.499
    1BCK1    B1 1191   6.632   3.786   3.703
    1BCK1    B1 1192   6.771   3.841   3.813
    1BCK1    B1 1193   7.040   4.027   3.891
    1BCK1    B1 1194   7.185   4.026   4.002
    1BCK1    B1 1195   7.290   3.928   4.305
    1BCK1    B1 1196   7.474   4.064   4.394
    1BCK1    B1 1197   7.503   4.312   4.535
    1BCK1    B1 1198   7.667   4.313   4.769
    1BCK1    B1 1199   7.892   4.414   4.813
    1BCK1    B1 1200   7.978   4.692   4.714
    1BCK1    B1 1201   7.962   4.898   4.873
    1BCK1    B1 1202   8.034   4.995   5.087
    1BCK1    B1 1203   8.160   5.220   5.190
    1BCK1    B1 1204   8.215   5.422   5.263
    1BCK1    B1 1205   8.297   5.661   5.392
    1BCK1    B1 1206   8.374   5.843   5.493
    1BCK1    B1 1207   0.448   3.147   6.615
    1BCK1    B1 1208   0.558   3.315   6.673
    1BCK1    B1 1209   0.696   3.545   6.749
    1BCK1    B1 1210   0.789   3.718   6.828
    1BCK1    B1 1211   0.917   3.940   6.908
    1BCK1    B1 1212   1.031   4.112   6.953
    1BCK1    B1 1213   1.162   4.329   7.020
    1BCK1    B1 1214   1.276   4.483   7.114
    1BCK1    B1 1215   1.429   4.647   7.241
    1BCK1    B1 1216   1.547   4.782   7.354
    1BCK1    B1 1217   1.698   4.908   7.527
    1BCK1    B1 1218   1.822   4.978   7.681
    1BCK1    B1 1219   1.964   5.048   7.893
    1BCK1    B1 1220   2.080   5.107   8.055
    1BCK1    B1 1221   2.234   5.166   8.272
    1BCK1    B1 1222   2.342   5.226   8.436
    1BCK1    B1 1223   2.494   5.303   8.669
    1BCK1    B1 1224   2.597   5.266   8.849
    1BCK1    B1 1225   3.622   3.287   9.115
    1BCK1    B1 1226   3.831   3.225   9.231
    1BCK1    B1 1227   3.893   3.016   9.449
    1BCK1    B1 1228   3.809   3.014   9.686
    1BCK1    B1 1229   3.865   3.075   9.968
    1BCK1    B1 1230   4.047   3.033  10.135
    1BCK1    B1 1231   4.060   2.772  10.333
    1BCK1    B1 1232   3.978   2.733  10.538
    1BCK1    B1 1233   4.065   2.966  10.802
    1BCK1    B1 1234   4.197   2.966  10.936
    1BCK1    B1 1235   4.464   2.735  11.020
    1BCK1    B1 1236   4.662   2.766  10.937
    1BCK1    B1 1237   4.869   3.031  10.958
    1BCK1    B1 1238   5.018   3.069  11.128
    1BCK1    B1 1239   5.324   3.027  11.177
    1BCK1    B1 1240   5.522   3.066  11.154
    1BCK1    B1 1241   5.805   3.169  11.218
    1BCK1    B1 1242   5.984   3.182  11.328
    1BCK1    B1 1243   2.771   5.854  11.234
    1BCK1    B1 1244   2.766   5.773  11.191
    1BCK1    B1 1245   2.964   5.516  10.908
    1BCK1    B1 1246   3.047   5.514  10.875
    1BCK1    B1 1247   2.935   4.698  11.417
    1BCK1    B1 1248   2.861   4.670  11.355
    1BCK1    B1 1249   3.187   4.567  10.991
    1BCK1    B1 1250   3.150   4.543  10.959
    1BCK1    B1 1251   3.130   4.078  10.963
    1BCK1    B1 1252   3.131   4.041  10.924
    1BCK1    B1 1253   3.156   4.049  10.459
    1BCK1    B1 1254   3.191   4.018  10.435
    1BCK1    B1 1255   2.848   3.680  10.324
    1BCK1    B1 1256   2.928   3.605  10.299
    1BCK1    B1 1257   3.044   4.124   9.486
    1BCK1    B1 1258   2.966   4.098   9.482
    1BCK1    B1 1259   2.782   3.798   9.213
    1BCK1    B1 1260   2.768   3.772   9.145
    1BCK1    B1 1261   2.904   8.084  11.723
    1BCK1    B1 1262   2.934   7.826  11.808
    1BCK1    B1 1263   2.959   7.600  11.884
    1BCK1    B1 1264   2.991   7.331  11.968
    1BCK1    B1 1265   3.021   7.116   0.017
    1BCK1    B1 1266   3.048   6.827   0.100
    1BCK1    B1 1267   3.024   6.670   0.244
    1BCK1    B1 1268   3.119   6.337   0.278
    1BCK1    B1 1269   3.171   6.191   0.250
    1BCK1    B1 1270   3.166   5.821   0.254
    1BCK1    B1 1271   3.106   5.669   0.282
    1BCK1    B1 1272   3.063   5.328   0.227
    1BCK1    B1 1273   3.027   5.175   0.078
    1BCK1    B1 1274   3.000   4.891  11.983
    1BCK1    B1 1275   2.984   4.678  11.938
    1BCK1    B1 1276   2.956   4.409  11.856
    1BCK1    B1 1277   2.931   4.191  11.778
    1BCK1    B1 1278   2.902   3.924  11.706
    1BCK1    B1 1279   2.519   5.876   3.630
    1BCK1    B1 1280   2.422   5.699   3.698
    1BCK1    B1 1281   2.297   5.463   3.774
    1BCK1    B1 1282   2.202   5.281   3.830
    1BCK1    B1 1283   2.085   5.055   3.905
    1BCK1    B1 1284   1.990   4.875   3.964
    1BCK1    B1 1285   1.868   4.660   4.044
    1BCK1    B1 1286   1.752   4.508   4.138
    1BCK1    B1 1287   1.614   4.331   4.264
    1BCK1    B1 1288   1.494   4.198   4.380
    1BCK1    B1 1289   1.336   4.079   4.548
    1BCK1    B1 1290   1.210   4.009   4.705
    1BCK1    B1 1291   1.057   3.950   4.908
    1BCK1    B1 1292   0.923   3.898   5.062
    1BCK1    B1 1293   0.760   3.843   5.270
    1BCK1    B1 1294   0.654   3.792   5.444
    1BCK1    B1 1295   0.479   3.737   5.662
    1BCK1    B1 1296   0.302   3.741   5.775
    1BCK1    B1 1297   3.452   6.123   8.492
    1BCK1    B1 1298   3.450   6.124   8.438
    1BCK1    B1 1299   3.036   6.151   8.174
    1BCK1    B1 1300   3.021   6.007   8.198
    1BCK1    B1 1301   3.161   5.787   7.835
    1BCK1    B1 1302   2.975   5.982   7.710
    1BCK1    B1 1303   2.702   5.988   7.750
    1BCK1    B1 1304   2.617   5.657   7.830
    1BCK1    B1 1305   2.640   5.485   7.674
    1BCK1    B1 1306   2.647   5.496   7.341
    1BCK1    B1 1307   2.620   5.664   7.191
    1BCK1    B1 1308   2.682   6.000   7.228
    1BCK1    B1 1309   2.918   6.057   7.249
    1BCK1    B1 1310   3.150   5.828   7.163
    1BCK1    B1 1311   3.089   6.003   6.803
    1BCK1    B1 1312   3.113   6.226   6.825
    1BCK1    B1 1313   3.311   6.410   6.608
    1BCK1    B1 1314   3.439   6.408   6.498
    1BCK1    B1 1315   3.443   8.544   6.274
    1BCK1    B1 1316   3.351   8.406   6.443
    1BCK1    B1 1317   3.252   8.239   6.635
    1BCK1    B1 1318   3.001   8.198   6.762
    1BCK1    B1 1319   2.860   8.140   6.931
    1BCK1    B1 1320   3.046   7.901   7.172
    1BCK1    B1 1321   2.814   7.801   7.282
    1BCK1    B1 1322   2.541   7.805   7.272
    1BCK1    B1 1323   2.384   7.618   7.497
    1BCK1    B1 1324   2.690   7.568   7.707
    1BCK1    B1 1325   2.839   7.461   7.691
    1BCK1    B1 1326   2.718   7.078   7.805
    1BCK1    B1 1327   2.729   7.073   7.990
    1BCK1    B1 1328   3.072   7.129   8.175
    1BCK1    B1 1329   3.091   6.731   8.088
    1BCK1    B1 1330   3.150   6.630   8.110
    1BCK1    B1 1331   3.359   6.630   8.505
    1BCK1    B1 1332   3.421   6.650   8.545
    1BCK1    B1 1333   6.123   0.417   0.535
    1BCK1    B1 1334   6.270   0.350   0.611
    1BCK1    B1 1335   6.529   0.213   0.747
    1BCK1    B1 1336   6.682   0.170   0.829
    1BCK1    B1 1337   6.939  11.975   0.897
    1BCK1    B1 1338   7.050  11.865   0.953
    1BCK1    B1 1339   7.326  11.808   1.166
    1BCK1    B1 1340   7.469  11.726   1.173
    1BCK1    B1 1341   7.690  11.463   1.128
    1BCK1    B1 1342   7.874  11.464   1.312
    1BCK1    B1 1343   7.828  11.728   1.534
    1BCK1    B1 1344   7.835  11.809   1.678
    1BCK1    B1 1345   8.046  11.868   1.953
    1BCK1    B1 1346   8.097  11.980   2.069
    1BCK1    B1 1347   8.155   0.167   2.330
    1BCK1    B1 1348   8.244   0.194   2.492
    1BCK1    B1 1349   8.331   0.321   2.766
    1BCK1    B1 1350   8.423   0.430   2.890
    1BCK1    B1 1351   3.641  11.127   9.355
    1BCK1    B1 1352   3.617  11.232   9.415
    1BCK1    B1 1353   3.589  11.333   9.823
    1BCK1    B1 1354   3.657  11.118   9.890
    1BCK1    B1 1355   4.003  11.038   9.820
    1BCK1    B1 1356   4.119  11.071  10.028
    1BCK1    B1 1357   4.221  11.026  10.269
    1BCK1    B1 1358   4.406  10.921  10.382
    1BCK1    B1 1359   4.579  10.801  10.510
    1BCK1    B1 1360   4.714  10.686  10.655
    1BCK1    B1 1361   4.843  10.513  10.788
    1BCK1    B1 1362   4.927  10.340  10.895
    1BCK1    B1 1363   5.014  10.124  11.008
    1BCK1    B1 1364   5.098   9.945  11.091
    1BCK1    B1 1365   5.184   9.713  11.192
    1BCK1    B1 1366   5.244   9.528  11.275
    1BCK1    B1 1367   5.334   9.285  11.386
    1BCK1    B1 1368   5.410   9.108  11.473
    1BCK1    B1 1369   2.684   9.216   2.293
    1BCK1    B1 1370   2.551   9.372   2.246
    1BCK1    B1 1371   2.371   9.578   2.191
    1BCK1    B1 1372   2.234   9.735   2.158
    1BCK1    B1 1373   2.071   9.941   2.117
    1BCK1    B1 1374   1.937  10.095   2.059
    1BCK1    B1 1375   1.764  10.275   1.984
    1BCK1    B1 1376   1.633  10.427   1.917
    1BCK1    B1 1377   1.481  10.611   1.817
    1BCK1    B1 1378   1.357  10.727   1.683
    1BCK1    B1 1379   1.226  10.839   1.494
    1BCK1    B1 1380   1.118  10.935   1.336
    1BCK1    B1 1381   0.993  11.030   1.131
    1BCK1    B1 1382   0.900  11.105   0.953
    1BCK1    B1 1383   0.801  11.176   0.719
    1BCK1    B1 1384   0.718  11.235   0.531
    1BCK1    B1 1385   0.603  11.323   0.296
    1BCK1    B1 1386   0.507  11.398   0.116
    1BCK1    B1 1387   6.459   3.173   3.578
    1BCK1    B1 1388   6.541   3.171   3.523
    1BCK1    B1 1389   6.861   3.209   3.266
    1BCK1    B1 1390   6.813   3.062   3.121
    1BCK1    B1 1391   6.852   2.793   2.961
    1BCK1    B1 1392   7.260   2.995   2.968
    1BCK1    B1 1393   7.242   3.049   2.754
    1BCK1    B1 1394   7.218   2.830   2.502
    1BCK1    B1 1395   7.307   2.780   2.317
    1BCK1    B1 1396   7.695   2.783   2.323
    1BCK1    B1 1397   7.779   2.836   2.509
    1BCK1    B1 1398   7.743   3.056   2.756
    1BCK1    B1 1399   7.736   2.958   2.993
    1BCK1    B1 1400   8.143   2.844   2.971
    1BCK1    B1 1401   8.186   3.108   3.066
    1BCK1    B1 1402   8.094   3.230   3.309
    1BCK1    B1 1403   8.489   2.931   3.445
    1BCK1    B1 1404   8.533   2.971   3.409
    1BCK1    B1 1405   6.405   5.352   6.174
    1BCK1    B1 1406   6.592   5.305   6.290
    1BCK1    B1 1407   6.731   5.236   6.524
    1BCK1    B1 1408   6.799   5.177   6.715
    1BCK1    B1 1409   6.914   5.094   6.944
    1BCK1    B1 1410   7.002   5.022   7.120
    1BCK1    B1 1411   7.119   4.947   7.344
    1BCK1    B1 1412   7.241   4.871   7.499
    1BCK1    B1 1413   7.381   4.741   7.675
    1BCK1    B1 1414   7.488   4.600   7.795
    1BCK1    B1 1415   7.644   4.434   7.916
    1BCK1    B1 1416   7.789   4.297   7.994
    1BCK1    B1 1417   7.949   4.102   8.054
    1BCK1    B1 1418   8.074   3.936   8.101
    1BCK1    B1 1419   8.235   3.734   8.156
    1BCK1    B1 1420   8.369   3.570   8.193
    1BCK1    B1 1421   8.537   3.358   8.248
    1BCK1    B1 1422   8.664   3.193   8.310
    1BCK1    B1 1423   5.395   6.154   2.467
    1BCK1    B1 1424   5.303   6.372   2.353
    1BCK1    B1 1425   5.237   6.577   2.237
    1BCK1    B1 1426   5.141   6.816   2.125
    1BCK1    B1 1427   5.026   7.011   2.118
    1BCK1    B1 1428   4.865   7.244   2.020
    1BCK1    B1 1429   4.943   7.335   1.766
    1BCK1    B1 1430   4.970   7.392   1.553
    1BCK1    B1 1431   4.822   7.670   1.425
    1BCK1    B1 1432   4.644   7.758   1.542
    1BCK1    B1 1433   4.354   7.783   1.554
    1BCK1    B1 1434   4.250   7.895   1.308
    1BCK1    B1 1435   4.179   8.005   1.126
    1BCK1    B1 1436   3.978   8.099   0.961
    1BCK1    B1 1437   3.800   8.130   0.812
    1BCK1    B1 1438   3.622   8.178   0.634
    1BCK1    B1 1439   3.442   8.226   0.461
    1BCK1    B1 1440   3.267   8.284   0.296
    1BCK1    B1 1441   5.625   8.753   2.302
    1BCK1    B1 1442   5.494   8.556   2.246
    1BCK1    B1 1443   5.324   8.363   2.199
    1BCK1    B1 1444   5.163   8.189   2.139
    1BCK1    B1 1445   5.088   7.968   1.997
    1BCK1    B1 1446   4.934   7.796   1.944
    1BCK1    B1 1447   4.664   7.722   2.041
    1BCK1    B1 1448   4.473   7.633   2.053
    1BCK1    B1 1449   4.367   7.359   1.896
    1BCK1    B1 1450   4.462   7.300   1.695
    1BCK1    B1 1451   4.439   7.279   1.412
    1BCK1    B1 1452   4.187   7.127   1.345
    1BCK1    B1 1453   4.052   7.005   1.204
    1BCK1    B1 1454   3.943   6.915   0.986
    1BCK1    B1 1455   3.828   6.857   0.769
    1BCK1    B1 1456   3.706   6.790   0.578
    1BCK1    B1 1457   3.559   6.710   0.348
    1BCK1    B1 1458   3.526   6.634   0.140
    1BCK1    B1 1459   8.833   6.388  11.268
    1BCK1    B1 1460   8.689   6.546  11.203
    1BCK1    B1 1461   8.454   6.690  11.213
    1BCK1    B1 1462   8.229   6.718  11.192
    1BCK1    B1 1463   8.044   6.896  11.088
    1BCK1    B1 1464   7.906   7.038  11.034
    1BCK1    B1 1465   7.693   7.191  10.975
    1BCK1    B1 1466   7.541   7.312  10.904
    1BCK1    B1 1467   7.359   7.470  10.795
    1BCK1    B1 1468   7.247   7.597  10.670
    1BCK1    B1 1469   7.130   7.744  10.487
    1BCK1    B1 1470   7.040   7.851  10.331
    1BCK1    B1 1471   6.964   7.974  10.107
    1BCK1    B1 1472   6.904   8.081   9.942
    1BCK1    B1 1473   6.811   8.251   9.744
    1BCK1    B1 1474   6.764   8.317   9.554
    1BCK1    B1 1475   6.725   8.435   9.299
    1BCK1    B1 1476   6.643   8.559   9.149
    1BCK1    B1 1477   5.416   9.496   9.076
    1BCK1    B1 1478   5.495   9.561   9.072
    1BCK1    B1 1479   5.797   9.837   9.171
    1BCK1    B1 1480   5.907   9.857   9.117
    1BCK1    B1 1481   6.025  10.043   8.757
    1BCK1    B1 1482   6.046  10.253   8.848
    1BCK1    B1 1483   6.262  10.248   9.155
    1BCK1    B1 1484   6.511  10.234   9.037
    1BCK1    B1 1485   6.581  10.335   8.764
    1BCK1    B1 1486   6.581  10.665   8.764
    1BCK1    B1 1487   6.511  10.766   9.037
    1BCK1    B1 1488   6.262  10.752   9.155
    1BCK1    B1 1489   6.046  10.746   8.848
    1BCK1    B1 1490   6.025  10.958   8.757
    1BCK1    B1 1491   5.905  11.141   9.118
    1BCK1    B1 1492   5.796  11.162   9.172
    1BCK1    B1 1493   5.494  11.438   9.072
    1BCK1    B1 1494   5.416  11.503   9.076
    1BCK1    B1 1495   9.488   8.661   3.557
    1BCK1    B1 1496   9.449   8.630   3.421
    1BCK1    B1 1497   9.807   8.301   3.381
    1BCK1    B1 1498   9.835   8.284   3.382
    1BCK1    B1 1499   9.931   7.971   2.523
    1BCK1    B1 1500   9.888   7.864   2.583
    1BCK1    B1 1501  10.268   7.657   2.736
    1BCK1    B1 1502  10.345   7.712   2.695
    1BCK1    B1 1503  10.360   7.409   2.314
    1BCK1    B1 1504  10.407   7.337   2.329
    1BCK1    B1 1505  10.740   7.406   2.716
    1BCK1    B1 1506  10.726   7.363   2.729
    1BCK1    B1 1507  10.812   6.912   2.740
    1BCK1    B1 1508  10.871   6.904   2.571
    1BCK1    B1 1509  10.999   6.744   3.257
    1BCK1    B1 1510  11.392   6.826   3.291
    1BCK1    B1 1511  11.501   6.837   3.305
    1BCK1    B1 1512  11.735   6.571   3.547
    1BCK1    B1 1513   9.690   0.372   6.681
    1BCK1    B1 1514   9.667   0.481   6.680
    1BCK1    B1 1515   9.275   0.602   6.858
    1BCK1    B1 1516   9.214   0.563   6.901
    1BCK1    B1 1517   8.577   1.217   6.847
    1BCK1    B1 1518   8.547   1.160   6.902
    1BCK1    B1 1519   8.750   1.309   7.336
    1BCK1    B1 1520   8.766   1.370   7.294
    1BCK1    B1 1521   8.419   1.670   7.231
    1BCK1    B1 1522   8.409   1.764   7.324
    1BCK1    B1 1523   8.783   1.736   7.617
    1BCK1    B1 1524   8.753   1.692   7.682
    1BCK1    B1 1525   8.581   2.122   7.853
    1BCK1    B1 1526   8.622   2.175   7.820
    1BCK1    B1 1527   9.360   2.218   8.264
    1BCK1    B1 1528   9.356   2.166   8.343
    1BCK1    B1 1529   9.396   2.379   8.756
    1BCK1    B1 1530   9.428   2.312   8.830
    1BCK1    B1 1531   9.349   0.347   8.571
    1BCK1    B1 1532   9.288   0.322   8.430
    1BCK1    B1 1533   8.979   0.271   8.218
    1BCK1    B1 1534   8.903   0.068   8.200
    1BCK1    B1 1535   9.202  11.986   7.820
    1BCK1    B1 1536   9.086  11.985   7.760
    1BCK1    B1 1537   8.717  11.856   7.762
    1BCK1    B1 1538   8.709  11.644   7.820
    1BCK1    B1 1539   8.695  11.369   7.612
    1BCK1    B1 1540   8.697  11.362   7.390
    1BCK1    B1 1541   8.680  11.613   7.160
    1BCK1    B1 1542   8.671  11.858   7.256
    1BCK1    B1 1543   9.034  11.937   7.285
    1BCK1    B1 1544   9.175  11.872   7.248
    1BCK1    B1 1545   9.102   0.043   6.815
    1BCK1    B1 1546   9.171   0.083   6.784
    1BCK1    B1 1547   9.236   0.342   6.422
    1BCK1    B1 1548   9.225   0.402   6.396
    1BCK1    B1 1549   9.616   3.401   2.761
    1BCK1    B1 1550   9.497   3.573   2.815
    1BCK1    B1 1551   9.374   3.844   2.865
    1BCK1    B1 1552   9.086   3.797   2.994
    1BCK1    B1 1553   8.910   3.811   3.065
    1BCK1    B1 1554   8.971   4.260   2.975
    1BCK1    B1 1555   8.705   4.256   3.079
    1BCK1    B1 1556   8.525   4.213   3.206
    1BCK1    B1 1557   8.255   4.343   3.309
    1BCK1    B1 1558   8.256   4.641   3.295
    1BCK1    B1 1559   8.525   4.774   3.199
    1BCK1    B1 1560   8.707   4.741   3.075
    1BCK1    B1 1561   8.973   4.737   2.973
    1BCK1    B1 1562   8.913   5.186   3.059
    1BCK1    B1 1563   9.089   5.199   2.992
    1BCK1    B1 1564   9.376   5.156   2.863
    1BCK1    B1 1565   9.498   5.427   2.814
    1BCK1    B1 1566   9.617   5.599   2.760
    1BCK1    B1 1567   8.516   8.547  11.793
    1BCK1    B1 1568   8.435   8.629  11.662
    1BCK1    B1 1569   8.309   8.774  11.390
    1BCK1    B1 1570   8.228   8.885  11.272
    1BCK1    B1 1571   7.960   9.007  11.105
    1BCK1    B1 1572   7.898   9.053  10.922
    1BCK1    B1 1573   8.053   9.271  10.683
    1BCK1    B1 1574   7.958   9.432  10.589
    1BCK1    B1 1575   7.613   9.447  10.508
    1BCK1    B1 1576   7.492   9.447  10.386
    1BCK1    B1 1577   7.410   9.428  10.042
    1BCK1    B1 1578   7.316   9.267   9.947
    1BCK1    B1 1579   7.072   9.051  10.096
    1BCK1    B1 1580   6.892   9.006  10.040
    1BCK1    B1 1581   6.747   8.843   9.756
    1BCK1    B1 1582   6.620   8.776   9.687
    1BCK1    B1 1583   6.330   8.624   9.576
    1BCK1    B1 1584   6.230   8.536   9.483
    1BCK1    B1 1585   9.195   2.306   9.322
    1BCK1    B1 1586   9.352   2.254   9.465
    1BCK1    B1 1587   9.558   2.193   9.639
    1BCK1    B1 1588   9.729   2.155   9.769
    1BCK1    B1 1589   9.937   2.111   9.923
    1BCK1    B1 1590  10.103   2.051  10.049
    1BCK1    B1 1591  10.296   1.983  10.202
    1BCK1    B1 1592  10.458   1.916  10.329
    1BCK1    B1 1593  10.625   1.796  10.482
    1BCK1    B1 1594  10.740   1.666  10.610
    1BCK1    B1 1595  10.872   1.495  10.746
    1BCK1    B1 1596  10.964   1.337  10.860
    1BCK1    B1 1597  11.034   1.121  10.987
    1BCK1    B1 1598  11.096   0.943  11.084
    1BCK1    B1 1599  11.170   0.717  11.203
    1BCK1    B1 1600  11.226   0.537  11.300
    1BCK1    B1 1601  11.310   0.301  11.422
    1BCK1    B1 1602  11.382   0.125  11.516
    1BCK1    B1 1603   8.069   6.291  11.939
    1BCK1    B1 1604   7.837   6.204  11.935
    1BCK1    B1 1605   7.596   6.120  11.966
    1BCK1    B1 1606   7.335   6.037  11.987
    1BCK1    B1 1607   7.115   5.986  11.999
    1BCK1    B1 1608   6.826   5.900   0.014
    1BCK1    B1 1609   6.672   5.761   0.023
    1BCK1    B1 1610   6.324   5.716   0.052
    1BCK1    B1 1611   6.188   5.724   0.118
    1BCK1    B1 1612   5.816   5.729   0.139
    1BCK1    B1 1613   5.676   5.714   0.083
    1BCK1    B1 1614   5.326   5.761   0.060
    1BCK1    B1 1615   5.175   5.898   0.036
    1BCK1    B1 1616   4.881   5.986   0.005
    1BCK1    B1 1617   4.668   6.036  11.993
    1BCK1    B1 1618   4.394   6.125  11.972
    1BCK1    B1 1619   4.170   6.205  11.956
    1BCK1    B1 1620   3.907   6.307  11.948
    1BCK1    B1 1621  11.231   5.795   3.010
    1BCK1    B1 1622  11.245   5.837   3.150
    1BCK1    B1 1623  11.155   5.937   3.487
    1BCK1    B1 1624  11.144   5.934   3.626
    1BCK1    B1 1625  11.166   6.022   3.976
    1BCK1    B1 1626  11.082   6.106   4.082
    1BCK1    B1 1627  10.857   6.119   4.366
    1BCK1    B1 1628  10.904   6.126   4.542
    1BCK1    B1 1629  11.044   6.204   4.833
    1BCK1    B1 1630  10.835   6.202   5.038
    1BCK1    B1 1631  10.552   6.126   4.898
    1BCK1    B1 1632  10.367   6.111   4.859
    1BCK1    B1 1633  10.101   6.080   5.080
    1BCK1    B1 1634   9.972   5.998   5.159
    1BCK1    B1 1635   9.644   5.913   5.136
    1BCK1    B1 1636   9.475   5.910   5.151
    1BCK1    B1 1637   9.165   5.827   5.223
    1BCK1    B1 1638   9.005   5.817   5.328
    1BCK1    B1 1639   9.026  11.291   0.027
    1BCK1    B1 1640   8.837  11.184   0.022
    1BCK1    B1 1641   8.529  11.215   0.040
    1BCK1    B1 1642   8.337  11.163   0.044
    1BCK1    B1 1643   8.086  11.003  11.938
    1BCK1    B1 1644   7.894  10.968  11.916
    1BCK1    B1 1645   7.610  11.069   0.075
    1BCK1    B1 1646   7.430  11.076   0.074
    1BCK1    B1 1647   7.169  10.955  11.860
    1BCK1    B1 1648   7.043  10.831  11.859
    1BCK1    B1 1649   6.922  10.570   0.073
    1BCK1    B1 1650   6.931  10.390   0.074
    1BCK1    B1 1651   7.032  10.106  11.916
    1BCK1    B1 1652   6.997   9.914  11.938
    1BCK1    B1 1653   6.837   9.663   0.044
    1BCK1    B1 1654   6.785   9.472   0.040
    1BCK1    B1 1655   6.814   9.163   0.021
    1BCK1    B1 1656   6.710   8.975   0.025
    1HEX     C0 1657   0.004   0.008  11.995
    1HB      S1 1658   0.385   0.001  11.975
    1HB      S2 1659  11.630   0.005  11.986
    1HB      S3 1660   0.006   0.378  12.000
    1HB      S4 1661   0.018  11.615  11.974
    1HB      S5 1662   0.015  11.984   0.334
    1HB      S6 1663   0.008   0.002  11.630
    1HEX     C0 1664  11.994   0.012   3.000
    1HB      S1 1665   0.377   0.004   3.014
    1HB      S2 1666  11.626   0.006   3.012
    1HB      S3 1667  11.991   0.379   2.997
    1HB      S4 1668  11.998  11.619   3.017
    1HB      S5 1669   0.002  11.997   3.368
    1HB      S6 1670   0.009  11.987   2.662
    1HEX     C0 1671  11.993   0.006   5.991
    1HB      S1 1672   0.368   0.003   6.001
    1HB      S2 1673  11.628   0.007   5.984
    1HB      S3 1674  11.993   0.374   5.993
    1HB      S4 1675  11.997  11.634   5.999
    1HB      S5 1676  11.993   0.009   6.370
    1HB      S6 1677   0.008  12.000   5.627
    1HEX     C0 1678   0.005   0.006   9.012
    1HB      S1 1679   0.376   0.009   9.012
    1HB      S2 1680  11.633   0.003   9.006
    1HB      S3 1681   0.010   0.376   9.017
    1HB      S4 1682   0.003  11.632   9.003
    1HB      S5 1683   0.010   0.001   9.372
    1HB      S6 1684   0.003   0.004   8.635
    1HEX     C0 1685   0.013   3.031  11.998
    1HB      S1 1686   0.381   3.038   0.003
    1HB      S2 1687  11.624   2.998  12.000
    1HB      S3 1688  11.978   3.365  11.979
    1HB      S4 1689   0.007   2.636   0.006
    1HB      S5 1690   0.007   3.019   0.367
    1HB      S6 1691   0.003   2.997  11.646
    1HEX     C0 1692   0.007   2.981   3.004
    1HB      S1 1693   0.334   3.013   3.009
    1HB      S2 1694  11.636   2.975   3.004
    1HB      S3 1695  11.980   3.376   3.001
    1HB      S4 1696   0.027   2.614   3.003
    1HB      S5 1697  11.990   2.980   3.381
    1HB      S6 1698  11.997   2.989   2.623
    1HEX     C0 1699   0.018   3.013   6.005
    1HB      S1 1700   0.330   2.994   6.000
    1HB      S2 1701  11.636   3.005   6.006
    1HB      S3 1702   0.020   3.392   6.004
    1HB      S4 1703  11.994   2.625   6.011
    1HB      S5 1704  11.995   3.011   6.384
    1HB      S6 1705  11.992   3.019   5.622
    1HEX     C0 1706  11.989   3.006   9.012
    1HB      S1 1707   0.376   3.004   9.003
    1HB      S2 1708  11.649   3.018   8.997
    1HB      S3 1709   0.007   3.385   9.013
    1HB      S4 1710  11.995   2.627   8.998
    1HB      S5 1711   0.003   3.001   9.354
    1HB      S6 1712   0.006   3.004   8.631
    1HEX     C0 1713   0.006   5.986  11.993
    1HB      S1 1714   0.400   6.006   0.007
    1HB      S2 1715  11.634   5.980   0.008
    1HB      S3 1716   0.009   6.378  11.988
    1HB      S4 1717   0.047   5.647  11.981
    1HB      S5 1718   0.008   5.992   0.364
    1HB      S6 1719   0.013   6.005  11.653
    1HEX     C0 1720  11.983   6.004   2.992
    1HB      S1 1721   0.360   6.000   2.984
    1HB      S2 1722  11.673   6.028   2.982
    1HB      S3 1723  12.000   6.401   3.008
    1HB      S4 1724  11.994   5.631   2.987
    1HB      S5 1725  11.992   6.011   3.374
    1HB      S6 1726   0.002   6.007   2.610
    1HEX     C0 1727  11.904   6.000   5.889
    1HB      S1 1728   0.476   6.000   5.848
    1HB      S2 1729  11.626   6.000   6.040
    1HB      S3 1730  11.866   6.402   5.841
    1HB      S4 1731  11.866   5.598   5.841
    1HB      S5 1732  11.825   6.000   6.509
    1HB      S6 1733   0.039   6.000   5.583
    1HEX     C0 1734   0.000   6.006   9.015
    1HB      S1 1735   0.383   6.005   8.997
    1HB      S2 1736  11.621   5.999   9.001
    1HB      S3 1737   0.006   6.376   9.025
    1HB      S4 1738  11.999   5.614   8.979
    1HB      S5 1739   0.002   5.970   9.338
    1HB      S6 1740   0.000   6.006   8.638
    1HEX     C0 1741   0.002   8.997   0.001
    1HB      S1 1742   0.372   8.995   0.002
    1HB      S2 1743  11.631   8.998   0.001
    1HB      S3 1744   0.001   9.369   0.001
    1HB      S4 1745   0.005   8.624   0.004
    1HB      S5 1746   0.002   8.996   0.371
    1HB      S6 1747   0.001   8.998  11.631
    1HEX     C0 1748  11.995   9.000   3.003
    1HB      S1 1749   0.309   9.019   2.996
    1HB      S2 1750  11.663   8.998   2.991
    1HB      S3 1751  11.967   9.400   3.007
    1HB      S4 1752   0.008   8.614   3.001
    1HB      S5 1753  11.984   9.009   3.384
    1HB      S6 1754  11.986   9.002   2.607
    1HEX     C0 1755  11.994   8.995   6.011
    1HB      S1 1756   0.374   8.997   5.994
    1HB      S2 1757  11.615   8.990   6.008
    1HB      S3 1758  11.997   9.376   5.992
    1HB      S4 1759  11.992   8.617   6.000
    1HB      S5 1760  11.995   9.003   6.338
    1HB      S6 1761  11.995   8.996   5.635
    1HEX     C0 1762  11.973   8.984   8.957
    1HB      S1 1763   0.377   8.999   9.012
    1HB      S2 1764  11.642   8.985   8.991
    1HB      S3 1765  11.977   9.373   9.009
    1HB      S4 1766   0.012   8.628   9.000
    1HB      S5 1767  11.997   8.997   9.370
    1HB      S6 1768   0.040   9.051   8.637
    1HEX     C0 1769   3.004  11.993  11.994
    1HB      S1 1770   3.377  11.995  11.989
    1HB      S2 1771   2.612   0.028   0.001
    1HB      S3 1772   2.996   0.373  11.995
    1HB      S4 1773   2.981  11.679  11.997
    1HB      S5 1774   2.999   0.017   0.378
    1HB      S6 1775   3.008   0.010  11.615
    1HEX     C0 1776   3.009  11.992   3.020
    1HB      S1 1777   3.376  11.983   3.016
    1HB      S2 1778   2.627  11.996   2.996
    1HB      S3 1779   3.004   0.367   3.009
    1HB      S4 1780   3.011  11.612   3.000
    1HB      S5 1781   2.990  11.981   3.351
    1HB      S6 1782   3.005  11.997   2.637
    1HEX     C0 1783   3.003  11.999   5.998
    1HB      S1 1784   3.376  11.996   5.994
    1HB      S2 1785   2.631  11.999   5.999
    1HB      S3 1786   3.002   0.369   5.999
    1HB      S4 1787   3.003  11.629   5.998
    1HB      S5 1788   3.002  11.999   6.369
    1HB      S6 1789   3.007  11.998   5.627
    1HEX     C0 1790   3.017  11.966   9.014
    1HB      S1 1791   3.363   0.004   9.005
    1HB      S2 1792   2.628   0.001   9.002
    1HB      S3 1793   2.998   0.368   9.005
    1HB      S4 1794   2.971  11.621   8.978
    1HB      S5 1795   3.002  11.977   9.368
    1HB      S6 1796   3.003   0.003   8.627
    1HEX     C0 1797   3.000   3.001  12.000
    1HB      S1 1798   3.370   3.002  12.000
    1HB      S2 1799   2.630   3.002  12.000
    1HB      S3 1800   2.999   3.377  11.997
    1HB      S4 1801   3.000   2.630  12.000
    1HB      S5 1802   3.000   3.002   0.370
    1HB      S6 1803   3.000   3.002  11.629
    1HEX     C0 1804   2.991   2.997   3.001
    1HB      S1 1805   3.369   3.003   2.999
    1HB      S2 1806   2.667   3.019   3.009
    1HB      S3 1807   3.023   3.387   2.996
    1HB      S4 1808   2.984   2.622   3.008
    1HB      S5 1809   3.008   2.998   3.380
    1HB      S6 1810   3.008   3.001   2.625
    1HEX     C0 1811   2.969   3.114   6.083
    1HB      S1 1812   3.385   3.165   6.111
    1HB      S2 1813   2.739   3.089   6.092
    1HB      S3 1814   3.014   3.482   5.943
    1HB      S4 1815   2.978   2.510   6.216
    1HB      S5 1816   3.067   2.944   6.441
    1HB      S6 1817   3.004   3.151   5.546
    1HEX     C0 1818   2.995   3.106   9.138
    1HB      S1 1819   3.355   3.087   9.164
    1HB      S2 1820   2.606   3.071   9.153
    1HB      S3 1821   2.976   3.364   8.966
    1HB      S4 1822   3.002   2.561   9.142
    1HB      S5 1823   2.977   2.973   9.473
    1HB      S6 1824   3.000   3.196   8.455
    1HEX     C0 1825   2.916   5.983  11.843
    1HB      S1 1826   3.448   6.007  11.875
    1HB      S2 1827   2.694   5.990   0.034
    1HB      S3 1828   2.912   6.408  11.817
    1HB      S4 1829   2.937   5.597  11.807
    1HB      S5 1830   2.817   6.006   0.572
    1HB      S6 1831   3.047   6.004  11.548
    1HEX     C0 1832   3.007   6.006   3.003
    1HB      S1 1833   3.341   5.991   3.011
    1HB      S2 1834   2.628   6.005   3.001
    1HB      S3 1835   3.012   6.378   3.009
    1HB      S4 1836   2.986   5.624   3.002
    1HB      S5 1837   2.990   6.002   3.381
    1HB      S6 1838   2.990   6.006   2.626
    1HEX     C0 1839   3.000   6.010   6.022
    1HB      S1 1840   3.396   6.006   5.982
    1HB      S2 1841   2.624   6.012   6.022
    1HB      S3 1842   3.002   6.382   6.022
    1HB      S4 1843   3.002   5.618   5.982
    1HB      S5 1844   3.034   5.986   6.324
    1HB      S6 1845   3.003   6.005   5.640
    1HEX     C0 1846   2.982   6.130   9.097
    1HB      S1 1847   3.413   6.178   9.126
    1HB      S2 1848   2.612   6.171   9.110
    1HB      S3 1849   3.024   6.493   9.028
    1HB      S4 1850   3.025   5.465   9.162
    1HB      S5 1851   3.011   5.955   9.347
    1HB      S6 1852   2.941   6.190   8.656
    1HEX     C0 1853   3.011   9.010  11.988
    1HB      S1 1854   3.382   9.007  11.976
    1HB      S2 1855   2.619   8.974  11.999
    1HB      S3 1856   2.987   9.320  11.997
    1HB      S4 1857   3.011   8.622  11.996
    1HB      S5 1858   3.009   8.975   0.375
    1HB      S6 1859   2.995   8.987  11.621
    1HEX     C0 1860   2.987   8.995   2.998
    1HB      S1 1861   3.363   8.994   2.999
    1HB      S2 1862   2.681   9.018   2.988
    1HB      S3 1863   3.021   9.388   2.996
    1HB      S4 1864   2.984   8.617   3.002
    1HB      S5 1865   3.005   8.998   3.377
    1HB      S6 1866   3.012   9.002   2.611
    1HEX     C0 1867   3.006   8.992   6.006
    1HB      S1 1868   3.374   8.990   6.006
    1HB      S2 1869   2.634   8.995   6.003
    1HB      S3 1870   3.003   9.366   6.004
    1HB      S4 1871   3.008   8.618   6.012
    1HB      S5 1872   3.009   8.985   6.375
    1HB      S6 1873   3.003   8.995   5.634
    1HEX     C0 1874   3.001   9.001   8.998
    1HB      S1 1875   3.375   9.005   8.999
    1HB      S2 1876   2.628   8.991   8.996
    1HB      S3 1877   3.001   9.363   8.994
    1HB      S4 1878   3.004   8.621   8.989
    1HB      S5 1879   3.002   9.002   9.364
    1HB      S6 1880   2.997   8.987   8.628
    1HEX     C0 1881   6.006   0.004   0.010
    1HB      S1 1882   6.373   0.002   0.011
    1HB      S2 1883   5.634   0.000   0.002
    1HB      S3 1884   6.006   0.371   0.017
    1HB      S4 1885   6.006  11.626  11.997
    1HB      S5 1886   6.000  11.990   0.374
    1HB      S6 1887   6.005  11.998  11.633
    1HEX     C0 1888   6.021   0.001   3.012
    1HB      S1 1889   6.399   0.004   3.011
    1HB      S2 1890   5.634  11.988   3.006
    1HB      S3 1891   6.013   0.327   3.004
    1HB      S4 1892   6.033  11.627   3.019
    1HB      S5 1893   6.031  11.994   3.383
    1HB      S6 1894   6.010  11.986   2.631
    1HEX     C0 1895   6.001   0.002   5.997
    1HB      S1 1896   6.371   0.002   5.996
    1HB      S2 1897   5.631   0.001   5.998
    1HB      S3 1898   6.002   0.372   5.995
    1HB      S4 1899   6.001  11.631   5.998
    1HB      S5 1900   6.001   0.001   6.369
    1HB      S6 1901   6.004   0.005   5.624
    1HEX     C0 1902   6.004  11.991   8.999
    1HB      S1 1903   6.352  11.984   9.014
    1HB      S2 1904   5.624  11.982   9.001
    1HB      S3 1905   6.002   0.366   9.000
    1HB      S4 1906   5.990  11.623   8.995
    1HB      S5 1907   5.989  11.993   9.374
    1HB      S6 1908   6.002  11.996   8.631
    1HEX     C0 1909   5.998   3.002  11.989
    1HB      S1 1910   6.375   3.000   0.004
    1HB      S2 1911   5.628   3.001  11.992
    1HB      S3 1912   5.999   3.371  11.993
    1HB      S4 1913   5.999   2.625   0.005
    1HB      S5 1914   5.998   3.001   0.368
    1HB      S6 1915   6.010   2.988  11.642
    1HEX     C0 1916   6.018   2.996   3.017
    1HB      S1 1917   6.350   3.004   3.010
    1HB      S2 1918   5.629   3.015   3.010
    1HB      S3 1919   6.003   3.381   3.025
    1HB      S4 1920   5.992   2.666   3.008
    1HB      S5 1921   6.014   3.007   3.392
    1HB      S6 1922   5.999   3.011   2.628
    1HEX     C0 1923   6.018   2.985   6.013
    1HB      S1 1924   6.377   3.007   5.993
    1HB      S2 1925   5.628   3.001   6.007
    1HB      S3 1926   6.001   3.367   6.004
    1HB      S4 1927   6.001   2.627   5.998
    1HB      S5 1928   6.020   2.990   6.373
    1HB      S6 1929   6.000   2.999   5.632
    1HEX     C0 1930   5.984   3.003   8.994
    1HB      S1 1931   6.362   3.001   8.997
    1HB      S2 1932   5.612   2.993   9.021
    1HB      S3 1933   5.978   3.369   8.994
    1HB      S4 1934   5.985   2.630   9.002
    1HB      S5 1935   5.994   3.001   9.370
    1HB      S6 1936   5.978   3.003   8.632
    1HEX     C0 1937   6.000   6.156  11.936
    1HB      S1 1938   6.413   6.194  11.911
    1HB      S2 1939   5.591   6.189  11.934
    1HB      S3 1940   6.002   6.464   0.038
    1HB      S4 1941   5.986   5.356  11.843
    1HB      S5 1942   6.023   6.108   0.393
    1HB      S6 1943   6.003   5.961  11.696
    1HEX     C0 1944   5.986   6.007   3.001
    1HB      S1 1945   6.363   6.006   2.999
    1HB      S2 1946   5.653   5.992   3.004
    1HB      S3 1947   5.981   6.380   3.007
    1HB      S4 1948   6.008   5.624   3.000
    1HB      S5 1949   5.999   6.006   3.377
    1HB      S6 1950   5.995   6.006   2.624
    1HEX     C0 1951   6.004   5.993   6.002
    1HB      S1 1952   6.381   5.977   6.001
    1HB      S2 1953   5.634   5.995   6.005
    1HB      S3 1954   6.004   6.364   6.001
    1HB      S4 1955   6.020   5.610   5.994
    1HB      S5 1956   6.000   5.995   6.371
    1HB      S6 1957   6.009   5.984   5.632
    1HEX     C0 1958   6.002   6.009   8.998
    1HB      S1 1959   6.379   6.013   9.021
    1HB      S2 1960   5.629   6.007   8.996
    1HB      S3 1961   6.002   6.375   9.000
    1HB      S4 1962   6.001   5.632   9.009
    1HB      S5 1963   6.010   6.012   9.378
    1HB      S6 1964   6.019   5.995   8.647
    1HEX     C0 1965   6.005   9.000  11.997
    1HB      S1 1966   6.344   8.986  11.994
    1HB      S2 1967   5.622   8.995  11.990
    1HB      S3 1968   6.000   9.371  11.997
    1HB      S4 1969   5.983   8.620  11.995
    1HB      S5 1970   5.994   8.999   0.370
    1HB      S6 1971   5.984   9.001  11.621
    1HEX     C0 1972   5.985   8.997   3.004
    1HB      S1 1973   6.366   9.010   3.001
    1HB      S2 1974   5.619   9.002   3.002
    1HB      S3 1975   5.978   9.375   3.013
    1HB      S4 1976   6.004   8.648   3.011
    1HB      S5 1977   5.985   9.015   3.378
    1HB      S6 1978   5.989   8.994   2.629
    1HEX     C0 1979   6.008   8.992   5.996
    1HB      S1 1980   6.381   9.011   6.000
    1HB      S2 1981   5.636   8.991   5.996
    1HB      S3 1982   6.007   9.368   5.997
    1HB      S4 1983   6.022   8.644   5.987
    1HB      S5 1984   6.003   8.993   6.369
    1HB      S6 1985   6.024   9.010   5.621
    1HEX     C0 1986   6.001   9.003   9.012
    1HB      S1 1987   6.377   8.990   9.019
    1HB      S2 1988   5.628   9.016   9.008
    1HB      S3 1989   5.998   9.371   9.003
    1HB      S4 1990   6.010   8.628   9.016
    1HB      S5 1991   6.008   8.999   9.379
    1HB      S6 1992   6.002   9.000   8.639
    1HEX     C0 1993   9.001  11.988   0.003
    1HB      S1 1994   9.383   0.005   0.008
    1HB      S2 1995   8.629  11.994   0.002
    1HB      S3 1996   9.001   0.366   0.002
    1HB      S4 1997   9.015  11.652   0.001
    1HB      S5 1998   9.010  11.998   0.379
    1HB      S6 1999   9.002   0.003  11.627
    1HEX     C0 2000   8.979   0.010   3.007
    1HB      S1 2001   9.362  11.997   3.003
    1HB      S2 2002   8.622  11.981   3.012
    1HB      S3 2003   8.976   0.337   2.994
    1HB      S4 2004   8.981  11.628   3.015
    1HB      S5 2005   8.990   0.010   3.383
    1HB      S6 2006   8.977  11.993   2.626
    1HEX     C0 2007   9.007   0.043   6.038
    1HB      S1 2008   9.348  11.990   6.052
    1HB      S2 2009   8.616   0.022   5.974
    1HB      S3 2010   9.015   0.375   5.950
    1HB      S4 2011   8.995  11.615   5.977
    1HB      S5 2012   8.928  11.953   6.352
    1HB      S6 2013   9.020  11.993   5.625
    1HEX     C0 2014   9.009   0.027   8.978
    1HB      S1 2015   9.383   0.035   8.988
    1HB      S2 2016   8.617   0.006   9.000
    1HB      S3 2017   8.990   0.358   8.982
    1HB      S4 2018   9.003  11.621   9.018
    1HB      S5 2019   9.004   0.008   9.362
    1HB      S6 2020   9.001  11.974   8.665
    1HEX     C0 2021   9.013   3.005   0.001
    1HB      S1 2022   9.355   2.993  11.985
    1HB      S2 2023   8.634   3.004   0.000
    1HB      S3 2024   9.012   3.378  11.996
    1HB      S4 2025   8.995   2.626  11.999
    1HB      S5 2026   9.007   3.003   0.369
    1HB      S6 2027   8.996   3.005  11.623
    1HEX     C0 2028   8.977   2.997   3.027
    1HB      S1 2029   9.386   3.010   3.013
    1HB      S2 2030   8.643   2.980   2.966
    1HB      S3 2031   9.000   3.320   3.009
    1HB      S4 2032   9.012   2.663   3.009
    1HB      S5 2033   9.027   2.994   3.400
    1HB      S6 2034   9.015   2.994   2.616
    1HEX     C0 2035   9.007   3.005   6.012
    1HB      S1 2036   9.372   3.005   6.017
    1HB      S2 2037   8.631   3.002   6.002
    1HB      S3 2038   9.005   3.372   6.013
    1HB      S4 2039   9.002   2.632   6.004
    1HB      S5 2040   8.992   2.999   6.376
    1HB      S6 2041   9.003   3.003   5.634
    1HEX     C0 2042   8.996   2.974   8.984
    1HB      S1 2043   9.386   2.997   8.988
    1HB      S2 2044   8.628   2.968   8.974
    1HB      S3 2045   8.992   3.354   8.983
    1HB      S4 2046   9.021   2.652   9.007
    1HB      S5 2047   9.004   3.003   9.374
    1HB      S6 2048   9.003   2.980   8.617
    1HEX     C0 2049   8.989   6.011  11.994
    1HB      S1 2050   9.364   6.006  11.997
    1HB      S2 2051   8.615   6.011  11.990
    1HB      S3 2052   8.990   6.377  11.999
    1HB      S4 2053   8.994   5.639  11.997
    1HB      S5 2054   8.997   6.010   0.369
    1HB      S6 2055   8.978   6.018  11.623
    1HEX     C0 2056   9.007   5.988   2.998
    1HB      S1 2057   9.387   6.000   2.996
    1HB      S2 2058   8.624   6.007   2.999
    1HB      S3 2059   9.004   6.365   2.999
    1HB      S4 2060   9.007   5.676   2.994
    1HB      S5 2061   9.003   6.006   3.377
    1HB      S6 2062   9.006   6.007   2.618
    1HEX     C0 2063   9.006   6.008   5.992
    1HB      S1 2064   9.372   6.017   5.998
    1HB      S2 2065   8.620   5.998   6.003
    1HB      S3 2066   8.991   6.380   6.003
    1HB      S4 2067   9.002   5.634   5.995
    1HB      S5 2068   9.006   6.013   6.367
    1HB      S6 2069   8.983   6.015   5.647
    1HEX     C0 2070   8.997   5.983   9.000
    1HB      S1 2071   9.367   5.980   8.998
    1HB      S2 2072   8.622   5.996   9.005
    1HB      S3 2073   8.999   6.362   9.000
    1HB      S4 2074   8.978   5.621   9.005
    1HB      S5 2075   8.989   5.990   9.370
    1HB      S6 2076   9.000   5.984   8.632
    1HEX     C0 2077   8.990   8.993  11.994
    1HB      S1 2078   9.365   8.997  11.996
    1HB      S2 2079   8.619   8.995  11.991
    1HB      S3 2080   8.995   9.367  11.997
    1HB      S4 2081   8.988   8.626  11.994
    1HB      S5 2082   8.995   8.997   0.366
    1HB      S6 2083   8.984   8.991  11.625
    1HEX     C0 2084   9.022   8.990   3.007
    1HB      S1 2085   9.343   8.988   3.004
    1HB      S2 2086   8.636   9.007   3.006
    1HB      S3 2087   9.013   9.375   3.013
    1HB      S4 2088   8.986   8.631   3.033
    1HB      S5 2089   9.020   9.004   3.390
    1HB      S6 2090   9.000   8.987   2.630
    1HEX     C0 2091   8.986   9.001   5.984
    1HB      S1 2092   9.376   9.010   6.000
    1HB      S2 2093   8.630   8.951   6.068
    1HB      S3 2094   8.965   9.349   5.971
    1HB      S4 2095   9.028   8.623   6.003
    1HB      S5 2096   9.032   8.997   6.381
    1HB      S6 2097   9.026   8.974   5.621
    1HEX     C0 2098   9.014   8.992   8.982
    1HB      S1 2099   9.368   8.987   8.975
    1HB      S2 2100   8.631   9.001   9.000
    1HB      S3 2101   9.005   9.366   8.996
    1HB      S4 2102   9.005   8.628   8.984
    1HB      S5 2103   8.999   8.999   9.366
    1HB      S6 2104   9.005   9.007   8.619
  12.00000  12.00000  12.00000
