My System
 7940
    1STR   BCK1    1   0.731   4.266   4.565
    1STR    O03    2   0.721   4.354   4.650
    1STR    N04    3   0.851   4.261   4.500
    1STR    C05    4   0.944   4.177   4.431
    1STR    C06    5   1.085   4.199   4.456
    1STR    C07    6   1.193   4.124   4.395
    1STR    N08    7   1.333   4.150   4.418
    1STR    C09    8   1.445   4.077   4.383
    1STR    O0A    9   1.438   3.967   4.331
    1STR    O0B   10   1.572   4.136   4.411
    1STR    C0C   11   1.698   4.072   4.366
    1STR    C0D   12   1.713   4.096   4.214
    1STR    C0E   13   1.835   4.111   4.438
    1STR    O0F   14   1.957   4.047   4.386
    1STR    C0G   15   2.086   4.069   4.454
    1STR    C0H   16   2.085   3.989   4.585
    1STR    C0I   17   2.216   4.029   4.372
    1STR    O0J   18   2.345   4.058   4.437
    1STR    C0K   19   2.470   4.016   4.372
    1STR    C0M   20   2.490   4.091   4.240
    1STR    C0N   21   2.600   4.037   4.459
    1STR    O0O   22   2.720   3.978   4.401
    1STR    C0P   23   2.840   4.045   4.386
    1STR    O0Q   24   2.857   4.165   4.405
    1STR    N0R   25   2.938   3.959   4.353
    1STR    C0S   26   3.077   3.970   4.326
    1STR    C0T   27   3.151   3.851   4.346
    1STR    C0U   28   3.290   3.846   4.322
    1STR    C0V   29   3.360   3.959   4.276
    1STR    C0W   30   3.511   3.948   4.267
    1STR    C0X   31   3.290   4.079   4.249
    1STR    N0Y   32   3.361   4.196   4.213
    1STR   BCK2   33   3.460   4.225   4.127
    1STR    O10   34   3.532   4.321   4.151
    1STR    C13   35   3.149   4.084   4.278
    1STR    C14   36   1.151   4.024   4.305
    1STR    C15   37   1.015   4.002   4.276
    1STR    C16   38   0.912   4.078   4.334
    1STR    C17   39   0.773   4.054   4.278
    1STR    H1B   40   0.892   4.350   4.524
    1STR    H1C   41   1.112   4.277   4.526
    1STR    H1D   42   1.357   4.236   4.465
    1STR    H1E   43   1.685   3.964   4.381
    1STR    H1F   44   1.729   4.201   4.192
    1STR    H1G   45   1.799   4.041   4.175
    1STR    H1H   46   1.626   4.062   4.159
    1STR    H1I   47   1.824   4.088   4.544
    1STR    H1J   48   1.848   4.219   4.432
    1STR    H1K   49   2.095   4.175   4.476
    1STR    H1M   50   2.071   3.883   4.566
    1STR    H1N   51   2.007   4.022   4.654
    1STR    H1O   52   2.180   4.001   4.638
    1STR    H1P   53   2.213   3.922   4.349
    1STR    H1Q   54   2.213   4.080   4.276
    1STR    H1R   55   2.462   3.909   4.352
    1STR    H1S   56   2.585   4.062   4.194
    1STR    H1T   57   2.495   4.199   4.257
    1STR    H1U   58   2.412   4.071   4.167
    1STR    H1V   59   2.586   3.991   4.557
    1STR    H1W   60   2.617   4.143   4.479
    1STR    H1X   61   2.901   3.866   4.352
    1STR    H1Y   62   3.104   3.762   4.383
    1STR    H1Z   63   3.344   3.755   4.342
    1STR    H20   64   3.541   3.921   4.166
    1STR    H21   65   3.561   4.041   4.295
    1STR    H22   66   3.550   3.870   4.333
    1STR    H23   67   3.340   4.277   4.270
    1STR    H27   68   3.094   4.176   4.264
    1STR    H28   69   1.222   3.963   4.252
    1STR    H29   70   0.991   3.926   4.203
    1STR    H2A   71   0.699   4.123   4.317
    1STR    H2B   72   0.742   3.952   4.296
    1STR    H2C   73   0.775   4.070   4.170
    1STR   BCK1   74   0.731   4.543   8.600
    1STR    O03   75   0.680   4.469   8.683
    1STR    N04   76   0.869   4.550   8.603
    1STR    C05   77   0.986   4.619   8.553
    1STR    C06   78   1.120   4.563   8.569
    1STR    C07   79   1.244   4.632   8.534
    1STR    N08   80   1.379   4.578   8.548
    1STR    C09   81   1.504   4.638   8.531
    1STR    O0A   82   1.515   4.757   8.505
    1STR    O0B   83   1.624   4.557   8.545
    1STR    C0C   84   1.762   4.618   8.538
    1STR    C0D   85   1.784   4.696   8.669
    1STR    C0E   86   1.894   4.528   8.510
    1STR    O0F   87   2.028   4.595   8.512
    1STR    C0G   88   2.155   4.523   8.478
    1STR    C0H   89   2.150   4.491   8.328
    1STR    C0I   90   2.296   4.597   8.511
    1STR    O0J   91   2.426   4.524   8.497
    1STR    C0K   92   2.557   4.591   8.523
    1STR    C0M   93   2.557   4.646   8.667
    1STR    C0N   94   2.696   4.509   8.505
    1STR    O0O   95   2.823   4.581   8.532
    1STR    C0P   96   2.950   4.518   8.553
    1STR    O0Q   97   2.965   4.397   8.562
    1STR    N0R   98   3.054   4.606   8.557
    1STR    C0S   99   3.198   4.605   8.565
    1STR    C0T  100   3.260   4.700   8.482
    1STR    C0U  101   3.398   4.727   8.490
    1STR    C0V  102   3.482   4.661   8.583
    1STR    C0W  103   3.624   4.712   8.591
    1STR    C0X  104   3.428   4.560   8.667
    1STR    N0Y  105   3.503   4.497   8.772
    1STR   BCK2  106   3.629   4.478   8.824
    1STR    O10  107   3.634   4.434   8.938
    1STR    C13  108   3.285   4.533   8.655
    1STR    C14  109   1.224   4.762   8.482
    1STR    C15  110   1.096   4.818   8.465
    1STR    C16  111   0.978   4.750   8.499
    1STR    C17  112   0.848   4.825   8.479
    1STR    H1B  113   0.894   4.482   8.672
    1STR    H1C  114   1.128   4.464   8.611
    1STR    H1D  115   1.387   4.482   8.574
    1STR    H1E  116   1.757   4.691   8.457
    1STR    H1F  117   1.790   4.629   8.755
    1STR    H1G  118   1.877   4.752   8.664
    1STR    H1H  119   1.704   4.767   8.687
    1STR    H1I  120   1.880   4.480   8.413
    1STR    H1J  121   1.897   4.447   8.583
    1STR    H1K  122   2.155   4.430   8.534
    1STR    H1M  123   2.138   4.582   8.268
    1STR    H1N  124   2.068   4.424   8.302
    1STR    H1O  125   2.242   4.442   8.295
    1STR    H1P  126   2.302   4.687   8.450
    1STR    H1Q  127   2.289   4.631   8.614
    1STR    H1R  128   2.563   4.676   8.454
    1STR    H1S  129   2.652   4.692   8.691
    1STR    H1T  130   2.542   4.565   8.739
    1STR    H1U  131   2.480   4.721   8.682
    1STR    H1V  132   2.703   4.472   8.403
    1STR    H1W  133   2.695   4.420   8.568
    1STR    H1X  134   3.016   4.698   8.541
    1STR    H1Y  135   3.203   4.758   8.411
    1STR    H1Z  136   3.440   4.803   8.426
    1STR    H20  137   3.652   4.731   8.695
    1STR    H21  138   3.693   4.640   8.546
    1STR    H22  139   3.638   4.806   8.538
    1STR    H23  140   3.443   4.452   8.838
    1STR    H27  141   3.240   4.459   8.719
    1STR    H28  142   1.306   4.825   8.452
    1STR    H29  143   1.090   4.919   8.426
    1STR    H2A  144   0.795   4.783   8.394
    1STR    H2B  145   0.865   4.930   8.457
    1STR    H2C  146   0.786   4.820   8.569
    1STR   BCK1  147   0.896  12.988  13.151
    1STR    O03  148   0.885  12.866  13.149
    1STR    N04  149   1.004  13.054  13.196
    1STR    C05  150   1.105  13.007  13.281
    1STR    C06  151   1.244  13.025  13.253
    1STR    C07  152   1.346  12.988  13.346
    1STR    N08  153   1.483  13.012  13.319
    1STR    C09  154   1.593  12.985  13.394
    1STR    O0A  155   1.590  12.929  13.503
    1STR    O0B  156   1.709  13.026  13.336
    1STR    C0C  157   1.836  12.994  13.399
    1STR    C0D  158   1.874  12.849  13.364
    1STR    C0E  159   1.949  13.092  13.362
    1STR    O0F  160   2.071  13.057  13.430
    1STR    C0G  161   2.185  13.141  13.407
    1STR    C0H  162   2.171  13.270  13.491
    1STR    C0I  163   2.315  13.065  13.444
    1STR    O0J  164   2.432  13.137  13.402
    1STR    C0K  165   2.559  13.074  13.427
    1STR    C0M  166   2.578  12.953  13.335
    1STR    C0N  167   2.672  13.177  13.403
    1STR    O0O  168   2.801  13.124  13.438
    1STR    C0P  169   2.900  13.107  13.347
    1STR    O0Q  170   2.889  13.122  13.226
    1STR    N0R  171   3.011  13.072  13.411
    1STR    C0S  172   3.142  13.041  13.369
    1STR    C0T  173   3.237  13.027  13.472
    1STR    C0U  174   3.369  12.989  13.444
    1STR    C0V  175   3.410  12.961  13.312
    1STR    C0W  176   3.550  12.906  13.294
    1STR    C0X  177   3.318  12.977  13.204
    1STR    N0Y  178   3.352  12.938  13.073
    1STR   BCK2  179   3.463  12.964  13.001
    1STR    O10  180   3.547  13.048  13.030
    1STR    C13  181   3.184  13.017  13.235
    1STR    C14  182   1.303  12.931  13.468
    1STR    C15  183   1.167  12.916  13.499
    1STR    C16  184   1.068  12.956  13.408
    1STR    C17  185   0.923  12.951  13.453
    1STR    H1B  186   1.001  13.154  13.181
    1STR    H1C  187   1.272  13.068  13.158
    1STR    H1D  188   1.507  13.056  13.232
    1STR    H1E  189   1.823  13.001  13.508
    1STR    H1F  190   1.888  12.836  13.256
    1STR    H1G  191   1.967  12.820  13.413
    1STR    H1H  192   1.797  12.779  13.396
    1STR    H1I  193   1.918  13.193  13.389
    1STR    H1J  194   1.966  13.091  13.254
    1STR    H1K  195   2.191  13.166  13.301
    1STR    H1M  196   2.158  13.247  13.597
    1STR    H1N  197   2.086  13.330  13.459
    1STR    H1O  198   2.260  13.332  13.481
    1STR    H1P  199   2.318  13.047  13.552
    1STR    H1Q  200   2.311  12.967  13.397
    1STR    H1R  201   2.563  13.042  13.532
    1STR    H1S  202   2.677  12.909  13.349
    1STR    H1T  203   2.571  12.982  13.230
    1STR    H1U  204   2.506  12.874  13.353
    1STR    H1V  205   2.655  13.265  13.465
    1STR    H1W  206   2.670  13.213  13.300
    1STR    H1X  207   2.994  13.070  13.510
    1STR    H1Y  208   3.210  13.045  13.575
    1STR    H1Z  209   3.438  12.977  13.526
    1STR    H20  210   3.553  12.830  13.216
    1STR    H21  211   3.618  12.987  13.266
    1STR    H22  212   3.588  12.861  13.385
    1STR    H23  213   3.284  12.882  13.025
    1STR    H27  214   3.112  13.028  13.155
    1STR    H28  215   1.371  12.899  13.545
    1STR    H29  216   1.138  12.875  13.594
    1STR    H2A  217   0.871  13.043  13.426
    1STR    H2B  218   0.915  12.941  13.561
    1STR    H2C  219   0.871  12.867  13.407
    1STR   BCK1  220   5.266   4.265   4.351
    1STR    O03  221   5.219   4.358   4.286
    1STR    N04  222   5.389   4.213   4.333
    1STR    C05  223   5.483   4.228   4.228
    1STR    C06  224   5.624   4.232   4.255
    1STR    C07  225   5.724   4.230   4.151
    1STR    N08  226   5.864   4.229   4.179
    1STR    C09  227   5.970   4.202   4.099
    1STR    O0A  228   5.959   4.169   3.981
    1STR    O0B  229   6.095   4.213   4.161
    1STR    C0C  230   6.219   4.199   4.084
    1STR    C0D  231   6.243   4.329   4.006
    1STR    C0E  232   6.346   4.162   4.170
    1STR    O0F  233   6.472   4.154   4.096
    1STR    C0G  234   6.593   4.112   4.167
    1STR    C0H  235   6.584   3.960   4.189
    1STR    C0I  236   6.727   4.149   4.090
    1STR    O0J  237   6.853   4.137   4.163
    1STR    C0K  238   6.977   4.178   4.095
    1STR    C0M  239   6.969   4.329   4.067
    1STR    C0N  240   7.114   4.150   4.169
    1STR    O0O  241   7.227   4.191   4.087
    1STR    C0P  242   7.358   4.199   4.132
    1STR    O0Q  243   7.394   4.179   4.247
    1STR    N0R  244   7.440   4.225   4.028
    1STR    C0S  245   7.579   4.220   4.004
    1STR    C0T  246   7.615   4.123   3.908
    1STR    C0U  247   7.740   4.127   3.844
    1STR    C0V  248   7.834   4.227   3.874
    1STR    C0W  249   7.955   4.237   3.783
    1STR    C0X  250   7.809   4.320   3.979
    1STR    N0Y  251   7.904   4.423   4.002
    1STR   BCK2  252   8.038   4.410   4.013
    1STR    O10  253   8.089   4.308   4.057
    1STR    C13  254   7.679   4.316   4.042
    1STR    C14  255   5.675   4.229   4.018
    1STR    C15  256   5.537   4.225   3.990
    1STR    C16  257   5.441   4.221   4.093
    1STR    C17  258   5.296   4.201   4.051
    1STR    H1B  259   5.413   4.146   4.405
    1STR    H1C  260   5.656   4.235   4.358
    1STR    H1D  261   5.892   4.251   4.273
    1STR    H1E  262   6.204   4.118   4.012
    1STR    H1F  263   6.257   4.414   4.072
    1STR    H1G  264   6.333   4.320   3.944
    1STR    H1H  265   6.160   4.351   3.939
    1STR    H1I  266   6.326   4.066   4.218
    1STR    H1J  267   6.357   4.234   4.251
    1STR    H1K  268   6.596   4.163   4.263
    1STR    H1M  269   6.569   3.907   4.094
    1STR    H1N  270   6.502   3.933   4.255
    1STR    H1O  271   6.676   3.922   4.234
    1STR    H1P  272   6.733   4.089   3.999
    1STR    H1Q  273   6.714   4.252   4.057
    1STR    H1R  274   6.981   4.124   4.000
    1STR    H1S  275   7.063   4.367   4.027
    1STR    H1T  276   6.948   4.384   4.159
    1STR    H1U  277   6.893   4.354   3.993
    1STR    H1V  278   7.125   4.044   4.192
    1STR    H1W  279   7.119   4.202   4.265
    1STR    H1X  280   7.384   4.234   3.946
    1STR    H1Y  281   7.545   4.048   3.877
    1STR    H1Z  282   7.761   4.055   3.766
    1STR    H20  283   7.972   4.340   3.752
    1STR    H21  284   8.044   4.201   3.835
    1STR    H22  285   7.944   4.179   3.692
    1STR    H23  286   7.871   4.518   4.011
    1STR    H27  287   7.654   4.391   4.116
    1STR    H28  288   5.741   4.231   3.934
    1STR    H29  289   5.505   4.220   3.887
    1STR    H2A  290   5.242   4.137   4.121
    1STR    H2B  291   5.289   4.154   3.953
    1STR    H2C  292   5.245   4.297   4.045
    1STR   BCK1  293   5.282   8.716   4.451
    1STR    O03  294   5.256   8.735   4.569
    1STR    N04  295   5.390   8.767   4.388
    1STR    C05  296   5.484   8.862   4.434
    1STR    C06  297   5.626   8.845   4.415
    1STR    C07  298   5.724   8.944   4.454
    1STR    N08  299   5.864   8.927   4.431
    1STR    C09  300   5.972   9.005   4.464
    1STR    O0A  301   5.962   9.108   4.529
    1STR    O0B  302   6.096   8.957   4.420
    1STR    C0C  303   6.222   9.023   4.459
    1STR    C0D  304   6.253   8.983   4.604
    1STR    C0E  305   6.347   8.994   4.365
    1STR    O0F  306   6.476   9.050   4.407
    1STR    C0G  307   6.591   9.038   4.316
    1STR    C0H  308   6.570   9.138   4.201
    1STR    C0I  309   6.735   9.063   4.381
    1STR    O0J  310   6.851   9.032   4.296
    1STR    C0K  311   6.988   9.058   4.343
    1STR    C0M  312   7.012   8.979   4.473
    1STR    C0N  313   7.103   9.024   4.239
    1STR    O0O  314   7.239   9.069   4.272
    1STR    C0P  315   7.356   9.009   4.221
    1STR    O0Q  316   7.358   8.906   4.154
    1STR    N0R  317   7.466   9.075   4.261
    1STR    C0S  318   7.608   9.054   4.266
    1STR    C0T  319   7.664   9.105   4.384
    1STR    C0U  320   7.801   9.093   4.411
    1STR    C0V  321   7.890   9.033   4.320
    1STR    C0W  322   8.031   9.014   4.372
    1STR    C0X  323   7.843   8.989   4.192
    1STR    N0Y  324   7.930   8.936   4.091
    1STR   BCK2  325   8.062   8.950   4.061
    1STR    O10  326   8.138   9.033   4.111
    1STR    C13  327   7.699   8.996   4.170
    1STR    C14  328   5.672   9.060   4.516
    1STR    C15  329   5.534   9.080   4.533
    1STR    C16  330   5.440   8.985   4.490
    1STR    C17  331   5.292   9.023   4.501
    1STR    H1B  332   5.401   8.734   4.293
    1STR    H1C  333   5.660   8.754   4.369
    1STR    H1D  334   5.892   8.844   4.381
    1STR    H1E  335   6.204   9.131   4.457
    1STR    H1F  336   6.267   8.875   4.614
    1STR    H1G  337   6.343   9.033   4.640
    1STR    H1H  338   6.172   9.011   4.671
    1STR    H1I  339   6.321   9.031   4.266
    1STR    H1J  340   6.358   8.886   4.355
    1STR    H1K  341   6.592   8.937   4.277
    1STR    H1M  342   6.556   9.240   4.239
    1STR    H1N  343   6.483   9.114   4.140
    1STR    H1O  344   6.656   9.140   4.135
    1STR    H1P  345   6.741   9.167   4.414
    1STR    H1Q  346   6.740   9.003   4.472
    1STR    H1R  347   6.995   9.165   4.366
    1STR    H1S  348   7.115   8.989   4.506
    1STR    H1T  349   6.993   8.872   4.457
    1STR    H1U  350   6.949   9.012   4.555
    1STR    H1V  351   7.079   9.070   4.143
    1STR    H1W  352   7.105   8.916   4.220
    1STR    H1X  353   7.436   9.157   4.311
    1STR    H1Y  354   7.603   9.152   4.459
    1STR    H1Z  355   7.838   9.130   4.505
    1STR    H20  356   8.071   8.916   4.345
    1STR    H21  357   8.097   9.093   4.336
    1STR    H22  358   8.035   9.021   4.481
    1STR    H23  359   7.884   8.880   4.021
    1STR    H27  360   7.658   8.960   4.077
    1STR    H28  361   5.736   9.140   4.550
    1STR    H29  362   5.500   9.172   4.578
    1STR    H2A  363   5.235   8.984   4.416
    1STR    H2B  364   5.279   9.131   4.502
    1STR    H2C  365   5.249   8.984   4.593
    1STR   BCK1  366   9.597   4.295   4.438
    1STR    O03  367   9.554   4.386   4.367
    1STR    N04  368   9.727   4.263   4.424
    1STR    C05  369   9.819   4.161   4.459
    1STR    C06  370   9.958   4.195   4.463
    1STR    C07  371  10.062   4.098   4.481
    1STR    N08  372  10.200   4.135   4.480
    1STR    C09  373  10.311   4.058   4.491
    1STR    O0A  374  10.309   3.936   4.504
    1STR    O0B  375  10.428   4.129   4.487
    1STR    C0C  376  10.555   4.059   4.492
    1STR    C0D  377  10.588   4.001   4.353
    1STR    C0E  378  10.672   4.147   4.544
    1STR    O0F  379  10.795   4.072   4.554
    1STR    C0G  380  10.909   4.142   4.607
    1STR    C0H  381  10.895   4.151   4.760
    1STR    C0I  382  11.042   4.069   4.569
    1STR    O0J  383  11.158   4.148   4.602
    1STR    C0K  384  11.288   4.093   4.571
    1STR    C0M  385  11.307   4.084   4.419
    1STR    C0N  386  11.400   4.182   4.632
    1STR    O0O  387  11.531   4.124   4.613
    1STR    C0P  388  11.637   4.198   4.572
    1STR    O0Q  389  11.634   4.316   4.537
    1STR    N0R  390  11.747   4.122   4.575
    1STR    C0S  391  11.882   4.141   4.539
    1STR    C0T  392  11.966   4.030   4.563
    1STR    C0U  393  12.100   4.031   4.523
    1STR    C0V  394  12.155   4.142   4.457
    1STR    C0W  395  12.297   4.128   4.403
    1STR    C0X  396  12.076   4.258   4.436
    1STR    N0Y  397  12.129   4.366   4.363
    1STR   BCK2  398  12.245   4.431   4.382
    1STR    O10  399  12.314   4.423   4.483
    1STR    C13  400  11.939   4.256   4.476
    1STR    C14  401  10.021   3.964   4.498
    1STR    C15  402   9.886   3.928   4.495
    1STR    C16  403   9.785   4.023   4.474
    1STR    C17  404   9.645   3.968   4.462
    1STR    H1B  405   9.768   4.337   4.370
    1STR    H1C  406   9.986   4.298   4.450
    1STR    H1D  407  10.222   4.232   4.469
    1STR    H1E  408  10.545   3.976   4.563
    1STR    H1F  409  10.600   4.079   4.279
    1STR    H1G  410  10.680   3.943   4.357
    1STR    H1H  411  10.509   3.933   4.319
    1STR    H1I  412  10.644   4.187   4.642
    1STR    H1J  413  10.686   4.233   4.478
    1STR    H1K  414  10.914   4.242   4.564
    1STR    H1M  415  10.882   4.052   4.805
    1STR    H1N  416  10.810   4.212   4.790
    1STR    H1O  417  10.984   4.196   4.805
    1STR    H1P  418  11.047   3.972   4.619
    1STR    H1Q  419  11.039   4.049   4.462
    1STR    H1R  420  11.295   3.993   4.615
    1STR    H1S  421  11.408   4.049   4.395
    1STR    H1T  422  11.294   4.182   4.373
    1STR    H1U  423  11.238   4.014   4.372
    1STR    H1V  424  11.385   4.191   4.740
    1STR    H1W  425  11.395   4.283   4.592
    1STR    H1X  426  11.723   4.032   4.611
    1STR    H1Y  427  11.928   3.941   4.611
    1STR    H1Z  428  12.161   3.943   4.540
    1STR    H20  429  12.307   4.178   4.306
    1STR    H21  430  12.369   4.172   4.472
    1STR    H22  431  12.324   4.024   4.387
    1STR    H23  432  12.077   4.396   4.283
    1STR    H27  433  11.876   4.342   4.458
    1STR    H28  434  10.090   3.883   4.512
    1STR    H29  435   9.860   3.824   4.507
    1STR    H2A  436   9.594   3.977   4.558
    1STR    H2B  437   9.646   3.862   4.437
    1STR    H2C  438   9.589   4.018   4.383
    1STR   BCK1  439   9.380   4.173   8.422
    1STR    O03  440   9.342   4.101   8.514
    1STR    N04  441   9.513   4.212   8.432
    1STR    C05  442   9.616   4.302   8.389
    1STR    C06  443   9.757   4.268   8.407
    1STR    C07  444   9.870   4.359   8.387
    1STR    N08  445  10.011   4.327   8.410
    1STR    C09  446  10.127   4.393   8.373
    1STR    O0A  447  10.124   4.491   8.300
    1STR    O0B  448  10.254   4.343   8.422
    1STR    C0C  449  10.385   4.411   8.394
    1STR    C0D  450  10.390   4.543   8.473
    1STR    C0E  451  10.526   4.335   8.418
    1STR    O0F  452  10.654   4.406   8.387
    1STR    C0G  453  10.787   4.339   8.402
    1STR    C0H  454  10.797   4.229   8.295
    1STR    C0I  455  10.921   4.429   8.392
    1STR    O0J  456  11.052   4.361   8.412
    1STR    C0K  457  11.180   4.434   8.392
    1STR    C0M  458  11.192   4.548   8.494
    1STR    C0N  459  11.315   4.350   8.403
    1STR    O0O  460  11.437   4.423   8.366
    1STR    C0P  461  11.564   4.401   8.423
    1STR    O0Q  462  11.585   4.334   8.523
    1STR    N0R  463  11.661   4.461   8.351
    1STR    C0S  464  11.802   4.474   8.354
    1STR    C0T  465  11.861   4.499   8.228
    1STR    C0U  466  11.997   4.529   8.215
    1STR    C0V  467  12.081   4.541   8.326
    1STR    C0W  468  12.221   4.592   8.296
    1STR    C0X  469  12.031   4.512   8.457
    1STR    N0Y  470  12.104   4.530   8.577
    1STR   BCK2  471  12.230   4.546   8.627
    1STR    O10  472  12.240   4.587   8.742
    1STR    C13  473  11.891   4.478   8.468
    1STR    C14  474   9.832   4.489   8.348
    1STR    C15  475   9.697   4.526   8.331
    1STR    C16  476   9.590   4.437   8.352
    1STR    C17  477   9.451   4.498   8.344
    1STR    H1B  478   9.548   4.153   8.506
    1STR    H1C  479   9.780   4.168   8.440
    1STR    H1D  480  10.030   4.245   8.464
    1STR    H1E  481  10.382   4.437   8.288
    1STR    H1F  482  10.394   4.526   8.581
    1STR    H1G  483  10.479   4.601   8.446
    1STR    H1H  484  10.304   4.607   8.452
    1STR    H1I  485  10.523   4.243   8.359
    1STR    H1J  486  10.531   4.303   8.522
    1STR    H1K  487  10.789   4.293   8.501
    1STR    H1M  488  10.787   4.271   8.195
    1STR    H1N  489  10.720   4.152   8.307
    1STR    H1O  490  10.893   4.179   8.300
    1STR    H1P  491  10.923   4.478   8.295
    1STR    H1Q  492  10.913   4.509   8.465
    1STR    H1R  493  11.177   4.477   8.292
    1STR    H1S  494  11.285   4.602   8.480
    1STR    H1T  495  11.192   4.509   8.596
    1STR    H1U  496  11.111   4.621   8.485
    1STR    H1V  497  11.310   4.264   8.336
    1STR    H1W  498  11.328   4.309   8.503
    1STR    H1X  499  11.617   4.503   8.271
    1STR    H1Y  500  11.801   4.496   8.139
    1STR    H1Z  501  12.036   4.550   8.117
    1STR    H20  502  12.248   4.671   8.365
    1STR    H21  503  12.292   4.510   8.299
    1STR    H22  504  12.228   4.635   8.196
    1STR    H23  505  12.044   4.535   8.658
    1STR    H27  506  11.848   4.458   8.565
    1STR    H28  507   9.906   4.567   8.334
    1STR    H29  508   9.676   4.629   8.305
    1STR    H2A  509   9.371   4.425   8.344
    1STR    H2B  510   9.440   4.557   8.253
    1STR    H2C  511   9.435   4.564   8.429
    1STR   BCK1  512  13.772   4.217  12.972
    1STR    O03  513  13.728   4.169  13.075
    1STR    N04  514  13.898   4.276  12.965
    1STR    C05  515  13.996   4.312  13.067
    1STR    C06  516  14.142   4.311  13.049
    1STR    C07  517  14.241   4.349  13.151
    1STR    N08  518  14.386   4.359  13.135
    1STR    C09  519  14.489   4.391  13.225
    1STR    O0A  520  14.466   4.410  13.344
    1STR    O0B  521  14.626   4.401  13.178
    1STR    C0C  522  14.742   4.425  13.271
    1STR    C0D  523  14.767   4.296  13.351
    1STR    C0E  524  14.885   4.479  13.216
    1STR    O0F  525  15.006   4.475  13.305
    1STR    C0G  526  15.135   4.539  13.266
    1STR    C0H  527  15.119   4.691  13.287
    1STR    C0I  528  15.271   4.494  13.340
    1STR    O0J  529  15.401   4.547  13.288
    1STR    C0K  530  15.529   4.519  13.358
    1STR    C0M  531  15.553   4.368  13.367
    1STR    C0N  532  15.663   4.582  13.296
    1STR    O0O  533  15.787   4.559  13.373
    1STR    C0P  534  15.914   4.539  13.315
    1STR    O0Q  535  15.936   4.525  13.195
    1STR    N0R  536  16.011   4.538  13.409
    1STR    C0S  537  16.153   4.518  13.419
    1STR    C0T  538  16.205   4.548  13.547
    1STR    C0U  539  16.339   4.525  13.579
    1STR    C0V  540  16.430   4.473  13.485
    1STR    C0W  541  16.572   4.453  13.535
    1STR    C0X  542  16.387   4.446  13.352
    1STR    N0Y  543  16.476   4.413  13.246
    1STR   BCK2  544  16.602   4.366  13.218
    1STR    O10  545  16.642   4.382  13.103
    1STR    C13  546  16.247   4.469  13.322
    1STR    C14  547  14.183   4.382  13.276
    1STR    C15  548  14.044   4.390  13.295
    1STR    C16  549  13.952   4.364  13.192
    1STR    C17  550  13.809   4.404  13.223
    1STR    H1B  551  13.924   4.296  12.870
    1STR    H1C  552  14.179   4.280  12.952
    1STR    H1D  553  14.423   4.343  13.043
    1STR    H1E  554  14.707   4.499  13.343
    1STR    H1F  555  14.804   4.216  13.287
    1STR    H1G  556  14.842   4.313  13.429
    1STR    H1H  557  14.677   4.261  13.401
    1STR    H1I  558  14.870   4.582  13.184
    1STR    H1J  559  14.911   4.423  13.126
    1STR    H1K  560  15.150   4.519  13.160
    1STR    H1M  561  15.102   4.715  13.392
    1STR    H1N  562  15.037   4.733  13.229
    1STR    H1O  563  15.210   4.744  13.257
    1STR    H1P  564  15.264   4.521  13.446
    1STR    H1Q  565  15.276   4.385  13.338
    1STR    H1R  566  15.520   4.559  13.460
    1STR    H1S  567  15.648   4.347  13.417
    1STR    H1T  568  15.560   4.324  13.267
    1STR    H1U  569  15.475   4.316  13.422
    1STR    H1V  570  15.652   4.690  13.289
    1STR    H1W  571  15.678   4.547  13.194
    1STR    H1X  572  15.967   4.559  13.497
    1STR    H1Y  573  16.142   4.589  13.624
    1STR    H1Z  574  16.373   4.549  13.678
    1STR    H20  575  16.591   4.346  13.544
    1STR    H21  576  16.644   4.500  13.468
    1STR    H22  577  16.588   4.496  13.634
    1STR    H23  578  16.437   4.435  13.156
    1STR    H27  579  16.210   4.449  13.222
    1STR    H28  580  14.242   4.407  13.362
    1STR    H29  581  14.008   4.422  13.391
    1STR    H2A  582  13.747   4.416  13.135
    1STR    H2B  583  13.808   4.500  13.275
    1STR    H2C  584  13.765   4.331  13.291
    1STR   BCK1  585   0.127   0.823   4.511
    1STR    O03  586   0.081   0.811   4.624
    1STR    N04  587   0.148   0.952   4.471
    1STR    C05  588   0.202   1.038   4.372
    1STR    C06  589   0.188   1.180   4.392
    1STR    C07  590   0.244   1.281   4.306
    1STR    N08  591   0.228   1.422   4.330
    1STR    C09  592   0.290   1.530   4.275
    1STR    O0A  593   0.380   1.520   4.192
    1STR    O0B  594   0.244   1.655   4.319
    1STR    C0C  595   0.294   1.780   4.259
    1STR    C0D  596   0.228   1.798   4.121
    1STR    C0E  597   0.274   1.911   4.346
    1STR    O0F  598   0.320   2.036   4.283
    1STR    C0G  599   0.314   2.160   4.360
    1STR    C0H  600   0.426   2.157   4.465
    1STR    C0I  601   0.326   2.292   4.272
    1STR    O0J  602   0.300   2.419   4.341
    1STR    C0K  603   0.310   2.544   4.265
    1STR    C0M  604   0.205   2.546   4.153
    1STR    C0N  605   0.292   2.676   4.350
    1STR    O0O  606   0.312   2.799   4.274
    1STR    C0P  607   0.234   2.913   4.289
    1STR    O0Q  608   0.131   2.919   4.356
    1STR    N0R  609   0.288   3.017   4.224
    1STR    C0S  610   0.256   3.155   4.206
    1STR    C0T  611   0.367   3.239   4.180
    1STR    C0U  612   0.350   3.376   4.154
    1STR    C0V  613   0.223   3.436   4.152
    1STR    C0W  614   0.219   3.586   4.130
    1STR    C0X  615   0.107   3.357   4.176
    1STR    N0Y  616  17.415   3.409   4.186
    1STR   BCK2  617  17.335   3.513   4.150
    1STR    O10  618  17.222   3.514   4.199
    1STR    C13  619   0.127   3.217   4.205
    1STR    C14  620   0.314   1.232   4.194
    1STR    C15  621   0.330   1.094   4.171
    1STR    C16  622   0.276   0.997   4.258
    1STR    C17  623   0.303   0.853   4.223
    1STR    H1B  624   0.108   1.004   4.547
    1STR    H1C  625   0.132   1.214   4.478
    1STR    H1D  626   0.160   1.449   4.399
    1STR    H1E  627   0.401   1.768   4.244
    1STR    H1F  628   0.120   1.810   4.130
    1STR    H1G  629   0.268   1.886   4.071
    1STR    H1H  630   0.248   1.713   4.056
    1STR    H1I  631   0.325   1.896   4.441
    1STR    H1J  632   0.168   1.922   4.370
    1STR    H1K  633   0.217   2.165   4.410
    1STR    H1M  634   0.523   2.143   4.419
    1STR    H1N  635   0.412   2.078   4.538
    1STR    H1O  636   0.429   2.251   4.521
    1STR    H1P  637   0.426   2.295   4.227
    1STR    H1Q  638   0.257   2.281   4.189
    1STR    H1R  639   0.410   2.548   4.221
    1STR    H1S  640   0.208   2.641   4.100
    1STR    H1T  641   0.105   2.536   4.195
    1STR    H1U  642   0.221   2.469   4.079
    1STR    H1V  643   0.364   2.677   4.432
    1STR    H1W  644   0.194   2.677   4.398
    1STR    H1X  645   0.375   2.988   4.184
    1STR    H1Y  646   0.467   3.199   4.182
    1STR    H1Z  647   0.438   3.436   4.137
    1STR    H20  648   0.189   3.607   4.027
    1STR    H21  649   0.151   3.635   4.199
    1STR    H22  650   0.317   3.632   4.144
    1STR    H23  651  17.357   3.351   4.244
    1STR    H27  652   0.042   3.154   4.226
    1STR    H28  653   0.359   1.299   4.122
    1STR    H29  654   0.386   1.063   4.084
    1STR    H2A  655   0.355   0.804   4.306
    1STR    H2B  656   0.367   0.842   4.135
    1STR    H2C  657   0.210   0.801   4.201
    1STR   BCK1  658   0.043   5.151  17.188
    1STR    O03  659   0.162   5.133  17.168
    1STR    N04  660   0.007   5.277  17.225
    1STR    C05  661  17.338   5.363  17.257
    1STR    C06  662  17.352   5.505  17.234
    1STR    C07  663  17.254   5.604  17.272
    1STR    N08  664  17.277   5.745  17.260
    1STR    C09  665  17.191   5.851  17.271
    1STR    O0A  666  17.070   5.838  17.281
    1STR    O0B  667  17.252   5.979  17.270
    1STR    C0C  668  17.173   6.101  17.291
    1STR    C0D  669  17.134   6.111  -0.000
    1STR    C0E  670  17.241   6.237  17.246
    1STR    O0F  671  17.161   6.359  17.264
    1STR    C0G  672  17.213   6.485  17.211
    1STR    C0H  673  17.200   6.482  17.058
    1STR    C0I  674  17.141   6.616  17.265
    1STR    O0J  675  17.199   6.741  17.215
    1STR    C0K  676  17.134   6.868  17.248
    1STR    C0M  677  17.144   6.894  17.400
    1STR    C0N  678  17.194   6.993  17.172
    1STR    O0O  679  17.116   7.115  17.187
    1STR    C0P  680  17.172   7.241  17.188
    1STR    O0Q  681  17.292   7.266  17.185
    1STR    N0R  682  17.075   7.334  17.198
    1STR    C0S  683  17.072   7.474  17.223
    1STR    C0T  684  16.958   7.517  17.293
    1STR    C0U  685  16.943   7.651  17.334
    1STR    C0V  686  17.040   7.747  17.303
    1STR    C0W  687  17.031   7.883  17.372
    1STR    C0X  688  17.150   7.712  17.220
    1STR    N0Y  689  17.246   7.810  17.191
    1STR   BCK2  690  17.236   7.935  17.140
    1STR    O10  691  17.326   8.015  17.161
    1STR    C13  692  17.168   7.573  17.185
    1STR    C14  693  17.137   5.554  17.332
    1STR    C15  694  17.122   5.417  17.359
    1STR    C16  695  17.222   5.323  17.329
    1STR    C17  696  17.205   5.186  17.393
    1STR    H1B  697   0.094   5.327  17.227
    1STR    H1C  698   0.002   5.539  17.187
    1STR    H1D  699  17.371   5.775  17.244
    1STR    H1E  700  17.081   6.091  17.233
    1STR    H1F  701  17.221   6.122   0.064
    1STR    H1G  702  17.069   6.197   0.017
    1STR    H1H  703  17.079   6.023   0.033
    1STR    H1I  704  17.268   6.226  17.141
    1STR    H1J  705  17.335   6.249  17.300
    1STR    H1K  706  17.318   6.493  17.239
    1STR    H1M  707  17.097   6.466  17.028
    1STR    H1N  708  17.261   6.404  17.013
    1STR    H1O  709  17.233   6.577  17.015
    1STR    H1P  710  17.035   6.612  17.239
    1STR    H1Q  711  17.146   6.615  17.374
    1STR    H1R  712  17.029   6.861  17.220
    1STR    H1S  713  17.101   6.991  17.425
    1STR    H1T  714  17.248   6.896  17.432
    1STR    H1U  715  17.091   6.820   0.019
    1STR    H1V  716  17.200   6.972  17.066
    1STR    H1W  717  17.297   7.011  17.204
    1STR    H1X  718  16.986   7.289  17.195
    1STR    H1Y  719  16.881   7.447  17.322
    1STR    H1Z  720  16.858   7.678  17.395
    1STR    H20  721  17.127   7.909  17.416
    1STR    H21  722  17.002   7.962  17.303
    1STR    H22  723  16.957   7.883   0.012
    1STR    H23  724  17.340   7.790  17.222
    1STR    H27  725  17.256   7.543  17.130
    1STR    H28  726  17.057   5.619  17.363
    1STR    H29  727  17.032   5.385  17.411
    1STR    H2A  728  17.281   5.115  17.365
    1STR    H2B  729  17.106   5.147  17.369
    1STR    H2C  730  17.210   5.196   0.061
    1STR   BCK1  731  17.419   5.246  13.057
    1STR    O03  732   0.081   5.179  13.067
    1STR    N04  733  17.402   5.371  13.109
    1STR    C05  734   0.043   5.455  13.191
    1STR    C06  735   0.030   5.599  13.183
    1STR    C07  736   0.105   5.691  13.264
    1STR    N08  737   0.086   5.833  13.257
    1STR    C09  738   0.142   5.935  13.328
    1STR    O0A  739   0.227   5.919  13.416
    1STR    O0B  740   0.097   6.061  13.293
    1STR    C0C  741   0.153   6.182  13.354
    1STR    C0D  742   0.288   6.213  13.287
    1STR    C0E  743   0.058   6.307  13.347
    1STR    O0F  744   0.116   6.430  13.399
    1STR    C0G  745   0.030   6.548  13.402
    1STR    C0H  746  17.374   6.534  13.521
    1STR    C0I  747   0.108   6.684  13.411
    1STR    O0J  748   0.024   6.800  13.388
    1STR    C0K  749   0.083   6.933  13.393
    1STR    C0M  750   0.188   6.948  13.282
    1STR    C0N  751  17.416   7.047  13.377
    1STR    O0O  752   0.031   7.181  13.383
    1STR    C0P  753  17.418   7.286  13.311
    1STR    O0Q  754  17.330   7.277  13.226
    1STR    N0R  755   0.037   7.401  13.347
    1STR    C0S  756   0.032   7.537  13.307
    1STR    C0T  757   0.113   7.623  13.384
    1STR    C0U  758   0.130   7.758  13.351
    1STR    C0V  759   0.065   7.813  13.239
    1STR    C0W  760   0.104   7.955  13.200
    1STR    C0X  761  17.414   7.734  13.163
    1STR    N0Y  762  17.350   7.790  13.049
    1STR   BCK2  763  17.286   7.909  13.033
    1STR    O10  764  17.257   7.985  13.124
    1STR    C13  765  17.401   7.595  13.197
    1STR    C14  766   0.199   5.634  13.352
    1STR    C15  767   0.212   5.495  13.365
    1STR    C16  768   0.133   5.406  13.290
    1STR    C17  769   0.147   5.259  13.328
    1STR    H1B  770  17.314   5.411  13.080
    1STR    H1C  771  17.400   5.639  13.112
    1STR    H1D  772   0.020   5.867  13.190
    1STR    H1E  773   0.172   6.161  13.460
    1STR    H1F  774   0.276   6.233  13.180
    1STR    H1G  775   0.335   6.300  13.332
    1STR    H1H  776   0.358   6.130  13.298
    1STR    H1I  777  17.408   6.282  13.403
    1STR    H1J  778   0.028   6.323  13.244
    1STR    H1K  779  17.413   6.551  13.309
    1STR    H1M  780  17.429   6.522  13.615
    1STR    H1N  781  17.306   6.450  13.511
    1STR    H1O  782  17.312   6.623  13.531
    1STR    H1P  783   0.157   6.692  13.509
    1STR    H1Q  784   0.188   6.681  13.337
    1STR    H1R  785   0.132   6.945  13.490
    1STR    H1S  786   0.229   7.049  13.281
    1STR    H1T  787   0.144   6.930  13.184
    1STR    H1U  788   0.273   6.880  13.294
    1STR    H1V  789  17.343   7.039  13.458
    1STR    H1W  790  17.360   7.033  13.285
    1STR    H1X  791   0.102   7.381  13.421
    1STR    H1Y  792   0.167   7.586  13.470
    1STR    H1Z  793   0.196   7.819  13.410
    1STR    H20  794   0.106   7.968  13.092
    1STR    H21  795   0.035   8.027  13.244
    1STR    H22  796   0.204   7.979  13.236
    1STR    H23  797  17.352   7.734  12.965
    1STR    H27  798  17.337   7.531  13.137
    1STR    H28  799   0.263   5.693  13.415
    1STR    H29  800   0.283   5.457  13.437
    1STR    H2A  801   0.052   5.207  13.319
    1STR    H2B  802   0.180   5.248  13.431
    1STR    H2C  803   0.221   5.210  13.265
    1STR   BCK1  804   0.075   9.572  13.103
    1STR    O03  805  17.393   9.558  13.102
    1STR    N04  806   0.138   9.688  13.069
    1STR    C05  807   0.099   9.793  12.979
    1STR    C06  808   0.106   9.936  13.007
    1STR    C07  809   0.083  10.039  12.907
    1STR    N08  810   0.093  10.183  12.931
    1STR    C09  811   0.096  10.291  12.845
    1STR    O0A  812   0.095  10.276  12.723
    1STR    O0B  813   0.100  10.423  12.901
    1STR    C0C  814   0.090  10.547  12.818
    1STR    C0D  815  17.385  10.560  12.769
    1STR    C0E  816   0.138  10.689  12.881
    1STR    O0F  817   0.114  10.817  12.807
    1STR    C0G  818   0.173  10.947  12.853
    1STR    C0H  819   0.323  10.939  12.819
    1STR    C0I  820   0.112  11.086  12.795
    1STR    O0J  821   0.149  11.219  12.855
    1STR    C0K  822   0.098  11.349  12.799
    1STR    C0M  823  17.385  11.341  12.797
    1STR    C0N  824   0.137  11.491  12.868
    1STR    O0O  825   0.082  11.616  12.808
    1STR    C0P  826   0.083  11.747  12.870
    1STR    O0Q  827   0.121  11.767  12.985
    1STR    N0R  828   0.041  11.846  12.786
    1STR    C0S  829   0.027  11.991  12.778
    1STR    C0T  830   0.054  12.040  12.649
    1STR    C0U  831   0.031  12.174  12.613
    1STR    C0V  832  17.419  12.268  12.704
    1STR    C0W  833  17.393  12.407  12.650
    1STR    C0X  834  17.395  12.231  12.839
    1STR    N0Y  835  17.354  12.326  12.939
    1STR   BCK2  836  17.303  12.452  12.966
    1STR    O10  837  17.295  12.479  13.085
    1STR    C13  838  17.421  12.090  12.873
    1STR    C14  839   0.049   9.991  12.779
    1STR    C15  840   0.043   9.853  12.749
    1STR    C16  841   0.070   9.755  12.846
    1STR    C17  842   0.075   9.609  12.800
    1STR    H1B  843   0.235   9.689  13.095
    1STR    H1C  844   0.131   9.965  13.108
    1STR    H1D  845   0.098  10.211  13.027
    1STR    H1E  846   0.152  10.529  12.730
    1STR    H1F  847  17.316  10.575  12.852
    1STR    H1G  848  17.375  10.644  12.701
    1STR    H1H  849  17.353  10.471  12.715
    1STR    H1I  850   0.245  10.679  12.899
    1STR    H1J  851   0.093  10.699  12.979
    1STR    H1K  852   0.161  10.950  12.961
    1STR    H1M  853   0.338  10.922  12.712
    1STR    H1N  854   0.374  10.858  12.871
    1STR    H1O  855   0.374  11.032  12.845
    1STR    H1P  856   0.135  11.091  12.688
    1STR    H1Q  857   0.004  11.076  12.800
    1STR    H1R  858   0.134  11.355  12.696
    1STR    H1S  859  17.342  11.436  12.764
    1STR    H1T  860  17.346  11.320  12.896
    1STR    H1U  861  17.349  11.265  12.728
    1STR    H1V  862   0.245  11.502  12.869
    1STR    H1W  863   0.108  11.490  12.974
    1STR    H1X  864   0.021  11.802  12.699
    1STR    H1Y  865   0.093  11.974  12.573
    1STR    H1Z  866   0.052  12.204  12.512
    1STR    H20  867  17.286  12.426  12.652
    1STR    H21  868   0.006  12.482  12.708
    1STR    H22  869  17.425  12.419  12.546
    1STR    H23  870  17.370  12.288  13.031
    1STR    H27  871  17.402  12.057  12.974
    1STR    H28  872   0.027  10.057  12.697
    1STR    H29  873   0.021   9.823  12.648
    1STR    H2A  874   0.160   9.556  12.844
    1STR    H2B  875   0.087   9.601  12.692
    1STR    H2C  876  17.424   9.557  12.828
    1STR   BCK1  877   0.102  13.839   4.493
    1STR    O03  878   0.118  13.828   4.614
    1STR    N04  879   0.044  13.948   4.434
    1STR    C05  880  17.404  14.052   4.490
    1STR    C06  881  17.421  14.194   4.462
    1STR    C07  882  17.331  14.298   4.509
    1STR    N08  883  17.341  14.440   4.478
    1STR    C09  884  17.272  14.549   4.527
    1STR    O0A  885  17.191  14.539   4.618
    1STR    O0B  886  17.299  14.677   4.469
    1STR    C0C  887  17.236  14.801   4.523
    1STR    C0D  888  17.303  14.836   4.657
    1STR    C0E  889  17.230  14.934   4.433
    1STR    O0F  890  17.185  15.059   4.499
    1STR    C0G  891  17.167  15.184   4.421
    1STR    C0H  892  17.037  15.172   4.342
    1STR    C0I  893  17.164  15.320   4.505
    1STR    O0J  894  17.165  15.447   4.429
    1STR    C0K  895  17.155  15.576   4.500
    1STR    C0M  896  17.273  15.592   4.596
    1STR    C0N  897  17.151  15.706   4.409
    1STR    O0O  898  17.136  15.833   4.480
    1STR    C0P  899  17.201  15.951   4.443
    1STR    O0Q  900  17.288  15.959   4.357
    1STR    N0R  901  17.154  16.058   4.512
    1STR    C0S  902  17.185  16.197   4.517
    1STR    C0T  903  17.089  16.280   4.578
    1STR    C0U  904  17.112  16.417   4.598
    1STR    C0V  905  17.234  16.478   4.560
    1STR    C0W  906  17.249  16.624   4.595
    1STR    C0X  907  17.334  16.400   4.495
    1STR    N0Y  908   0.023  16.445   4.457
    1STR   BCK2  909   0.107  16.551   4.447
    1STR    O10  910   0.223  16.524   4.417
    1STR    C13  911  17.306  16.260   4.474
    1STR    C14  912  17.223  14.250   4.587
    1STR    C15  913  17.203  14.114   4.615
    1STR    C16  914  17.290  14.015   4.565
    1STR    C17  915  17.250  13.870   4.589
    1STR    H1B  916   0.048  13.946   4.334
    1STR    H1C  917   0.066  14.222   4.402
    1STR    H1D  918  17.410  14.466   4.410
    1STR    H1E  919  17.132  14.775   4.545
    1STR    H1F  920  17.407  14.864   4.643
    1STR    H1G  921  17.252  14.919   4.705
    1STR    H1H  922  17.299  14.752   4.727
    1STR    H1I  923  17.165  14.914   4.348
    1STR    H1J  924  17.329  14.953   4.392
    1STR    H1K  925  17.251  15.192   4.352
    1STR    H1M  926  16.951  15.158   4.408
    1STR    H1N  927  17.038  15.088   4.272
    1STR    H1O  928  17.018  15.262   4.284
    1STR    H1P  929  17.076  15.320   4.570
    1STR    H1Q  930  17.249  15.320   4.572
    1STR    H1R  931  17.062  15.575   4.558
    1STR    H1S  932  17.268  15.689   4.647
    1STR    H1T  933  17.368  15.590   4.542
    1STR    H1U  934  17.275  15.517   4.674
    1STR    H1V  935  17.068  15.700   4.339
    1STR    H1W  936  17.241  15.711   4.346
    1STR    H1X  937  17.078  16.028   4.570
    1STR    H1Y  938  16.995  16.240   4.612
    1STR    H1Z  939  17.036  16.476   4.647
    1STR    H20  940  17.338  16.640   4.656
    1STR    H21  941  17.254  16.685   4.505
    1STR    H22  942  17.165  16.662   4.654
    1STR    H23  943   0.080  16.368   4.426
    1STR    H27  944  17.380  16.198   4.427
    1STR    H28  945  17.148  14.316   4.628
    1STR    H29  946  17.117  14.085   4.673
    1STR    H2A  947  17.269  13.809   4.501
    1STR    H2B  948  17.144  13.861   4.611
    1STR    H2C  949  17.305  13.828   4.673
    1STR   BCK1  950   4.549   5.141   4.111
    1STR    O03  951   4.649   5.143   4.039
    1STR    N04  952   4.513   5.245   4.192
    1STR    C05  953   4.591   5.355   4.239
    1STR    C06  954   4.547   5.493   4.241
    1STR    C07  955   4.626   5.602   4.297
    1STR    N08  956   4.584   5.740   4.308
    1STR    C09  957   4.659   5.854   4.326
    1STR    O0A  958   4.782   5.852   4.318
    1STR    O0B  959   4.590   5.975   4.353
    1STR    C0C  960   4.663   6.104   4.361
    1STR    C0D  961   4.695   6.149   4.218
    1STR    C0E  962   4.596   6.227   4.440
    1STR    O0F  963   4.667   6.357   4.430
    1STR    C0G  964   4.618   6.474   4.504
    1STR    C0H  965   4.655   6.457   4.652
    1STR    C0I  966   4.675   6.615   4.454
    1STR    O0J  967   4.618   6.735   4.517
    1STR    C0K  968   4.670   6.868   4.482
    1STR    C0M  969   4.646   6.896   4.333
    1STR    C0N  970   4.608   6.989   4.564
    1STR    O0O  971   4.665   7.119   4.532
    1STR    C0P  972   4.593   7.238   4.546
    1STR    O0Q  973   4.475   7.245   4.578
    1STR    N0R  974   4.670   7.345   4.519
    1STR    C0S  975   4.648   7.485   4.508
    1STR    C0T  976   4.759   7.562   4.465
    1STR    C0U  977   4.747   7.699   4.439
    1STR    C0V  978   4.625   7.767   4.455
    1STR    C0W  979   4.622   7.911   4.406
    1STR    C0X  980   4.512   7.698   4.508
    1STR    N0Y  981   4.384   7.754   4.532
    1STR   BCK2  982   4.315   7.870   4.548
    1STR    O10  983   4.196   7.860   4.573
    1STR    C13  984   4.526   7.557   4.531
    1STR    C14  985   4.751   5.564   4.351
    1STR    C15  986   4.794   5.430   4.354
    1STR    C16  987   4.715   5.326   4.303
    1STR    C17  988   4.764   5.184   4.326
    1STR    H1B  989   4.420   5.236   4.230
    1STR    H1C  990   4.451   5.515   4.199
    1STR    H1D  991   4.485   5.758   4.303
    1STR    H1E  992   4.757   6.084   4.412
    1STR    H1F  993   4.605   6.172   4.162
    1STR    H1G  994   4.758   6.238   4.219
    1STR    H1H  995   4.750   6.072   4.164
    1STR    H1I  996   4.588   6.199   4.545
    1STR    H1J  997   4.494   6.241   4.404
    1STR    H1K  998   4.510   6.479   4.494
    1STR    H1M  999   4.762   6.446   4.665
    1STR    H1N 1000   4.607   6.370   4.697
    1STR    H1O 1001   4.624   6.544   4.710
    1STR    H1P 1002   4.783   6.617   4.468
    1STR    H1Q 1003   4.658   6.621   4.347
    1STR    H1R 1004   4.778   6.868   4.501
    1STR    H1S 1005   4.681   6.996   4.306
    1STR    H1T 1006   4.540   6.891   4.309
    1STR    H1U 1007   4.699   6.826   4.268
    1STR    H1V 1008   4.623   6.973   4.671
    1STR    H1W 1009   4.500   6.992   4.550
    1STR    H1X 1010   4.764   7.315   4.500
    1STR    H1Y 1011   4.855   7.516   4.449
    1STR    H1Z 1012   4.833   7.753   4.403
    1STR    H20 1013   4.529   7.931   4.352
    1STR    H21 1014   4.633   7.980   4.489
    1STR    H22 1015   4.702   7.931   4.335
    1STR    H23 1016   4.314   7.682   4.546
    1STR    H27 1017   4.441   7.500   4.566
    1STR    H28 1018   4.817   5.636   4.397
    1STR    H29 1019   4.889   5.408   4.400
    1STR    H2A 1020   4.681   5.118   4.353
    1STR    H2B 1021   4.836   5.179   4.408
    1STR    H2C 1022   4.812   5.144   4.237
    1STR   BCK1 1023   4.434   5.136  12.755
    1STR    O03 1024   4.553   5.112  12.768
    1STR    N04 1025   4.397   5.266  12.776
    1STR    C05 1026   4.292   5.362  12.774
    1STR    C06 1027   4.329   5.501  12.792
    1STR    C07 1028   4.236   5.610  12.793
    1STR    N08 1029   4.274   5.747  12.810
    1STR    C09 1030   4.206   5.862  12.777
    1STR    O0A 1031   4.100   5.860  12.716
    1STR    O0B 1032   4.266   5.982  12.817
    1STR    C0C 1033   4.195   6.111  12.800
    1STR    C0D 1034   4.086   6.122  12.907
    1STR    C0E 1035   4.284   6.242  12.801
    1STR    O0F 1036   4.212   6.368  12.779
    1STR    C0G 1037   4.288   6.492  12.768
    1STR    C0H 1038   4.361   6.492  12.632
    1STR    C0I 1039   4.203   6.626  12.779
    1STR    O0J 1040   4.283   6.748  12.779
    1STR    C0K 1041   4.217   6.879  12.778
    1STR    C0M 1042   4.135   6.897  12.907
    1STR    C0N 1043   4.318   7.000  12.766
    1STR    O0O 1044   4.256   7.131  12.760
    1STR    C0P 1045   4.316   7.245  12.811
    1STR    O0Q 1046   4.419   7.246  12.877
    1STR    N0R 1047   4.246   7.355  12.779
    1STR    C0S 1048   4.253   7.493  12.809
    1STR    C0T 1049   4.154   7.573  12.748
    1STR    C0U 1050   4.140   7.709  12.777
    1STR    C0V 1051   4.227   7.773  12.867
    1STR    C0W 1052   4.196   7.917  12.907
    1STR    C0X 1053   4.335   7.700  12.924
    1STR    N0Y 1054   4.415   7.765  13.020
    1STR   BCK2 1055   4.483   7.882  13.011
    1STR    O10 1056   4.516   7.936  12.906
    1STR    C13 1057   4.346   7.560  12.896
    1STR    C14 1058   4.100   5.575  12.782
    1STR    C15 1059   4.060   5.441  12.766
    1STR    C16 1060   4.153   5.335  12.760
    1STR    C17 1061   4.094   5.197  12.739
    1STR    H1B 1062   4.483   5.307  12.806
    1STR    H1C 1063   4.433   5.524  12.803
    1STR    H1D 1064   4.363   5.766  12.852
    1STR    H1E 1065   4.147   6.107  12.702
    1STR    H1F 1066   4.128   6.126  13.008
    1STR    H1G 1067   4.026   6.212  12.892
    1STR    H1H 1068   4.017   6.037  12.904
    1STR    H1I 1069   4.361   6.230  12.724
    1STR    H1J 1070   4.337   6.248  12.896
    1STR    H1K 1071   4.362   6.495  12.848
    1STR    H1M 1072   4.290   6.479  12.550
    1STR    H1N 1073   4.435   6.413  12.625
    1STR    H1O 1074   4.413   6.586  12.616
    1STR    H1P 1075   4.131   6.630  12.698
    1STR    H1Q 1076   4.145   6.621  12.871
    1STR    H1R 1077   4.150   6.883  12.692
    1STR    H1S 1078   4.088   6.996  12.908
    1STR    H1T 1079   4.198   6.891  12.995
    1STR    H1U 1080   4.055   6.824  12.916
    1STR    H1V 1081   4.377   6.989  12.675
    1STR    H1W 1082   4.390   6.997  12.849
    1STR    H1X 1083   4.169   7.328  12.720
    1STR    H1Y 1084   4.082   7.530  12.680
    1STR    H1Z 1085   4.060   7.766  12.732
    1STR    H20 1086   4.211   7.932  13.014
    1STR    H21 1087   4.261   7.987  12.854
    1STR    H22 1088   4.093   7.943  12.886
    1STR    H23 1089   4.414   7.726  13.113
    1STR    H27 1090   4.424   7.502  12.943
    1STR    H28 1091   4.022   5.649  12.787
    1STR    H29 1092   3.954   5.421  12.757
    1STR    H2A 1093   4.138   5.151  12.651
    1STR    H2B 1094   3.987   5.202  12.720
    1STR    H2C 1095   4.108   5.136  12.828
    1STR   BCK1 1096   4.230   9.486  13.249
    1STR    O03 1097   4.216   9.446  13.135
    1STR    N04 1098   4.246   9.621  13.263
    1STR    C05 1099   4.281   9.727  13.352
    1STR    C06 1100   4.255   9.864  13.312
    1STR    C07 1101   4.300   9.981  13.386
    1STR    N08 1102   4.278  10.117  13.344
    1STR    C09 1103   4.295  10.236  13.412
    1STR    O0A 1104   4.326  10.239  13.530
    1STR    O0B 1105   4.275  10.357  13.339
    1STR    C0C 1106   4.308  10.489  13.398
    1STR    C0D 1107   4.461  10.504  13.397
    1STR    C0E 1108   4.241  10.621  13.336
    1STR    O0F 1109   4.278  10.751  13.398
    1STR    C0G 1110   4.212  10.876  13.356
    1STR    C0H 1111   4.067  10.871  13.406
    1STR    C0I 1112   4.279  11.014  13.406
    1STR    O0J 1113   4.223  11.142  13.355
    1STR    C0K 1114   4.278  11.271  13.403
    1STR    C0M 1115   4.426  11.280  13.367
    1STR    C0N 1116   4.208  11.406  13.352
    1STR    O0O 1117   4.254  11.528  13.418
    1STR    C0P 1118   4.249  11.658  13.362
    1STR    O0Q 1119   4.220  11.683  13.246
    1STR    N0R 1120   4.282  11.750  13.455
    1STR    C0S 1121   4.304  11.890  13.473
    1STR    C0T 1122   4.329  11.921  13.608
    1STR    C0U 1123   4.369  12.049  13.650
    1STR    C0V 1124   4.382  12.154  13.558
    1STR    C0W 1125   4.446  12.283  13.609
    1STR    C0X 1126   4.344  12.136  13.422
    1STR    N0Y 1127   4.354  12.250  13.339
    1STR   BCK2 1128   4.302  12.374  13.363
    1STR    O10 1129   4.218  12.395  13.450
    1STR    C13 1130   4.309  12.001  13.379
    1STR    C14 1131   4.375   9.952  13.502
    1STR    C15 1132   4.401   9.820  13.544
    1STR    C16 1133   4.355   9.708  13.471
    1STR    C17 1134   4.394   9.572  13.523
    1STR    H1B 1135   4.229   9.655  13.169
    1STR    H1C 1136   4.199   9.881  13.221
    1STR    H1D 1137   4.245  10.132  13.250
    1STR    H1E 1138   4.276  10.485  13.502
    1STR    H1F 1139   4.500  10.509  13.295
    1STR    H1G 1140   4.491  10.595  13.449
    1STR    H1H 1141   4.510  10.420  13.447
    1STR    H1I 1142   4.133  10.608  13.341
    1STR    H1J 1143   4.266  10.627  13.230
    1STR    H1K 1144   4.212  10.879  13.247
    1STR    H1M 1145   4.063  10.857  13.514
    1STR    H1N 1146   4.009  10.791  13.360
    1STR    H1O 1147   4.014  10.964  13.384
    1STR    H1P 1148   4.277  11.016  13.515
    1STR    H1Q 1149   4.384  11.009  13.378
    1STR    H1R 1150   4.268  11.270  13.512
    1STR    H1S 1151   4.468  11.376  13.396
    1STR    H1T 1152   4.440  11.270  13.259
    1STR    H1U 1153   4.486  11.204  13.416
    1STR    H1V 1154   4.100  11.399  13.369
    1STR    H1W 1155   4.220  11.417  13.244
    1STR    H1X 1156   4.294  11.698  13.540
    1STR    H1Y 1157   4.322  11.846  13.684
    1STR    H1Z 1158   4.392  12.066  13.753
    1STR    H20 1159   4.515  12.324  13.535
    1STR    H21 1160   4.371  12.357  13.633
    1STR    H22 1161   4.504  12.266  13.700
    1STR    H23 1162   4.416  12.245  13.259
    1STR    H27 1163   4.286  11.983  13.275
    1STR    H28 1164   4.418  10.030  13.562
    1STR    H29 1165   4.459   9.805  13.633
    1STR    H2A 1166   4.307   9.521  13.565
    1STR    H2B 1167   4.468   9.578  13.603
    1STR    H2C 1168   4.438   9.511  13.444
    1STR   BCK1 1169   4.470  13.833  17.201
    1STR    O03 1170   4.427  13.772  17.298
    1STR    N04 1171   4.486  13.968  17.216
    1STR    C05 1172   4.543  14.086  17.158
    1STR    C06 1173   4.509  14.218  17.209
    1STR    C07 1174   4.572  14.342  17.166
    1STR    N08 1175   4.546  14.473  17.221
    1STR    C09 1176   4.579  14.598  17.172
    1STR    O0A 1177   4.626  14.613  17.060
    1STR    O0B 1178   4.556  14.713  17.255
    1STR    C0C 1179   4.581  14.851  17.205
    1STR    C0D 1180   4.467  14.885  17.107
    1STR    C0E 1181   4.600  14.974  17.307
    1STR    O0F 1182   4.619  15.109  17.248
    1STR    C0G 1183   4.645  15.228  17.332
    1STR    C0H 1184   4.785  15.213  17.393
    1STR    C0I 1185   4.634  15.373  17.262
    1STR    O0J 1186   4.645  15.495  17.346
    1STR    C0K 1187   4.645  15.631  17.286
    1STR    C0M 1188   4.515  15.650  17.206
    1STR    C0N 1189   4.660  15.756  17.385
    1STR    O0O 1190   4.664  15.891  17.325
    1STR    C0P 1191   4.638  16.010  17.397
    1STR    O0Q 1192   4.602  16.013   0.075
    1STR    N0R 1193   4.657  16.122  17.323
    1STR    C0S 1194   4.639  16.264  17.336
    1STR    C0T 1195   4.663  16.338  17.219
    1STR    C0U 1196   4.641  16.477  17.213
    1STR    C0V 1197   4.596  16.550  17.325
    1STR    C0W 1198   4.563  16.697  17.302
    1STR    C0X 1199   4.577  16.484   0.010
    1STR    N0Y 1200   4.536  16.548   0.131
    1STR   BCK2 1201   4.514  16.665   0.197
    1STR    O10 1202   4.481  16.652   0.314
    1STR    C13 1203   4.598  16.340   0.011
    1STR    C14 1204   4.672  14.325  17.068
    1STR    C15 1205   4.707  14.200  17.016
    1STR    C16 1206   4.646  14.081  17.061
    1STR    C17 1207   4.704  13.952  17.005
    1STR    H1B 1208   4.442  13.988  17.305
    1STR    H1C 1209   4.431  14.224  17.284
    1STR    H1D 1210   4.497  14.478  17.309
    1STR    H1E 1211   4.674  14.845  17.147
    1STR    H1F 1212   4.372  14.892  17.158
    1STR    H1G 1213   4.487  14.981  17.058
    1STR    H1H 1214   4.458  14.810  17.028
    1STR    H1I 1215   4.685  14.951  17.371
    1STR    H1J 1216   4.513  14.978  17.373
    1STR    H1K 1217   4.571  15.228  17.413
    1STR    H1M 1218   4.860  15.202  17.315
    1STR    H1N 1219   4.793  15.127   0.019
    1STR    H1O 1220   4.812  15.301   0.012
    1STR    H1P 1221   4.710  15.379  17.184
    1STR    H1Q 1222   4.538  15.376  17.210
    1STR    H1R 1223   4.729  15.635  17.216
    1STR    H1S 1224   4.510  15.751  17.163
    1STR    H1T 1225   4.428  15.638  17.270
    1STR    H1U 1226   4.506  15.581  17.123
    1STR    H1V 1227   4.752  15.745   0.003
    1STR    H1W 1228   4.579  15.755   0.019
    1STR    H1X 1229   4.691  16.093  17.233
    1STR    H1Y 1230   4.696  16.290  17.129
    1STR    H1Z 1231   4.657  16.528  17.119
    1STR    H20 1232   4.464  16.721  17.342
    1STR    H21 1233   4.638  16.761  17.349
    1STR    H22 1234   4.562  16.722  17.196
    1STR    H23 1235   4.515  16.479   0.201
    1STR    H27 1236   4.581  16.286   0.103
    1STR    H28 1237   4.728  14.409  17.031
    1STR    H29 1238   4.785  14.195  16.942
    1STR    H2A 1239   4.720  13.880  17.085
    1STR    H2B 1240   4.801  13.968  16.958
    1STR    H2C 1241   4.637  13.912  16.929
    1STR   BCK1 1242  12.933   0.756   4.491
    1STR    O03 1243  13.050   0.723   4.505
    1STR    N04 1244  12.912   0.890   4.470
    1STR    C05 1245  12.817   0.994   4.450
    1STR    C06 1246  12.865   1.131   4.439
    1STR    C07 1247  12.781   1.246   4.419
    1STR    N08 1248  12.828   1.381   4.401
    1STR    C09 1249  12.762   1.499   4.417
    1STR    O0A 1250  12.650   1.505   4.466
    1STR    O0B 1251  12.829   1.617   4.375
    1STR    C0C 1252  12.767   1.750   4.392
    1STR    C0D 1253  12.778   1.790   4.541
    1STR    C0E 1254  12.818   1.871   4.302
    1STR    O0F 1255  12.753   2.000   4.330
    1STR    C0G 1256  12.788   2.118   4.251
    1STR    C0H 1257  12.730   2.103   4.110
    1STR    C0I 1258  12.738   2.256   4.312
    1STR    O0J 1259  12.778   2.377   4.240
    1STR    C0K 1260  12.730   2.508   4.288
    1STR    C0M 1261  12.791   2.537   4.426
    1STR    C0N 1262  12.763   2.629   4.192
    1STR    O0O 1263  12.701   2.754   4.233
    1STR    C0P 1264  12.756   2.879   4.207
    1STR    O0Q 1265  12.865   2.898   4.153
    1STR    N0R 1266  12.676   2.977   4.252
    1STR    C0S 1267  12.687   3.117   4.269
    1STR    C0T 1268  12.605   3.171   4.370
    1STR    C0U 1269  12.610   3.307   4.405
    1STR    C0V 1270  12.694   3.396   4.336
    1STR    C0W 1271  12.706   3.538   4.389
    1STR    C0X 1272  12.771   3.349   4.226
    1STR    N0Y 1273  12.849   3.440   4.151
    1STR   BCK2 1274  12.799   3.532   4.066
    1STR    O10 1275  12.815   3.515   3.946
    1STR    C13 1276  12.770   3.209   4.196
    1STR    C14 1277  12.643   1.219   4.411
    1STR    C15 1278  12.593   1.088   4.421
    1STR    C16 1279  12.677   0.976   4.439
    1STR    C17 1280  12.610   0.841   4.440
    1STR    H1B 1281  13.006   0.926   4.469
    1STR    H1C 1282  12.972   1.147   4.445
    1STR    H1D 1283  12.924   1.393   4.372
    1STR    H1E 1284  12.661   1.738   4.369
    1STR    H1F 1285  12.882   1.805   4.570
    1STR    H1G 1286  12.724   1.882   4.560
    1STR    H1H 1287  12.736   1.714   4.606
    1STR    H1I 1288  12.803   1.844   4.198
    1STR    H1J 1289  12.926   1.882   4.316
    1STR    H1K 1290  12.897   2.124   4.244
    1STR    H1M 1291  12.621   2.090   4.113
    1STR    H1N 1292  12.772   2.018   4.056
    1STR    H1O 1293  12.750   2.191   4.049
    1STR    H1P 1294  12.629   2.254   4.320
    1STR    H1Q 1295  12.775   2.261   4.415
    1STR    H1R 1296  12.622   2.502   4.297
    1STR    H1S 1297  12.761   2.636   4.461
    1STR    H1T 1298  12.900   2.537   4.421
    1STR    H1U 1299  12.759   2.467   4.502
    1STR    H1V 1300  12.728   2.608   4.091
    1STR    H1W 1301  12.871   2.643   4.184
    1STR    H1X 1302  12.592   2.936   4.288
    1STR    H1Y 1303  12.539   3.107   4.427
    1STR    H1Z 1304  12.550   3.342   4.487
    1STR    H20 1305  12.811   3.563   4.404
    1STR    H21 1306  12.661   3.610   4.321
    1STR    H22 1307  12.656   3.550   4.485
    1STR    H23 1308  12.932   3.398   4.113
    1STR    H27 1309  12.831   3.170   4.116
    1STR    H28 1310  12.571   1.297   4.395
    1STR    H29 1311  12.486   1.074   4.413
    1STR    H2A 1312  12.655   0.777   4.364
    1STR    H2B 1313  12.504   0.847   4.416
    1STR    H2C 1314  12.618   0.795   4.538
    1STR   BCK1 1315  13.163   5.172   0.252
    1STR    O03 1316  13.195   5.165   0.370
    1STR    N04 1317  13.174   5.286   0.179
    1STR    C05 1318  13.255   5.400   0.206
    1STR    C06 1319  13.207   5.536   0.197
    1STR    C07 1320  13.294   5.651   0.213
    1STR    N08 1321  13.249   5.787   0.204
    1STR    C09 1322  13.312   5.903   0.240
    1STR    O0A 1323  13.421   5.905   0.295
    1STR    O0B 1324  13.245   6.022   0.208
    1STR    C0C 1325  13.311   6.152   0.225
    1STR    C0D 1326  13.406   6.173   0.106
    1STR    C0E 1327  13.217   6.279   0.242
    1STR    O0F 1328  13.287   6.407   0.257
    1STR    C0G 1329  13.209   6.528   0.285
    1STR    C0H 1330  13.162   6.521   0.431
    1STR    C0I 1331  13.285   6.664   0.260
    1STR    O0J 1332  13.202   6.785   0.265
    1STR    C0K 1333  13.264   6.918   0.248
    1STR    C0M 1334  13.332   6.926   0.111
    1STR    C0N 1335  13.162   7.038   0.262
    1STR    O0O 1336  13.219   7.172   0.242
    1STR    C0P 1337  13.147   7.279   0.190
    1STR    O0Q 1338  13.035   7.271   0.140
    1STR    N0R 1339  13.216   7.394   0.202
    1STR    C0S 1340  13.201   7.531   0.167
    1STR    C0T 1341  13.296   7.615   0.228
    1STR    C0U 1342  13.306   7.751   0.196
    1STR    C0V 1343  13.221   7.810   0.101
    1STR    C0W 1344  13.255   7.953   0.059
    1STR    C0X 1345  13.115   7.735   0.043
    1STR    N0Y 1346  13.031   7.797  17.385
    1STR   BCK2 1347  12.968   7.918  17.386
    1STR    O10 1348  12.959   7.990   0.045
    1STR    C13 1349  13.109   7.594   0.075
    1STR    C14 1350  13.431   5.622   0.233
    1STR    C15 1351  13.479   5.490   0.241
    1STR    C16 1352  13.394   5.380   0.228
    1STR    C17 1353  13.457   5.241   0.231
    1STR    H1B 1354  13.130   5.282   0.089
    1STR    H1C 1355  13.102   5.552   0.179
    1STR    H1D 1356  13.157   5.803   0.166
    1STR    H1E 1357  13.372   6.147   0.316
    1STR    H1F 1358  13.351   6.180   0.012
    1STR    H1G 1359  13.463   6.265   0.118
    1STR    H1H 1360  13.477   6.091   0.097
    1STR    H1I 1361  13.154   6.261   0.329
    1STR    H1J 1362  13.150   6.285   0.156
    1STR    H1K 1363  13.122   6.528   0.219
    1STR    H1M 1364  13.247   6.508   0.499
    1STR    H1N 1365  13.094   6.438   0.449
    1STR    H1O 1366  13.110   6.612   0.460
    1STR    H1P 1367  13.367   6.673   0.332
    1STR    H1Q 1368  13.332   6.658   0.162
    1STR    H1R 1369  13.340   6.929   0.326
    1STR    H1S 1370  13.375   7.025   0.096
    1STR    H1T 1371  13.259   6.910   0.031
    1STR    H1U 1372  13.413   6.855   0.100
    1STR    H1V 1373  13.118   7.037   0.362
    1STR    H1W 1374  13.079   7.024   0.193
    1STR    H1X 1375  13.301   7.373   0.251
    1STR    H1Y 1376  13.366   7.576   0.301
    1STR    H1Z 1377  13.384   7.810   0.242
    1STR    H20 1378  13.236   7.969  17.393
    1STR    H21 1379  13.197   8.025   0.117
    1STR    H22 1380  13.360   7.975   0.075
    1STR    H23 1381  13.017   7.745  17.300
    1STR    H27 1382  13.033   7.532   0.029
    1STR    H28 1383  13.505   5.699   0.240
    1STR    H29 1384  13.585   5.474   0.255
    1STR    H2A 1385  13.432   5.189   0.323
    1STR    H2B 1386  13.566   5.246   0.227
    1STR    H2C 1387  13.424   5.181   0.146
    1STR   BCK1 1388  12.952   5.240  12.971
    1STR    O03 1389  12.832   5.248  12.947
    1STR    N04 1390  13.038   5.343  12.950
    1STR    C05 1391  13.017   5.452  12.863
    1STR    C06 1392  13.030   5.589  12.901
    1STR    C07 1393  13.016   5.697  12.805
    1STR    N08 1394  13.035   5.833  12.840
    1STR    C09 1395  13.012   5.946  12.767
    1STR    O0A 1396  12.959   5.946  12.656
    1STR    O0B 1397  13.052   6.063  12.827
    1STR    C0C 1398  13.029   6.190  12.760
    1STR    C0D 1399  12.881   6.230  12.778
    1STR    C0E 1400  13.123   6.305  12.807
    1STR    O0F 1401  13.095   6.428  12.736
    1STR    C0G 1402  13.176   6.543  12.768
    1STR    C0H 1403  13.312   6.529  12.697
    1STR    C0I 1404  13.104   6.674  12.723
    1STR    O0J 1405  13.166   6.795  12.773
    1STR    C0K 1406  13.101   6.919  12.739
    1STR    C0M 1407  12.967   6.932  12.812
    1STR    C0N 1408  13.187   7.045  12.773
    1STR    O0O 1409  13.130   7.160  12.709
    1STR    C0P 1410  13.120   7.282  12.768
    1STR    O0Q 1411  13.143   7.309  12.886
    1STR    N0R 1412  13.085   7.369  12.674
    1STR    C0S 1413  13.068   7.508  12.663
    1STR    C0T 1414  13.099   7.558  12.536
    1STR    C0U 1415  13.077   7.692  12.504
    1STR    C0V 1416  13.020   7.781  12.597
    1STR    C0W 1417  12.998   7.921  12.544
    1STR    C0X 1418  12.986   7.737  12.728
    1STR    N0Y 1419  12.914   7.811  12.826
    1STR   BCK2 1420  12.863   7.933  12.855
    1STR    O10 1421  12.780   7.940  12.944
    1STR    C13 1422  13.014   7.599  12.760
    1STR    C14 1423  12.987   5.658  12.672
    1STR    C15 1424  12.978   5.524  12.633
    1STR    C16 1425  12.996   5.421  12.726
    1STR    C17 1426  13.000   5.278  12.674
    1STR    H1B 1427  13.131   5.328  12.984
    1STR    H1C 1428  13.051   5.613  13.004
    1STR    H1D 1429  13.070   5.855  12.932
    1STR    H1E 1430  13.048   6.176  12.653
    1STR    H1F 1431  12.856   6.246  12.883
    1STR    H1G 1432  12.859   6.323  12.724
    1STR    H1H 1433  12.814   6.154  12.738
    1STR    H1I 1434  13.226   6.275  12.790
    1STR    H1J 1435  13.112   6.321  12.914
    1STR    H1K 1436  13.190   6.549  12.876
    1STR    H1M 1437  13.299   6.517  12.589
    1STR    H1N 1438  13.369   6.444  12.733
    1STR    H1O 1439  13.373   6.618  12.713
    1STR    H1P 1440  13.097   6.677  12.614
    1STR    H1Q 1441  13.001   6.668  12.760
    1STR    H1R 1442  13.084   6.920  12.631
    1STR    H1S 1443  12.921   7.029  12.794
    1STR    H1T 1444  12.981   6.923  12.920
    1STR    H1U 1445  12.894   6.857  12.781
    1STR    H1V 1446  13.288   7.032  12.734
    1STR    H1W 1447  13.197   7.058  12.881
    1STR    H1X 1448  13.077   7.319  12.588
    1STR    H1Y 1449  13.139   7.494  12.460
    1STR    H1Z 1450  13.102   7.726  12.405
    1STR    H20 1451  12.893   7.947  12.550
    1STR    H21 1452  13.062   7.991  12.598
    1STR    H22 1453  13.026   7.930  12.439
    1STR    H23 1454  12.884   7.753  12.903
    1STR    H27 1455  12.990   7.559  12.857
    1STR    H28 1456  12.974   5.730  12.593
    1STR    H29 1457  12.959   5.501  12.530
    1STR    H2A 1458  13.084   5.224  12.718
    1STR    H2B 1459  13.012   5.275  12.566
    1STR    H2C 1460  12.907   5.226  12.699
    1STR   BCK1 1461  13.219  13.847   8.867
    1STR    O03 1462  13.268  13.841   8.979
    1STR    N04 1463  13.148  13.954   8.821
    1STR    C05 1464  13.087  14.063   8.893
    1STR    C06 1465  13.097  14.204   8.857
    1STR    C07 1466  13.024  14.311   8.925
    1STR    N08 1467  13.026  14.452   8.889
    1STR    C09 1468  12.977  14.564   8.954
    1STR    O0A 1469  12.928  14.557   9.066
    1STR    O0B 1470  12.984  14.693   8.888
    1STR    C0C 1471  12.944  14.820   8.956
    1STR    C0D 1472  13.053  14.854   9.059
    1STR    C0E 1473  12.911  14.955   8.872
    1STR    O0F 1474  12.894  15.084   8.945
    1STR    C0G 1475  12.851  15.210   8.877
    1STR    C0H 1476  12.701  15.195   8.845
    1STR    C0I 1477  12.874  15.350   8.955
    1STR    O0J 1478  12.852  15.481   8.886
    1STR    C0K 1479  12.871  15.611   8.957
    1STR    C0M 1480  13.015  15.617   9.009
    1STR    C0N 1481  12.842  15.750   8.881
    1STR    O0O 1482  12.858  15.874   8.962
    1STR    C0P 1483  12.876  16.005   8.908
    1STR    O0Q 1484  12.895  16.029   8.790
    1STR    N0R 1485  12.865  16.101   9.004
    1STR    C0S 1486  12.862  16.245   9.015
    1STR    C0T 1487  12.766  16.291   9.107
    1STR    C0U 1488  12.762  16.425   9.149
    1STR    C0V 1489  12.854  16.521   9.103
    1STR    C0W 1490  12.848  16.656   9.169
    1STR    C0X 1491  12.950  16.485   9.004
    1STR    N0Y 1492  13.053  16.574   8.958
    1STR   BCK2 1493  13.100  16.702   8.960
    1STR    O10 1494  13.215  16.716   8.921
    1STR    C13 1495  12.951  16.345   8.961
    1STR    C14 1496  12.940  14.266   9.030
    1STR    C15 1497  12.927  14.131   9.065
    1STR    C16 1498  12.996  14.029   8.997
    1STR    C17 1499  12.963  13.885   9.033
    1STR    H1B 1500  13.122  13.947   8.724
    1STR    H1C 1501  13.163  14.229   8.776
    1STR    H1D 1502  13.071  14.475   8.802
    1STR    H1E 1503  12.853  14.796   9.012
    1STR    H1F 1504  13.147  14.879   9.011
    1STR    H1G 1505  13.023  14.939   9.120
    1STR    H1H 1506  13.071  14.770   9.127
    1STR    H1I 1507  12.820  14.935   8.815
    1STR    H1J 1508  12.990  14.969   8.798
    1STR    H1K 1509  12.906  15.216   8.783
    1STR    H1M 1510  12.643  15.181   8.936
    1STR    H1N 1511  12.680  15.111   8.779
    1STR    H1O 1512  12.663  15.285   8.796
    1STR    H1P 1513  12.813  15.350   9.045
    1STR    H1Q 1514  12.977  15.348   8.990
    1STR    H1R 1515  12.803  15.609   9.043
    1STR    H1S 1516  13.033  15.713   9.058
    1STR    H1T 1517  13.085  15.609   8.926
    1STR    H1U 1518  13.037  15.540   9.082
    1STR    H1V 1519  12.740  15.751   8.843
    1STR    H1W 1520  12.906  15.759   8.793
    1STR    H1X 1521  12.844  16.055   9.090
    1STR    H1Y 1522  12.695  16.223   9.151
    1STR    H1Z 1523  12.688  16.454   9.223
    1STR    H20 1524  12.947  16.686   9.203
    1STR    H21 1525  12.807  16.731   9.101
    1STR    H22 1526  12.785  16.657   9.258
    1STR    H23 1527  13.123  16.525   8.905
    1STR    H27 1528  13.025  16.313   8.890
    1STR    H28 1529  12.880  14.335   9.087
    1STR    H29 1530  12.859  14.104   9.145
    1STR    H2A 1531  12.955  13.822   8.944
    1STR    H2B 1532  12.867  13.878   9.085
    1STR    H2C 1533  13.039  13.843   9.099
    1STR   BCK1 1534  13.071  14.003  12.948
    1STR    O03 1535  13.061  14.010  12.826
    1STR    N04 1536  13.118  14.104  13.026
    1STR    C05 1537  13.212  14.208  12.996
    1STR    C06 1538  13.190  14.350  13.017
    1STR    C07 1539  13.294  14.451  13.002
    1STR    N08 1540  13.275  14.592  13.026
    1STR    C09 1541  13.357  14.701  13.007
    1STR    O0A 1542  13.469  14.691  12.958
    1STR    O0B 1543  13.306  14.828  13.046
    1STR    C0C 1544  13.378  14.955  13.015
    1STR    C0D 1545  13.361  14.982  12.865
    1STR    C0E 1546  13.338  15.086  13.099
    1STR    O0F 1547  13.392  15.217  13.055
    1STR    C0G 1548  13.368  15.339  13.137
    1STR    C0H 1549  13.459  15.328  13.261
    1STR    C0I 1550  13.393  15.481  13.065
    1STR    O0J 1551  13.341  15.606  13.128
    1STR    C0K 1552  13.361  15.739  13.064
    1STR    C0M 1553  13.304  15.734  12.922
    1STR    C0N 1554  13.302  15.871  13.137
    1STR    O0O 1555  13.321  16.001  13.069
    1STR    C0P 1556  13.249  16.121  13.102
    1STR    O0Q 1557  13.157  16.125  13.183
    1STR    N0R 1558  13.296  16.230  13.036
    1STR    C0S 1559  13.276  16.373  13.028
    1STR    C0T 1560  13.394  16.443  12.995
    1STR    C0U 1561  13.394  16.580  12.966
    1STR    C0V 1562  13.276  16.657  12.970
    1STR    C0W 1563  13.287  16.801  12.923
    1STR    C0X 1564  13.153  16.597  13.010
    1STR    N0Y 1565  13.033  16.677  13.008
    1STR   BCK2 1566  13.011  16.808  13.041
    1STR    O10 1567  12.994  16.836  13.159
    1STR    C13 1568  13.156  16.454  13.038
    1STR    C14 1569  13.420  14.400  12.963
    1STR    C15 1570  13.444  14.263  12.945
    1STR    C16 1571  13.343  14.167  12.963
    1STR    C17 1572  13.380  14.020  12.954
    1STR    H1B 1573  13.104  14.088  13.124
    1STR    H1C 1574  13.091  14.381  13.047
    1STR    H1D 1575  13.186  14.619  13.064
    1STR    H1E 1576  13.484  14.936  13.033
    1STR    H1F 1577  13.257  14.996  12.838
    1STR    H1G 1578  13.417  15.071  12.835
    1STR    H1H 1579  13.400  14.899  12.805
    1STR    H1I 1580  13.368  15.067  13.202
    1STR    H1J 1581  13.229  15.094  13.100
    1STR    H1K 1582  13.264  15.338  13.168
    1STR    H1M 1583  13.563  15.315  13.233
    1STR    H1N 1584  13.432  15.243  13.324
    1STR    H1O 1585  13.452  15.417  13.323
    1STR    H1P 1586  13.500  15.494  13.048
    1STR    H1Q 1587  13.348  15.472  12.966
    1STR    H1R 1588  13.470  15.754  13.056
    1STR    H1S 1589  13.309  15.832  12.874
    1STR    H1T 1590  13.199  15.704  12.924
    1STR    H1U 1591  13.359  15.665  12.858
    1STR    H1V 1592  13.346  15.880  13.236
    1STR    H1W 1593  13.195  15.858  13.155
    1STR    H1X 1594  13.374  16.199  12.981
    1STR    H1Y 1595  13.488  16.391  12.988
    1STR    H1Z 1596  13.487  16.627  12.938
    1STR    H20 1597  13.207  16.825  12.852
    1STR    H21 1598  13.282  16.869  13.007
    1STR    H22 1599  13.381  16.820  12.870
    1STR    H23 1600  12.947  16.625  13.002
    1STR    H27 1601  13.064  16.404  13.064
    1STR    H28 1602  13.506  14.464  12.950
    1STR    H29 1603  13.544  14.230  12.919
    1STR    H2A 1604  13.340  13.964  13.039
    1STR    H2B 1605  13.488  14.005  12.956
    1STR    H2C 1606  13.341  13.975  12.863
    1STR   BCK1 1607   0.045  13.157   5.232
    1STR    O03 1608  17.397  13.237   5.205
    1STR    N04 1609   0.114  13.157   5.348
    1STR    C05 1610   0.114  13.256   5.449
    1STR    C06 1611   0.107  13.223   5.588
    1STR    C07 1612   0.115  13.323   5.691
    1STR    N08 1613   0.114  13.289   5.829
    1STR    C09 1614   0.145  13.365   5.937
    1STR    O0A 1615   0.182  13.482   5.931
    1STR    O0B 1616   0.130  13.300   6.057
    1STR    C0C 1617   0.148  13.372   6.181
    1STR    C0D 1618   0.016  13.443   6.218
    1STR    C0E 1619   0.196  13.282   6.298
    1STR    O0F 1620   0.215  13.359   6.418
    1STR    C0G 1621   0.263  13.287   6.533
    1STR    C0H 1622   0.414  13.264   6.520
    1STR    C0I 1623   0.231  13.367   6.663
    1STR    O0J 1624   0.263  13.289   6.779
    1STR    C0K 1625   0.237  13.349   6.907
    1STR    C0M 1626   0.086  13.353   6.935
    1STR    C0N 1627   0.309  13.265   7.016
    1STR    O0O 1628   0.295  13.322   7.147
    1STR    C0P 1629   0.226  13.259   7.244
    1STR    O0Q 1630   0.161  13.156   7.230
    1STR    N0R 1631   0.239  13.326   7.359
    1STR    C0S 1632   0.187  13.307   7.488
    1STR    C0T 1633   0.228  13.399   7.587
    1STR    C0U 1634   0.175  13.393   7.717
    1STR    C0V 1635   0.079  13.296   7.752
    1STR    C0W 1636   0.017  13.307   7.890
    1STR    C0X 1637   0.038  13.199   7.656
    1STR    N0Y 1638  17.376  13.106   7.680
    1STR   BCK2 1639  17.343  13.031   7.786
    1STR    O10 1640  17.409  13.019   7.889
    1STR    C13 1641   0.093  13.207   7.525
    1STR    C14 1642   0.124  13.457   5.649
    1STR    C15 1643   0.135  13.491   5.513
    1STR    C16 1644   0.135  13.392   5.414
    1STR    C17 1645   0.163  13.437   5.271
    1STR    H1B 1646   0.179  13.081   5.359
    1STR    H1C 1647   0.097  13.119   5.616
    1STR    H1D 1648   0.089  13.195   5.855
    1STR    H1E 1649   0.225  13.448   6.168
    1STR    H1F 1650  17.375  13.372   6.234
    1STR    H1G 1651   0.028  13.502   6.309
    1STR    H1H 1652  17.425  13.512   6.139
    1STR    H1I 1653   0.289  13.234   6.269
    1STR    H1J 1654   0.124  13.202   6.316
    1STR    H1K 1655   0.211  13.192   6.541
    1STR    H1M 1656   0.467  13.359   6.507
    1STR    H1N 1657   0.439  13.201   6.435
    1STR    H1O 1658   0.454  13.216   6.609
    1STR    H1P 1659   0.286  13.461   6.664
    1STR    H1Q 1660   0.125  13.393   6.663
    1STR    H1R 1661   0.278  13.450   6.909
    1STR    H1S 1662   0.066  13.393   7.034
    1STR    H1T 1663   0.043  13.253   6.932
    1STR    H1U 1664   0.032  13.415   6.864
    1STR    H1V 1665   0.415  13.261   6.994
    1STR    H1W 1666   0.274  13.162   7.013
    1STR    H1X 1667   0.299  13.406   7.346
    1STR    H1Y 1668   0.299  13.477   7.564
    1STR    H1Z 1669   0.206  13.467   7.789
    1STR    H20 1670  17.351  13.282   7.888
    1STR    H21 1671   0.067  13.240   7.960
    1STR    H22 1672   0.024  13.408   7.930
    1STR    H23 1673  17.315  13.089   7.602
    1STR    H27 1674   0.061  13.135   7.451
    1STR    H28 1675   0.125  13.539   5.718
    1STR    H29 1676   0.147  13.594   5.486
    1STR    H2A 1677   0.220  13.362   5.217
    1STR    H2B 1678   0.222  13.528   5.270
    1STR    H2C 1679   0.070  13.457   5.219
    1STR   BCK1 1680   4.366   4.346  13.971
    1STR    O03 1681   4.385   4.229  13.940
    1STR    N04 1682   4.304   4.387  14.083
    1STR    C05 1683   4.223   4.316  14.173
    1STR    C06 1684   4.237   4.330  14.315
    1STR    C07 1685   4.146   4.269  14.408
    1STR    N08 1686   4.159   4.288  14.549
    1STR    C09 1687   4.081   4.248  14.652
    1STR    O0A 1688   3.979   4.181  14.639
    1STR    O0B 1689   4.126   4.289  14.775
    1STR    C0C 1690   4.058   4.247  14.896
    1STR    C0D 1691   4.103   4.104  14.933
    1STR    C0E 1692   4.082   4.345  15.015
    1STR    O0F 1693   4.017   4.300  15.137
    1STR    C0G 1694   4.029   4.387  15.252
    1STR    C0H 1695   3.932   4.505  15.236
    1STR    C0I 1696   3.999   4.310  15.384
    1STR    O0J 1697   4.027   4.392  15.499
    1STR    C0K 1698   4.000   4.335  15.629
    1STR    C0M 1699   4.102   4.224  15.660
    1STR    C0N 1700   4.008   4.445  15.739
    1STR    O0O 1701   3.964   4.396  15.866
    1STR    C0P 1702   4.023   4.433  15.982
    1STR    O0Q 1703   4.122   4.505  15.991
    1STR    N0R 1704   3.961   4.375  16.085
    1STR    C0S 1705   3.990   4.368  16.222
    1STR    C0T 1706   3.931   4.262  16.293
    1STR    C0U 1707   3.963   4.238  16.428
    1STR    C0V 1708   4.054   4.322  16.496
    1STR    C0W 1709   4.100   4.278  16.633
    1STR    C0X 1710   4.108   4.436  16.431
    1STR    N0Y 1711   4.205   4.517  16.491
    1STR   BCK2 1712   4.219   4.580  16.608
    1STR    O10 1713   4.325   4.638  16.630
    1STR    C13 1714   4.077   4.456  16.293
    1STR    C14 1715   4.042   4.191  14.353
    1STR    C15 1716   4.025   4.178  14.214
    1STR    C16 1717   4.112   4.241  14.124
    1STR    C17 1718   4.079   4.232  13.976
    1STR    H1B 1719   4.312   4.486  14.099
    1STR    H1C 1720   4.319   4.389  14.353
    1STR    H1D 1721   4.238   4.341  14.581
    1STR    H1E 1722   3.951   4.245  14.877
    1STR    H1F 1723   4.210   4.100  14.953
    1STR    H1G 1724   4.051   4.069  15.022
    1STR    H1H 1725   4.081   4.034  14.853
    1STR    H1I 1726   4.044   4.443  14.987
    1STR    H1J 1727   4.189   4.355  15.034
    1STR    H1K 1728   4.131   4.424  15.258
    1STR    H1M 1729   3.829   4.470  15.224
    1STR    H1N 1730   3.956   4.568  15.151
    1STR    H1O 1731   3.934   4.568  15.325
    1STR    H1P 1732   3.895   4.276  15.385
    1STR    H1Q 1733   4.061   4.220  15.386
    1STR    H1R 1734   3.899   4.294  15.630
    1STR    H1S 1735   4.088   4.186  15.762
    1STR    H1T 1736   4.204   4.261  15.654
    1STR    H1U 1737   4.092   4.139  15.593
    1STR    H1V 1738   3.945   4.530  15.712
    1STR    H1W 1739   4.110   4.485  15.745
    1STR    H1X 1740   3.882   4.322  16.053
    1STR    H1Y 1741   3.864   4.193  16.244
    1STR    H1Z 1742   3.921   4.152  16.478
    1STR    H20 1743   4.206   4.300  16.648
    1STR    H21 1744   4.042   4.329  16.710
    1STR    H22 1745   4.089   4.170  16.647
    1STR    H23 1746   4.285   4.536  16.433
    1STR    H27 1747   4.122   4.539  16.241
    1STR    H28 1748   3.969   4.140  14.415
    1STR    H29 1749   3.942   4.120  14.177
    1STR    H2A 1750   4.098   4.327  13.926
    1STR    H2B 1751   3.975   4.208  13.960
    1STR    H2C 1752   4.140   4.155  13.928
    1STR   BCK1 1753   8.565  17.167  13.795
    1STR    O03 1754   8.448  17.129  13.798
    1STR    N04 1755   8.613  17.208  13.920
    1STR    C05 1756   8.726  17.225  14.011
    1STR    C06 1757   8.705  17.227  14.157
    1STR    C07 1758   8.809  17.239  14.261
    1STR    N08 1759   8.789  17.240  14.408
    1STR    C09 1760   8.876  17.243  14.518
    1STR    O0A 1761   8.997  17.241  14.502
    1STR    O0B 1762   8.821  17.248  14.657
    1STR    C0C 1763   8.905  17.259  14.785
    1STR    C0D 1764   8.974  17.397  14.785
    1STR    C0E 1765   8.843  17.232  14.936
    1STR    O0F 1766   8.916  17.259  15.067
    1STR    C0G 1767   8.866  17.214  15.204
    1STR    C0H 1768   8.888  17.063  15.206
    1STR    C0I 1769   8.921  17.273  15.349
    1STR    O0J 1770   8.848  17.247  15.479
    1STR    C0K 1771   8.901  17.276  15.619
    1STR    C0M 1772   8.960  17.417  15.623
    1STR    C0N 1773   8.804  17.257  15.751
    1STR    O0O 1774   8.847  17.292  15.891
    1STR    C0P 1775   8.758  17.307  16.006
    1STR    O0Q 1776   8.636  17.301  15.998
    1STR    N0R 1777   8.822  17.328  16.126
    1STR    C0S 1778   8.802  17.355  16.268
    1STR    C0T 1779   8.923  17.342  16.338
    1STR    C0U 1780   8.940  17.389  16.468
    1STR    C0V 1781   8.836   0.010  16.539
    1STR    C0W 1782   8.888   0.094  16.656
    1STR    C0X 1783   8.700   0.004  16.492
    1STR    N0Y 1784   8.585   0.042  16.576
    1STR   BCK2 1785   8.566   0.071  16.712
    1STR    O10 1786   8.659   0.070  16.788
    1STR    C13 1787   8.689  17.399  16.351
    1STR    C14 1788   8.939  17.250  14.207
    1STR    C15 1789   8.963  17.250  14.067
    1STR    C16 1790   8.861  17.237  13.970
    1STR    C17 1791   8.906  17.243  13.826
    1STR    H1B 1792   8.527  17.225  13.969
    1STR    H1C 1793   8.603  17.218  14.191
    1STR    H1D 1794   8.693  17.239  14.438
    1STR    H1E 1795   8.986  17.186  14.771
    1STR    H1F 1796   8.902   0.038  14.796
    1STR    H1G 1797   9.045  17.404  14.867
    1STR    H1H 1798   9.030  17.414  14.693
    1STR    H1I 1799   8.813  17.127  14.937
    1STR    H1J 1800   8.750  17.288  14.943
    1STR    H1K 1801   8.759  17.235  15.204
    1STR    H1M 1802   8.994  17.039  15.196
    1STR    H1N 1803   8.835  17.011  15.127
    1STR    H1O 1804   8.855  17.020  15.301
    1STR    H1P 1805   9.024  17.238  15.362
    1STR    H1Q 1806   8.930  17.381  15.339
    1STR    H1R 1807   8.985  17.207  15.633
    1STR    H1S 1808   9.004  17.437  15.721
    1STR    H1T 1809   8.883   0.052  15.607
    1STR    H1U 1810   9.039  17.432  15.550
    1STR    H1V 1811   8.775  17.151  15.756
    1STR    H1W 1812   8.710  17.310  15.734
    1STR    H1X 1813   8.920  17.321  16.104
    1STR    H1Y 1814   9.011  17.300  16.290
    1STR    H1Z 1815   9.039  17.386  16.511
    1STR    H20 1816   8.830   0.186  16.666
    1STR    H21 1817   8.890   0.039  16.750
    1STR    H22 1818   8.990   0.128  16.638
    1STR    H23 1819   8.497   0.044  16.527
    1STR    H27 1820   8.592  17.401  16.304
    1STR    H28 1821   9.025  17.262  14.270
    1STR    H29 1822   9.066  17.260  14.034
    1STR    H2A 1823   8.824  17.260  13.757
    1STR    H2B 1824   8.957  17.151  13.797
    1STR    H2C 1825   8.975  17.326  13.811
    1STR   BCK1 1826   8.818  13.112   9.325
    1STR    O03 1827   8.709  13.070   9.287
    1STR    N04 1828   8.841  13.151   9.458
    1STR    C05 1829   8.759  13.188   9.573
    1STR    C06 1830   8.794  13.170   9.716
    1STR    C07 1831   8.717  13.223   9.830
    1STR    N08 1832   8.747  13.213   9.974
    1STR    C09 1833   8.697  13.285  10.084
    1STR    O0A 1834   8.623  13.381  10.069
    1STR    O0B 1835   8.733  13.246  10.220
    1STR    C0C 1836   8.671  13.311  10.342
    1STR    C0D 1837   8.527  13.259  10.358
    1STR    C0E 1838   8.742  13.303  10.489
    1STR    O0F 1839   8.669  13.356  10.610
    1STR    C0G 1840   8.735  13.363  10.744
    1STR    C0H 1841   8.835  13.479  10.741
    1STR    C0I 1842   8.645  13.383  10.876
    1STR    O0J 1843   8.717  13.383  11.006
    1STR    C0K 1844   8.648  13.412  11.134
    1STR    C0M 1845   8.544  13.304  11.166
    1STR    C0N 1846   8.742  13.424  11.261
    1STR    O0O 1847   8.677  13.456  11.389
    1STR    C0P 1848   8.712  13.393  11.509
    1STR    O0Q 1849   8.786  13.296  11.517
    1STR    N0R 1850   8.654  13.452  11.616
    1STR    C0S 1851   8.649  13.421  11.755
    1STR    C0T 1852   8.575  13.509  11.837
    1STR    C0U 1853   8.552  13.481  11.974
    1STR    C0V 1854   8.604  13.365  12.034
    1STR    C0W 1855   8.559  13.332  12.177
    1STR    C0X 1856   8.688  13.280  11.959
    1STR    N0Y 1857   8.738  13.162  12.016
    1STR   BCK2 1858   8.798  13.141  12.135
    1STR    O10 1859   8.844  13.229  12.207
    1STR    C13 1860   8.708  13.307  11.820
    1STR    C14 1861   8.598  13.289   9.793
    1STR    C15 1862   8.563  13.311   9.660
    1STR    C16 1863   8.641  13.266   9.553
    1STR    C17 1864   8.600  13.317   9.417
    1STR    H1B 1865   8.940  13.155   9.476
    1STR    H1C 1866   8.884  13.116   9.738
    1STR    H1D 1867   8.813  13.143  10.002
    1STR    H1E 1868   8.664  13.417  10.319
    1STR    H1F 1869   8.525  13.153  10.384
    1STR    H1G 1870   8.475  13.313  10.437
    1STR    H1H 1871   8.469  13.272  10.266
    1STR    H1I 1872   8.837  13.355  10.482
    1STR    H1J 1873   8.766  13.199  10.511
    1STR    H1K 1874   8.789  13.270  10.758
    1STR    H1M 1875   8.784  13.574  10.725
    1STR    H1N 1876   8.911  13.468  10.663
    1STR    H1O 1877   8.888  13.487  10.836
    1STR    H1P 1878   8.589  13.476  10.868
    1STR    H1Q 1879   8.570  13.304  10.880
    1STR    H1R 1880   8.596  13.508  11.123
    1STR    H1S 1881   8.493  13.327  11.260
    1STR    H1T 1882   8.593  13.207  11.179
    1STR    H1U 1883   8.468  13.294  11.089
    1STR    H1V 1884   8.815  13.504  11.245
    1STR    H1W 1885   8.801  13.333  11.272
    1STR    H1X 1886   8.603  13.533  11.588
    1STR    H1Y 1887   8.530  13.598  11.797
    1STR    H1Z 1888   8.490  13.548  12.032
    1STR    H20 1889   8.550  13.225  12.192
    1STR    H21 1890   8.630  13.371  12.250
    1STR    H22 1891   8.461  13.374  12.199
    1STR    H23 1892   8.728  13.078  11.962
    1STR    H27 1893   8.768  13.240  11.761
    1STR    H28 1894   8.529  13.329   9.866
    1STR    H29 1895   8.473  13.368   9.640
    1STR    H2A 1896   8.689  13.349   9.365
    1STR    H2B 1897   8.536  13.405   9.424
    1STR    H2C 1898   8.546  13.241   9.361
    1STR   BCK1 1899  13.156   4.321  14.041
    1STR    O03 1900  13.250   4.243  14.024
    1STR    N04 1901  13.062   4.308  14.135
    1STR    C05 1902  13.045   4.199  14.221
    1STR    C06 1903  13.040   4.218  14.361
    1STR    C07 1904  13.017   4.110  14.451
    1STR    N08 1905  13.009   4.134  14.590
    1STR    C09 1906  12.992   4.050  14.694
    1STR    O0A 1907  12.982   3.928  14.683
    1STR    O0B 1908  12.988   4.115  14.813
    1STR    C0C 1909  12.983   4.041  14.937
    1STR    C0D 1910  13.126   3.993  14.970
    1STR    C0E 1911  12.923   4.126  15.054
    1STR    O0F 1912  12.923   4.054  15.179
    1STR    C0G 1913  12.864   4.122  15.292
    1STR    C0H 1914  12.711   4.114  15.281
    1STR    C0I 1915  12.913   4.058  15.426
    1STR    O0J 1916  12.889   4.140  15.544
    1STR    C0K 1917  12.938   4.090  15.670
    1STR    C0M 1918  13.092   4.082  15.667
    1STR    C0N 1919  12.895   4.178  15.793
    1STR    O0O 1920  12.953   4.125  15.914
    1STR    C0P 1921  12.964   4.197  16.030
    1STR    O0Q 1922  12.931   4.314  16.045
    1STR    N0R 1923  13.012   4.117  16.125
    1STR    C0S 1924  13.018   4.123  16.265
    1STR    C0T 1925  12.951   4.016  16.327
    1STR    C0U 1926  12.957   3.999  16.465
    1STR    C0V 1927  13.032   4.086  16.546
    1STR    C0W 1928  13.023   4.051  16.691
    1STR    C0X 1929  13.106   4.195  16.490
    1STR    N0Y 1930  13.192   4.281  16.566
    1STR   BCK2 1931  13.201   4.313  16.698
    1STR    O10 1932  13.157   4.421  16.735
    1STR    C13 1933  13.095   4.212  16.347
    1STR    C14 1934  13.000   3.981  14.394
    1STR    C15 1935  13.002   3.962  14.255
    1STR    C16 1936  13.022   4.070  14.167
    1STR    C17 1937  13.013   4.044  14.017
    1STR    H1B 1938  12.995   4.382  14.138
    1STR    H1C 1939  13.056   4.317  14.400
    1STR    H1D 1940  13.019   4.229  14.620
    1STR    H1E 1941  12.919   3.954  14.923
    1STR    H1F 1942  13.194   4.077  14.983
    1STR    H1G 1943  13.127   3.934  15.061
    1STR    H1H 1944  13.165   3.930  14.890
    1STR    H1I 1945  12.822   4.154  15.026
    1STR    H1J 1946  12.980   4.218  15.064
    1STR    H1K 1947  12.896   4.226  15.292
    1STR    H1M 1948  12.678   4.011  15.270
    1STR    H1N 1949  12.673   4.170  15.195
    1STR    H1O 1950  12.663   4.155  15.369
    1STR    H1P 1951  12.869   3.959  15.439
    1STR    H1Q 1952  13.020   4.042  15.414
    1STR    H1R 1953  12.897   3.990  15.686
    1STR    H1S 1954  13.132   4.052  15.764
    1STR    H1T 1955  13.135   4.179  15.643
    1STR    H1U 1956  13.129   4.008  15.596
    1STR    H1V 1957  12.787   4.179  15.803
    1STR    H1W 1958  12.926   4.281  15.780
    1STR    H1X 1959  13.028   4.026  16.085
    1STR    H1Y 1960  12.893   3.945  16.269
    1STR    H1Z 1961  12.904   3.917  16.510
    1STR    H20 1962  13.077   4.119  16.754
    1STR    H21 1963  12.919   4.052  16.722
    1STR    H22 1964  13.061   3.950  16.707
    1STR    H23 1965  13.235   4.354  16.511
    1STR    H27 1966  13.147   4.292  16.298
    1STR    H28 1967  12.983   3.894  14.455
    1STR    H29 1968  12.987   3.863  14.215
    1STR    H2A 1969  12.966   4.128  13.965
    1STR    H2B 1970  12.955   3.955  13.995
    1STR    H2C 1971  13.113   4.030  13.975
    1STR   BCK1 1972  13.052   8.960   0.688
    1STR    O03 1973  13.063   9.081   0.674
    1STR    N04 1974  13.086   8.896   0.807
    1STR    C05 1975  13.165   8.933   0.925
    1STR    C06 1976  13.132   8.896   1.064
    1STR    C07 1977  13.219   8.918   1.181
    1STR    N08 1978  13.197   8.879   1.320
    1STR    C09 1979  13.261   8.920   1.437
    1STR    O0A 1980  13.340   9.014   1.437
    1STR    O0B 1981  13.235   8.851   1.560
    1STR    C0C 1982  13.301   8.892   1.689
    1STR    C0D 1983  13.241   9.025   1.737
    1STR    C0E 1984  13.305   8.793   1.815
    1STR    O0F 1985  13.361   8.849   1.940
    1STR    C0G 1986  13.371   8.768   2.062
    1STR    C0H 1987  13.488   8.669   2.048
    1STR    C0I 1988  13.390   8.849   2.197
    1STR    O0J 1989  13.397   8.768   2.319
    1STR    C0K 1990  13.422   8.833   2.447
    1STR    C0M 1991  13.300   8.915   2.491
    1STR    C0N 1992  13.456   8.733   2.563
    1STR    O0O 1993  13.496   8.798   2.686
    1STR    C0P 1994  13.429   8.777   2.804
    1STR    O0Q 1995  13.326   8.712   2.815
    1STR    N0R 1996  13.491   8.839   2.906
    1STR    C0S 1997  13.457   8.854   3.043
    1STR    C0T 1998  13.533   8.944   3.121
    1STR    C0U 1999  13.498   8.972   3.255
    1STR    C0V 2000  13.388   8.909   3.316
    1STR    C0W 2001  13.345   8.954   3.455
    1STR    C0X 2002  13.316   8.811   3.243
    1STR    N0Y 2003  13.206   8.745   3.297
    1STR   BCK2 2004  13.196   8.666   3.405
    1STR    O10 2005  13.089   8.614   3.431
    1STR    C13 2006  13.349   8.787   3.107
    1STR    C14 2007  13.343   8.977   1.150
    1STR    C15 2008  13.378   9.013   1.020
    1STR    C16 2009  13.294   8.992   0.910
    1STR    C17 2010  13.361   9.022   0.777
    1STR    H1B 2011  13.046   8.804   0.812
    1STR    H1C 2012  13.037   8.848   1.082
    1STR    H1D 2013  13.125   8.811   1.338
    1STR    H1E 2014  13.406   8.911   1.663
    1STR    H1F 2015  13.137   9.013   1.769
    1STR    H1G 2016  13.297   9.063   1.823
    1STR    H1H 2017  13.246   9.102   1.661
    1STR    H1I 2018  13.362   8.704   1.788
    1STR    H1J 2019  13.204   8.758   1.837
    1STR    H1K 2020  13.278   8.711   2.074
    1STR    H1M 2021  13.583   8.722   2.037
    1STR    H1N 2022  13.476   8.602   1.964
    1STR    H1O 2023  13.497   8.607   2.138
    1STR    H1P 2024  13.482   8.908   2.191
    1STR    H1Q 2025  13.309   8.921   2.207
    1STR    H1R 2026  13.508   8.899   2.436
    1STR    H1S 2027  13.318   8.962   2.588
    1STR    H1T 2028  13.212   8.852   2.503
    1STR    H1U 2029  13.275   8.995   2.422
    1STR    H1V 2030  13.539   8.669   2.533
    1STR    H1W 2031  13.372   8.665   2.580
    1STR    H1X 2032  13.575   8.885   2.875
    1STR    H1Y 2033  13.618   8.996   3.079
    1STR    H1Z 2034  13.555   9.044   3.311
    1STR    H20 2035  13.237   8.945   3.468
    1STR    H21 2036  13.393   8.895   3.532
    1STR    H22 2037  13.370   9.059   3.472
    1STR    H23 2038  13.120   8.747   3.245
    1STR    H27 2039  13.291   8.715   3.052
    1STR    H28 2040  13.419   8.994   1.225
    1STR    H29 2041  13.476   9.055   1.005
    1STR    H2A 2042  13.430   8.942   0.755
    1STR    H2B 2043  13.420   9.113   0.785
    1STR    H2C 2044  13.295   9.036   0.693
    1HEX    C01 2045   0.278  17.286  16.749
    1HEX    C02 2046   0.216  17.289  16.889
    1HEX    C03 2047   0.065  17.289  16.880
    1HEX    O04 2048   0.003  17.190  16.842
    1HEX    O05 2049   0.012  17.408  16.914
    1HEX    C06 2050  17.311  17.424  16.919
    1HEX    C07 2051  17.260  17.421  17.066
    1HEX    C08 2052  17.310   0.109  17.136
    1HEX    O09 2053  17.244   0.230  17.100
    1HEX    C0A 2054  17.177   0.298  17.195
    1HEX    O0B 2055  17.132   0.251  17.299
    1HEX    C0C 2056  17.170   0.448  17.166
    1HEX    C0D 2057  17.181   0.530  17.295
    1HEX    C0F 2058  17.105  17.420  17.066
    1HEX    O0G 2059  17.058  17.297  17.010
    1HEX    C0H 2060  17.006  17.294  16.886
    1HEX    O0I 2061  16.973  17.391  16.819
    1HEX    C0J 2062  16.996  17.153  16.831
    1HEX    C0K 2063  16.876  17.078  16.890
    1HEX    C0N 2064  17.306  17.291  17.141
    1HEX    O0O 2065   0.002  17.273  17.184
    1HEX    C0P 2066   0.068  17.354  17.283
    1HEX    C0Q 2067   0.033  17.342  17.435
    1HEX    C0R 2068   0.067  17.199   0.044
    1HEX    O0S 2069   0.208  17.174   0.039
    1HEX    C0T 2070   0.279  17.167   0.154
    1HEX    O0U 2071   0.234  17.175   0.268
    1HEX    C0V 2072   0.428  17.144   0.129
    1HEX    C0W 2073   0.510  17.274   0.120
    1HEX    C0Y 2074   0.123   0.005   0.068
    1HEX    O0Z 2075   0.101   0.001   0.208
    1HEX    C10 2076   0.187   0.059   0.290
    1HEX    O11 2077   0.289   0.120   0.256
    1HEX    C12 2078   0.147   0.041   0.435
    1HEX    C13 2079   0.254   0.092   0.533
    1HEX    C15 2080  17.325  17.380   0.027
    1HEX    O16 2081  17.287  17.360   0.163
    1HEX    C17 2082  17.213  17.254   0.199
    1HEX    O18 2083  17.180  17.161   0.126
    1HEX    C19 2084  17.168  17.262   0.344
    1HEX    C1A 2085  17.086  17.390   0.367
    1HEX    H1C 2086   0.486  17.290  16.634
    1HEX    H1D 2087   0.250  17.195  16.697
    1HEX    H1E 2088   0.242  17.371  16.690
    1HEX    H1F 2089   0.249  17.376  16.945
    1HEX    H1G 2090   0.246  17.201  16.947
    1HEX    H1H 2091  17.261  17.348  16.858
    1HEX    H1I 2092  17.284   0.079  16.873
    1HEX    H1J 2093  17.414   0.126  17.109
    1HEX    H1K 2094  17.307   0.095  17.243
    1HEX    H1M 2095  17.078   0.470  17.112
    1HEX    H1N 2096  17.252   0.472  17.099
    1HEX    H1O 2097  17.256   0.487  17.362
    1HEX    H1P 2098  17.086   0.528  17.349
    1HEX    H1Q 2099  17.355   0.677  17.225
    1HEX    H1R 2100  17.065   0.067  17.014
    1HEX    H1S 2101  17.066  17.428  17.168
    1HEX    H1T 2102  17.089  17.100  16.854
    1HEX    H1U 2103  16.989  17.159  16.723
    1HEX    H1V 2104  16.783  17.129  16.866
    1HEX    H1W 2105  16.883  17.073  16.998
    1HEX    H1X 2106  16.856  16.943  16.693
    1HEX    H1Y 2107  17.292  17.208  17.071
    1HEX    H1Z 2108  17.236  17.262  17.219
    1HEX    H20 2109   0.075   0.018  17.253
    1HEX    H21 2110   0.172  17.321  17.274
    1HEX    H22 2111   0.016  17.125  17.422
    1HEX    H23 2112   0.028  17.183   0.145
    1HEX    H24 2113   0.437  17.088   0.036
    1HEX    H25 2114   0.467  17.080   0.208
    1HEX    H26 2115   0.462  17.347   0.054
    1HEX    H27 2116   0.608  17.253   0.078
    1HEX    H28 2117   0.421  17.421   0.285
    1HEX    H29 2118   0.104   0.107   0.034
    1HEX    H2A 2119   0.228  17.425   0.047
    1HEX    H2B 2120   0.128  17.375   0.452
    1HEX    H2C 2121   0.053   0.094   0.449
    1HEX    H2D 2122   0.285   0.193   0.507
    1HEX    H2E 2123   0.343   0.029   0.527
    1HEX    H2F 2124   0.089   0.180   0.681
    1HEX    H2G 2125  17.254  17.328  17.405
    1HEX    H2H 2126  17.309   0.046   0.009
    1HEX    H2I 2127  17.256  17.261   0.408
    1HEX    H2J 2128  17.110  17.173   0.367
    1HEX    H2K 2129  17.000  17.393   0.300
    1HEX    H2M 2130  17.146   0.038   0.345
    1HEX    H2N 2131  16.945  17.295   0.534
    1STR    S00 2132   0.459  17.295  16.765
    1STR    S0E 2133  17.227   0.701  17.257
    1STR    S0M 2134  16.872  16.909  16.821
    1STR    S0X 2135   0.535  17.350   0.283
    1STR    S14 2136   0.186   0.090   0.701
    1STR    S1B 2137  17.030  17.398   0.539
    1HEX    C01 2138   0.274  17.287   3.674
    1HEX    C02 2139   0.214  17.290   3.815
    1HEX    C03 2140   0.062  17.289   3.808
    1HEX    O04 2141   0.000  17.189   3.772
    1HEX    O05 2142   0.009  17.408   3.841
    1HEX    C06 2143  17.308  17.423   3.846
    1HEX    C07 2144  17.256  17.428   3.992
    1HEX    C08 2145  17.303   0.120   4.055
    1HEX    O09 2146  17.234   0.239   4.019
    1HEX    C0A 2147  17.172   0.309   4.115
    1HEX    O0B 2148  17.127   0.262   4.220
    1HEX    C0C 2149  17.170   0.459   4.088
    1HEX    C0D 2150  17.185   0.538   4.219
    1HEX    C0F 2151  17.101  17.424   3.989
    1HEX    O0G 2152  17.057  17.300   3.933
    1HEX    C0H 2153  17.003  17.295   3.810
    1HEX    O0I 2154  16.967  17.391   3.743
    1HEX    C0J 2155  16.996  17.153   3.756
    1HEX    C0K 2156  16.875  17.077   3.811
    1HEX    C0N 2157  17.304  17.305   4.076
    1HEX    O0O 2158   0.002  17.294   4.118
    1HEX    C0P 2159   0.069  17.382   4.211
    1HEX    C0Q 2160   0.036  17.381   4.364
    1HEX    C0R 2161   0.044  17.234   4.416
    1HEX    O0S 2162   0.160  17.155   4.388
    1HEX    C0T 2163   0.200  17.064   4.480
    1HEX    O0U 2164   0.187  17.077   4.602
    1HEX    C0V 2165   0.267  16.939   4.422
    1HEX    C0W 2166   0.240  16.807   4.500
    1HEX    C0Y 2167   0.139   0.037   4.436
    1HEX    O0Z 2168   0.091   0.172   4.455
    1HEX    C10 2169   0.175   0.276   4.486
    1HEX    O11 2170   0.297   0.273   4.476
    1HEX    C12 2171   0.101   0.399   4.545
    1HEX    C13 2172   0.179   0.534   4.561
    1HEX    C15 2173  17.332  17.432   4.395
    1HEX    O16 2174  17.290  17.403   4.528
    1HEX    C17 2175  17.203  17.302   4.551
    1HEX    O18 2176  17.156  17.226   4.467
    1HEX    C19 2177  17.163  17.291   4.697
    1HEX    C1A 2178  17.075  17.410   4.736
    1HEX    H1C 2179   0.480  17.289   3.555
    1HEX    H1D 2180   0.244  17.195   3.622
    1HEX    H1E 2181   0.237  17.371   3.615
    1HEX    H1F 2182   0.247  17.378   3.869
    1HEX    H1G 2183   0.245  17.203   3.872
    1HEX    H1H 2184  17.259  17.345   3.788
    1HEX    H1I 2185  17.281   0.076   3.794
    1HEX    H1J 2186  17.406   0.139   4.025
    1HEX    H1K 2187  17.304   0.110   4.163
    1HEX    H1M 2188  17.079   0.486   4.034
    1HEX    H1N 2189  17.254   0.480   4.022
    1HEX    H1O 2190  17.262   0.494   4.283
    1HEX    H1P 2191  17.092   0.534   4.275
    1HEX    H1Q 2192  17.358   0.689   4.154
    1HEX    H1R 2193  17.060   0.070   3.934
    1HEX    H1S 2194  17.060  17.434   4.090
    1HEX    H1T 2195  17.089  17.101   3.780
    1HEX    H1U 2196  16.991  17.159   3.647
    1HEX    H1V 2197  16.782  17.130   3.787
    1HEX    H1W 2198  16.881  17.071   3.920
    1HEX    H1X 2199  16.857  16.945   3.613
    1HEX    H1Y 2200  17.289  17.217   4.013
    1HEX    H1Z 2201  17.237  17.283   4.159
    1HEX    H20 2202   0.077   0.043   4.174
    1HEX    H21 2203   0.172  17.346   4.203
    1HEX    H22 2204  17.401  17.177   4.374
    1HEX    H23 2205   0.026  17.234   4.524
    1HEX    H24 2206   0.374  16.961   4.424
    1HEX    H25 2207   0.240  16.929   4.317
    1HEX    H26 2208   0.247  16.826   4.607
    1HEX    H27 2209   0.321  16.738   4.479
    1HEX    H29 2210   0.234   0.039   4.382
    1HEX    H2A 2211   0.164  17.436   4.534
    1HEX    H2B 2212   0.077   0.364   4.646
    1HEX    H2C 2213   0.004   0.412   4.497
    1HEX    H2D 2214   0.285   0.515   4.571
    1HEX    H2E 2215   0.150   0.578   4.657
    1HEX    H2G 2216  17.259  17.393   4.327
    1HEX    H2H 2217  17.323   0.100   4.382
    1HEX    H2I 2218  17.253  17.286   4.758
    1HEX    H2J 2219  17.109  17.197   4.711
    1HEX    H2K 2220  16.987  17.416   4.671
    1HEX    H2M 2221  17.131   0.063   4.722
    1HEX    H2N 2222  16.944  17.290   4.894
    1STR    S00 2223   0.455  17.295   3.686
    1STR    S0E 2224  17.229   0.710   4.184
    1STR    S0M 2225  16.871  16.910   3.741
    1STR    S0X 2226   0.079  16.723   4.467
    1STR    S14 2227   0.156   0.668   4.432
    1STR    S1B 2228  17.024  17.396   4.909
    1HEX    C01 2229   0.278  17.286   8.029
    1HEX    C02 2230   0.216  17.289   8.169
    1HEX    C03 2231   0.065  17.289   8.160
    1HEX    O04 2232   0.003  17.190   8.122
    1HEX    O05 2233   0.012  17.408   8.194
    1HEX    C06 2234  17.311  17.424   8.199
    1HEX    C07 2235  17.260  17.421   8.346
    1HEX    C08 2236  17.310   0.109   8.416
    1HEX    O09 2237  17.244   0.230   8.380
    1HEX    C0A 2238  17.177   0.298   8.475
    1HEX    O0B 2239  17.132   0.251   8.579
    1HEX    C0C 2240  17.170   0.448   8.446
    1HEX    C0D 2241  17.181   0.530   8.575
    1HEX    C0F 2242  17.105  17.420   8.346
    1HEX    O0G 2243  17.058  17.297   8.290
    1HEX    C0H 2244  17.006  17.294   8.166
    1HEX    O0I 2245  16.973  17.391   8.099
    1HEX    C0J 2246  16.996  17.153   8.111
    1HEX    C0K 2247  16.876  17.078   8.170
    1HEX    C0N 2248  17.306  17.291   8.421
    1HEX    O0O 2249   0.002  17.273   8.464
    1HEX    C0P 2250   0.068  17.354   8.563
    1HEX    C0Q 2251   0.033  17.342   8.715
    1HEX    C0R 2252   0.067  17.199   8.764
    1HEX    O0S 2253   0.208  17.174   8.759
    1HEX    C0T 2254   0.279  17.167   8.874
    1HEX    O0U 2255   0.234  17.175   8.988
    1HEX    C0V 2256   0.428  17.144   8.849
    1HEX    C0W 2257   0.510  17.274   8.840
    1HEX    C0Y 2258   0.123   0.005   8.788
    1HEX    O0Z 2259   0.101   0.001   8.928
    1HEX    C10 2260   0.187   0.059   9.010
    1HEX    O11 2261   0.289   0.120   8.976
    1HEX    C12 2262   0.147   0.041   9.155
    1HEX    C13 2263   0.254   0.092   9.253
    1HEX    C15 2264  17.325  17.380   8.747
    1HEX    O16 2265  17.287  17.360   8.883
    1HEX    C17 2266  17.213  17.254   8.919
    1HEX    O18 2267  17.180  17.161   8.846
    1HEX    C19 2268  17.168  17.262   9.064
    1HEX    C1A 2269  17.086  17.390   9.087
    1HEX    H1C 2270   0.486  17.290   7.914
    1HEX    H1D 2271   0.250  17.195   7.977
    1HEX    H1E 2272   0.242  17.371   7.970
    1HEX    H1F 2273   0.249  17.376   8.225
    1HEX    H1G 2274   0.246  17.201   8.227
    1HEX    H1H 2275  17.261  17.348   8.138
    1HEX    H1I 2276  17.284   0.079   8.153
    1HEX    H1J 2277  17.414   0.126   8.389
    1HEX    H1K 2278  17.307   0.095   8.523
    1HEX    H1M 2279  17.078   0.470   8.392
    1HEX    H1N 2280  17.252   0.472   8.379
    1HEX    H1O 2281  17.256   0.487   8.642
    1HEX    H1P 2282  17.086   0.528   8.629
    1HEX    H1Q 2283  17.355   0.677   8.505
    1HEX    H1R 2284  17.065   0.067   8.294
    1HEX    H1S 2285  17.066  17.428   8.448
    1HEX    H1T 2286  17.089  17.100   8.134
    1HEX    H1U 2287  16.989  17.159   8.003
    1HEX    H1V 2288  16.783  17.129   8.146
    1HEX    H1W 2289  16.883  17.073   8.278
    1HEX    H1X 2290  16.856  16.943   7.973
    1HEX    H1Y 2291  17.292  17.208   8.351
    1HEX    H1Z 2292  17.236  17.262   8.499
    1HEX    H20 2293   0.076   0.018   8.533
    1HEX    H21 2294   0.172  17.321   8.554
    1HEX    H22 2295   0.016  17.125   8.702
    1HEX    H23 2296   0.028  17.183   8.865
    1HEX    H24 2297   0.437  17.088   8.756
    1HEX    H25 2298   0.467  17.080   8.928
    1HEX    H26 2299   0.462  17.347   8.774
    1HEX    H27 2300   0.608  17.253   8.798
    1HEX    H28 2301   0.421  17.421   9.005
    1HEX    H29 2302   0.104   0.107   8.754
    1HEX    H2A 2303   0.228  17.425   8.767
    1HEX    H2B 2304   0.128  17.375   9.172
    1HEX    H2C 2305   0.053   0.094   9.169
    1HEX    H2D 2306   0.285   0.193   9.227
    1HEX    H2E 2307   0.343   0.029   9.247
    1HEX    H2F 2308   0.089   0.180   9.401
    1HEX    H2G 2309  17.254  17.328   8.685
    1HEX    H2H 2310  17.309   0.046   8.729
    1HEX    H2I 2311  17.256  17.261   9.128
    1HEX    H2J 2312  17.110  17.173   9.087
    1HEX    H2K 2313  17.000  17.393   9.020
    1HEX    H2M 2314  17.146   0.038   9.065
    1HEX    H2N 2315  16.945  17.295   9.254
    1STR    S00 2316   0.459  17.295   8.045
    1STR    S0E 2317  17.227   0.701   8.537
    1STR    S0M 2318  16.872  16.909   8.101
    1STR    S0X 2319   0.535  17.350   9.003
    1STR    S14 2320   0.186   0.090   9.421
    1STR    S1B 2321  17.030  17.398   9.259
    1HEX    C01 2322   0.278  17.286  12.389
    1HEX    C02 2323   0.216  17.288  12.529
    1HEX    C03 2324   0.065  17.289  12.520
    1HEX    O04 2325   0.003  17.190  12.482
    1HEX    O05 2326   0.012  17.408  12.554
    1HEX    C06 2327  17.311  17.424  12.559
    1HEX    C07 2328  17.260  17.421  12.706
    1HEX    C08 2329  17.310   0.109  12.776
    1HEX    O09 2330  17.244   0.230  12.740
    1HEX    C0A 2331  17.177   0.298  12.835
    1HEX    O0B 2332  17.132   0.251  12.939
    1HEX    C0C 2333  17.170   0.448  12.806
    1HEX    C0D 2334  17.181   0.530  12.935
    1HEX    C0F 2335  17.105  17.420  12.706
    1HEX    O0G 2336  17.058  17.297  12.650
    1HEX    C0H 2337  17.006  17.294  12.526
    1HEX    O0I 2338  16.973  17.391  12.459
    1HEX    C0J 2339  16.996  17.153  12.471
    1HEX    C0K 2340  16.876  17.078  12.529
    1HEX    C0N 2341  17.306  17.291  12.781
    1HEX    O0O 2342   0.002  17.273  12.824
    1HEX    C0P 2343   0.068  17.354  12.923
    1HEX    C0Q 2344   0.033  17.342  13.075
    1HEX    C0R 2345   0.067  17.199  13.124
    1HEX    O0S 2346   0.208  17.174  13.119
    1HEX    C0T 2347   0.279  17.167  13.234
    1HEX    O0U 2348   0.235  17.175  13.348
    1HEX    C0V 2349   0.428  17.144  13.209
    1HEX    C0W 2350   0.510  17.274  13.200
    1HEX    C0Y 2351   0.123   0.005  13.148
    1HEX    O0Z 2352   0.101   0.001  13.288
    1HEX    C10 2353   0.187   0.059  13.370
    1HEX    O11 2354   0.289   0.120  13.336
    1HEX    C12 2355   0.147   0.041  13.515
    1HEX    C13 2356   0.254   0.092  13.613
    1HEX    C15 2357  17.325  17.380  13.107
    1HEX    O16 2358  17.287  17.360  13.243
    1HEX    C17 2359  17.213  17.254  13.279
    1HEX    O18 2360  17.180  17.161  13.206
    1HEX    C19 2361  17.168  17.262  13.424
    1HEX    C1A 2362  17.086  17.390  13.447
    1HEX    H1C 2363   0.486  17.289  12.275
    1HEX    H1D 2364   0.249  17.195  12.337
    1HEX    H1E 2365   0.243  17.371  12.331
    1HEX    H1F 2366   0.249  17.376  12.585
    1HEX    H1G 2367   0.246  17.201  12.587
    1HEX    H1H 2368  17.261  17.348  12.498
    1HEX    H1I 2369  17.284   0.079  12.513
    1HEX    H1J 2370  17.414   0.126  12.749
    1HEX    H1K 2371  17.307   0.095  12.883
    1HEX    H1M 2372  17.078   0.470  12.752
    1HEX    H1N 2373  17.252   0.472  12.739
    1HEX    H1O 2374  17.256   0.487  13.002
    1HEX    H1P 2375  17.086   0.528  12.989
    1HEX    H1Q 2376  17.355   0.677  12.865
    1HEX    H1R 2377  17.065   0.067  12.654
    1HEX    H1S 2378  17.066  17.428  12.808
    1HEX    H1T 2379  17.089  17.100  12.494
    1HEX    H1U 2380  16.989  17.159  12.363
    1HEX    H1V 2381  16.783  17.129  12.506
    1HEX    H1W 2382  16.883  17.073  12.638
    1HEX    H1X 2383  16.856  16.943  12.333
    1HEX    H1Y 2384  17.292  17.208  12.711
    1HEX    H1Z 2385  17.236  17.262  12.859
    1HEX    H20 2386   0.076   0.018  12.893
    1HEX    H21 2387   0.172  17.321  12.914
    1HEX    H22 2388   0.016  17.125  13.062
    1HEX    H23 2389   0.028  17.183  13.225
    1HEX    H24 2390   0.437  17.088  13.116
    1HEX    H25 2391   0.467  17.080  13.288
    1HEX    H26 2392   0.462  17.347  13.134
    1HEX    H27 2393   0.608  17.253  13.158
    1HEX    H28 2394   0.421  17.421  13.365
    1HEX    H29 2395   0.104   0.107  13.114
    1HEX    H2A 2396   0.228  17.425  13.127
    1HEX    H2B 2397   0.127  17.375  13.532
    1HEX    H2C 2398   0.053   0.094  13.529
    1HEX    H2D 2399   0.285   0.193  13.587
    1HEX    H2E 2400   0.343   0.029  13.607
    1HEX    H2F 2401   0.089   0.180  13.761
    1HEX    H2G 2402  17.254  17.328  13.045
    1HEX    H2H 2403  17.309   0.046  13.089
    1HEX    H2I 2404  17.256  17.261  13.488
    1HEX    H2J 2405  17.110  17.173  13.447
    1HEX    H2K 2406  17.000  17.393  13.380
    1HEX    H2M 2407  17.146   0.038  13.425
    1HEX    H2N 2408  16.945  17.295  13.613
    1STR    S00 2409   0.459  17.295  12.406
    1STR    S0E 2410  17.228   0.701  12.897
    1STR    S0M 2411  16.872  16.909  12.461
    1STR    S0X 2412   0.535  17.350  13.363
    1STR    S14 2413   0.186   0.090  13.781
    1STR    S1B 2414  17.030  17.398  13.619
    1HEX    C01 2415   0.043   4.887  17.041
    1HEX    C02 2416   0.094   4.753  17.106
    1HEX    C03 2417   0.063   4.615  17.041
    1HEX    O04 2418   0.156   4.542  17.009
    1HEX    O05 2419  17.372   4.578  17.034
    1HEX    C06 2420  17.333   4.444  16.991
    1HEX    C07 2421  17.247   4.365  17.097
    1HEX    C08 2422  17.215   4.457  17.215
    1HEX    O09 2423  17.139   4.565  17.166
    1HEX    C0A 2424  17.125   4.675  17.237
    1HEX    O0B 2425  17.153   4.687  17.356
    1HEX    C0C 2426  17.072   4.788  17.151
    1HEX    C0D 2427  17.052   4.917  17.231
    1HEX    C0F 2428  17.107   4.329  17.038
    1HEX    O0G 2429  17.108   4.218  16.950
    1HEX    C0H 2430  17.010   4.203  16.860
    1HEX    O0I 2431  16.930   4.290  16.827
    1HEX    C0J 2432  17.002   4.062  16.803
    1HEX    C0K 2433  16.884   3.988  16.868
    1HEX    C0N 2434  17.311   4.228  17.141
    1HEX    O0O 2435   0.008   4.217  17.180
    1HEX    C0P 2436   0.069   4.298  17.280
    1HEX    C0Q 2437   0.041   4.269  17.432
    1HEX    C0R 2438   0.078   4.123   0.029
    1HEX    O0S 2439   0.220   4.102   0.029
    1HEX    C0T 2440   0.286   4.087   0.147
    1HEX    O0U 2441   0.236   4.089   0.259
    1HEX    C0V 2442   0.435   4.065   0.127
    1HEX    C0W 2443   0.516   4.196   0.120
    1HEX    C0Y 2444   0.130   4.369   0.069
    1HEX    O0Z 2445   0.108   4.359   0.208
    1HEX    C10 2446   0.192   4.419   0.291
    1HEX    O11 2447   0.292   4.483   0.259
    1HEX    C12 2448   0.149   4.401   0.436
    1HEX    C13 2449   0.255   4.452   0.535
    1HEX    C15 2450  17.333   4.297   0.030
    1HEX    O16 2451  17.299   4.270   0.165
    1HEX    C17 2452  17.216   4.170   0.197
    1HEX    O18 2453  17.174   4.084   0.121
    1HEX    C19 2454  17.171   4.178   0.342
    1HEX    C1A 2455  17.090   4.307   0.364
    1HEX    H1D 2456   0.131   4.941  17.004
    1HEX    H1E 2457  17.426   4.863  16.951
    1HEX    H1F 2458   0.074   4.749  17.213
    1HEX    H1G 2459   0.203   4.758  17.100
    1HEX    H1H 2460  17.418   4.383  16.960
    1HEX    H1I 2461  17.275   4.456  16.900
    1HEX    H1J 2462  17.306   4.497  17.260
    1HEX    H1K 2463  17.157   4.408  17.293
    1HEX    H1M 2464  16.979   4.757  17.103
    1HEX    H1N 2465  17.145   4.803  17.072
    1HEX    H1O 2466  17.142   4.938  17.288
    1HEX    H1P 2467  16.971   4.905  17.303
    1HEX    H1Q 2468  17.134   5.114  17.128
    1HEX    H1R 2469  17.061   4.416  16.990
    1HEX    H1S 2470  17.037   4.303  17.119
    1HEX    H1T 2471  17.096   4.010  16.821
    1HEX    H1U 2472  16.988   4.070  16.695
    1HEX    H1V 2473  16.790   4.039  16.847
    1HEX    H1W 2474  16.896   3.986  16.976
    1HEX    H1X 2475  16.851   3.848  16.678
    1HEX    H1Y 2476  17.310   4.161  17.055
    1HEX    H1Z 2477  17.247   4.175  17.211
    1HEX    H20 2478   0.057   4.402  17.254
    1HEX    H21 2479   0.175   4.279  17.265
    1HEX    H22 2480   0.032   4.053  17.400
    1HEX    H23 2481   0.036   4.097   0.126
    1HEX    H24 2482   0.448   4.009   0.035
    1HEX    H25 2483   0.472   4.002   0.208
    1HEX    H26 2484   0.468   4.268   0.054
    1HEX    H27 2485   0.615   4.176   0.079
    1HEX    H28 2486   0.423   4.342   0.284
    1HEX    H29 2487   0.110   4.472   0.038
    1HEX    H2A 2488   0.235   4.351   0.047
    1HEX    H2B 2489   0.129   4.295   0.452
    1HEX    H2C 2490   0.055   4.455   0.448
    1HEX    H2D 2491   0.286   4.553   0.509
    1HEX    H2E 2492   0.344   4.389   0.530
    1HEX    H2F 2493   0.088   4.539   0.681
    1HEX    H2G 2494  17.265   4.243  17.405
    1HEX    H2H 2495  17.313   4.403   0.017
    1HEX    H2I 2496  17.259   4.176   0.406
    1HEX    H2J 2497  17.111   4.090   0.365
    1HEX    H2K 2498  17.004   4.310   0.297
    1HEX    H2M 2499  17.151   4.394   0.342
    1HEX    H2N 2500  16.946   4.215   0.531
    1STR    S00 2501  17.385   5.011  17.143
    1STR    S0E 2502  17.016   5.052  17.115
    1STR    S0M 2503  16.878   3.818  16.805
    1STR    S0X 2504   0.537   4.271   0.284
    1STR    S14 2505   0.185   4.449   0.702
    1STR    S1B 2506  17.034   4.316   0.536
    1HEX    C01 2507   0.270   4.210   3.663
    1HEX    C02 2508   0.210   4.216   3.803
    1HEX    C03 2509   0.060   4.194   3.800
    1HEX    O04 2510   0.012   4.085   3.769
    1HEX    O05 2511  17.430   4.303   3.837
    1HEX    C06 2512  17.291   4.290   3.866
    1HEX    C07 2513  17.263   4.279   4.019
    1HEX    C08 2514  17.264   4.422   4.081
    1HEX    O09 2515  17.176   4.524   4.037
    1HEX    C0A 2516  17.146   4.620   4.128
    1HEX    O0B 2517  17.122   4.598   4.247
    1HEX    C0C 2518  17.158   4.764   4.076
    1HEX    C0D 2519  17.174   4.864   4.193
    1HEX    C0F 2520  17.128   4.203   4.038
    1HEX    O0G 2521  17.152   4.060   4.034
    1HEX    C0H 2522  17.130   3.986   3.923
    1HEX    O0I 2523  17.058   4.022   3.830
    1HEX    C0J 2524  17.209   3.853   3.914
    1HEX    C0K 2525  17.218   3.761   4.039
    1HEX    C0N 2526  17.370   4.197   4.099
    1HEX    O0O 2527   0.064   4.246   4.099
    1HEX    C0P 2528   0.111   4.339   4.197
    1HEX    C0Q 2529   0.172   4.285   4.331
    1HEX    C0R 2530   0.223   4.139   4.295
    1HEX    O0S 2531   0.316   4.063   4.375
    1HEX    C0T 2532   0.291   3.928   4.391
    1HEX    O0U 2533   0.180   3.876   4.377
    1HEX    C0V 2534   0.410   3.832   4.408
    1HEX    C0W 2535   0.530   3.860   4.500
    1HEX    C0Y 2536   0.281   4.394   4.370
    1HEX    O0Z 2537   0.261   4.446   4.501
    1HEX    C10 2538   0.255   4.574   4.537
    1HEX    O11 2539   0.292   4.670   4.470
    1HEX    C12 2540   0.193   4.589   4.677
    1HEX    C13 2541   0.296   4.583   4.792
    1HEX    C15 2542   0.062   4.275   4.443
    1HEX    O16 2543   0.121   4.268   4.573
    1HEX    C17 2544   0.183   4.158   4.615
    1HEX    O18 2545   0.131   4.048   4.606
    1HEX    C19 2546   0.311   4.180   4.700
    1HEX    C1A 2547   0.444   4.255   4.654
    1HEX    H1C 2548   0.479   4.207   3.548
    1HEX    H1D 2549   0.241   4.118   3.612
    1HEX    H1E 2550   0.235   4.293   3.601
    1HEX    H1F 2551   0.231   4.311   3.852
    1HEX    H1G 2552   0.251   4.138   3.866
    1HEX    H1H 2553  17.248   4.207   3.810
    1HEX    H1I 2554  17.241   4.378   3.825
    1HEX    H1J 2555  17.361   4.465   4.055
    1HEX    H1K 2556  17.261   4.412   4.189
    1HEX    H1M 2557  17.071   4.789   4.016
    1HEX    H1N 2558  17.245   4.769   4.011
    1HEX    H1O 2559  17.249   4.829   4.265
    1HEX    H1P 2560  17.081   4.872   4.249
    1HEX    H1Q 2561  17.355   5.007   4.128
    1HEX    H1R 2562  17.054   4.234   3.964
    1HEX    H1S 2563  17.084   4.228   4.135
    1HEX    H1T 2564  17.310   3.882   3.882
    1HEX    H1U 2565  17.168   3.797   3.830
    1HEX    H1V 2566  17.125   3.705   4.049
    1HEX    H1W 2567  17.227   3.821   4.130
    1HEX    H1Y 2568  17.380   4.099   4.052
    1HEX    H1Z 2569  17.336   4.177   4.201
    1HEX    H20 2570   0.046   4.424   4.217
    1HEX    H21 2571   0.193   4.382   4.139
    1HEX    H22 2572   0.265   4.138   4.195
    1HEX    H23 2573   0.131   4.081   4.285
    1HEX    H24 2574   0.447   3.816   4.307
    1HEX    H25 2575   0.367   3.736   4.439
    1HEX    H26 2576   0.588   3.944   4.464
    1HEX    H27 2577   0.599   3.776   4.493
    1HEX    H28 2578   0.484   4.008   4.675
    1HEX    H29 2579   0.281   4.480   4.303
    1HEX    H2A 2580   0.380   4.351   4.363
    1HEX    H2B 2581   0.120   4.508   4.687
    1HEX    H2C 2582   0.135   4.681   4.681
    1HEX    H2D 2583   0.323   4.683   4.826
    1HEX    H2E 2584   0.388   4.536   4.759
    1HEX    H2F 2585   0.136   4.572   4.972
    1HEX    H2G 2586  17.432   4.192   4.428
    1HEX    H2H 2587  17.440   4.365   4.442
    1HEX    H2I 2588   0.334   4.083   4.742
    1HEX    H2J 2589   0.272   4.236   4.785
    1HEX    H2K 2590   0.500   4.267   4.746
    1HEX    H2M 2591   0.425   4.357   4.624
    1STR    S00 2592   0.451   4.218   3.679
    1STR    S0E 2593  17.223   5.028   4.133
    1STR    S0M 2594  17.360   3.640   4.032
    1STR    S0X 2595   0.491   3.874   4.676
    1STR    S14 2596   0.231   4.486   4.931
    1STR    S1B 2597   0.575   4.187   4.537
    1HEX    C01 2598   0.299   4.197   8.022
    1HEX    C02 2599   0.243   4.191   8.164
    1HEX    C03 2600   0.093   4.213   8.159
    1HEX    O04 2601   0.016   4.124   8.123
    1HEX    O05 2602   0.061   4.337   8.195
    1HEX    C06 2603  17.365   4.373   8.209
    1HEX    C07 2604  17.323   4.369   8.358
    1HEX    C08 2605  17.388   4.493   8.433
    1HEX    O09 2606   0.090   4.520   8.408
    1HEX    C0A 2607   0.168   4.593   8.497
    1HEX    O0B 2608   0.128   4.634   8.605
    1HEX    C0C 2609   0.315   4.622   8.451
    1HEX    C0D 2610   0.432   4.596   8.556
    1HEX    C0F 2611  17.166   4.381   8.355
    1HEX    O0G 2612  17.110   4.258   8.303
    1HEX    C0H 2613  17.036   4.254   8.191
    1HEX    O0I 2614  16.987   4.350   8.134
    1HEX    C0J 2615  17.022   4.112   8.135
    1HEX    C0K 2616  16.896   4.040   8.185
    1HEX    C0N 2617  17.345   4.226   8.423
    1HEX    O0O 2618   0.030   4.179   8.472
    1HEX    C0P 2619   0.097   4.245   8.579
    1HEX    C0Q 2620   0.050   4.235   8.727
    1HEX    C0R 2621   0.082   4.093   8.781
    1HEX    O0S 2622   0.222   4.069   8.776
    1HEX    C0T 2623   0.297   4.073   8.888
    1HEX    O0U 2624   0.254   4.085   9.003
    1HEX    C0V 2625   0.446   4.061   8.859
    1HEX    C0W 2626   0.518   4.197   8.847
    1HEX    C0Y 2627   0.133   4.342   8.801
    1HEX    O0Z 2628   0.110   4.341   8.940
    1HEX    C10 2629   0.189   4.413   9.019
    1HEX    O11 2630   0.285   4.480   8.981
    1HEX    C12 2631   0.147   4.404   9.164
    1HEX    C13 2632   0.256   4.454   9.259
    1HEX    C15 2633  17.340   4.268   8.749
    1HEX    O16 2634  17.297   4.260   8.884
    1HEX    C17 2635  17.215   4.161   8.925
    1HEX    O18 2636  17.174   4.068   8.857
    1HEX    C19 2637  17.170   4.179   9.070
    1HEX    C1A 2638  17.090   4.308   9.085
    1HEX    H1C 2639   0.501   4.206   7.899
    1HEX    H1D 2640   0.265   4.110   7.964
    1HEX    H1E 2641   0.263   4.286   7.970
    1HEX    H1F 2642   0.286   4.269   8.226
    1HEX    H1G 2643   0.263   4.096   8.212
    1HEX    H1H 2644  17.302   4.310   8.147
    1HEX    H1I 2645  17.352   4.474   8.170
    1HEX    H1J 2646  17.370   4.484   8.540
    1HEX    H1K 2647  17.335   4.584   8.405
    1HEX    H1M 2648   0.316   4.727   8.423
    1HEX    H1N 2649   0.333   4.565   8.360
    1HEX    H1O 2650   0.421   4.498   8.600
    1HEX    H1P 2651   0.419   4.666   8.640
    1HEX    H1R 2652  17.132   4.467   8.298
    1HEX    H1S 2653  17.125   4.394   8.455
    1HEX    H1T 2654  17.111   4.055   8.160
    1HEX    H1U 2655  17.019   4.119   8.026
    1HEX    H1V 2656  16.806   4.093   8.155
    1HEX    H1W 2657  16.896   4.034   8.294
    1HEX    H1X 2658  16.874   3.902   7.989
    1HEX    H1Y 2659  17.323   4.153   8.346
    1HEX    H1Z 2660  17.266   4.203   8.494
    1HEX    H20 2661   0.114   4.348   8.553
    1HEX    H21 2662   0.198   4.204   8.574
    1HEX    H22 2663   0.030   4.018   8.721
    1HEX    H23 2664   0.043   4.081   8.882
    1HEX    H24 2665   0.456   4.006   8.765
    1HEX    H25 2666   0.491   4.000   8.936
    1HEX    H26 2667   0.466   4.265   8.781
    1HEX    H27 2668   0.617   4.182   8.804
    1HEX    H28 2669   0.424   4.344   9.008
    1HEX    H29 2670   0.110   4.442   8.765
    1HEX    H2A 2671   0.240   4.326   8.782
    1HEX    H2B 2672   0.123   4.300   9.185
    1HEX    H2C 2673   0.055   4.462   9.175
    1HEX    H2D 2674   0.289   4.554   9.231
    1HEX    H2E 2675   0.344   4.389   9.253
    1HEX    H2F 2676   0.092   4.544   9.406
    1HEX    H2G 2677  17.277   4.201   8.691
    1HEX    H2H 2678  17.318   4.369   8.716
    1HEX    H2I 2679  17.258   4.179   9.133
    1HEX    H2J 2680  17.110   4.092   9.097
    1HEX    H2K 2681  17.005   4.310   9.016
    1HEX    H2M 2682  17.152   4.394   9.062
    1HEX    H2N 2683  16.944   4.220   9.252
    1STR    S00 2684   0.480   4.200   8.031
    1STR    S0E 2685   0.609   4.615   8.492
    1STR    S0M 2686  16.892   3.871   8.118
    1STR    S0X 2687   0.540   4.276   9.010
    1STR    S14 2688   0.190   4.455   9.428
    1STR    S1B 2689  17.029   4.323   9.256
    1HEX    C01 2690   0.264   4.215  12.401
    1HEX    C02 2691   0.203   4.228  12.541
    1HEX    C03 2692   0.052   4.248  12.533
    1HEX    O04 2693  17.420   4.161  12.485
    1HEX    O05 2694   0.012   4.368  12.580
    1HEX    C06 2695  17.314   4.402  12.580
    1HEX    C07 2696  17.251   4.392  12.722
    1HEX    C08 2697  17.294   4.516  12.809
    1HEX    O09 2698  17.248   4.651  12.787
    1HEX    C0A 2699  17.265   4.741  12.892
    1HEX    O0B 2700  17.287   4.706  13.008
    1HEX    C0C 2701  17.260   4.893  12.858
    1HEX    C0D 2702  17.305   4.983  12.980
    1HEX    C0F 2703  17.096   4.388  12.706
    1HEX    O0G 2704  17.056   4.261  12.654
    1HEX    C0H 2705  17.010   4.246  12.528
    1HEX    O0I 2706  16.978   4.337  12.453
    1HEX    C0J 2707  17.008   4.100  12.482
    1HEX    C0K 2708  16.887   4.024  12.538
    1HEX    C0N 2709  17.289   4.254  12.789
    1HEX    O0O 2710  17.421   4.224  12.836
    1HEX    C0P 2711   0.049   4.295  12.941
    1HEX    C0Q 2712   0.008   4.281  13.091
    1HEX    C0R 2713   0.036   4.136  13.139
    1HEX    O0S 2714   0.176   4.104  13.129
    1HEX    C0T 2715   0.253   4.093  13.240
    1HEX    O0U 2716   0.214   4.103  13.356
    1HEX    C0V 2717   0.400   4.065  13.208
    1HEX    C0W 2718   0.489   4.191  13.200
    1HEX    C0Y 2719   0.104   4.378  13.165
    1HEX    O0Z 2720   0.083   4.373  13.304
    1HEX    C10 2721   0.178   4.420  13.385
    1HEX    O11 2722   0.283   4.473  13.348
    1HEX    C12 2723   0.142   4.401  13.531
    1HEX    C13 2724   0.252   4.452  13.625
    1HEX    C15 2725  17.302   4.329  13.119
    1HEX    O16 2726  17.230   4.287  13.236
    1HEX    C17 2727  17.122   4.206  13.221
    1HEX    O18 2728  17.110   4.123  13.132
    1HEX    C19 2729  17.006   4.233  13.318
    1HEX    C1A 2730  16.888   4.309  13.248
    1HEX    H1C 2731   0.470   4.204  12.283
    1HEX    H1D 2732   0.229   4.124  12.352
    1HEX    H1E 2733   0.233   4.299  12.338
    1HEX    H1F 2734   0.247   4.312  12.594
    1HEX    H1G 2735   0.223   4.139  12.600
    1HEX    H1H 2736  17.260   4.339  12.509
    1HEX    H1I 2737  17.302   4.503  12.541
    1HEX    H1J 2738  17.401   4.526  12.799
    1HEX    H1K 2739  17.272   4.489  12.912
    1HEX    H1M 2740  17.159   4.918  12.826
    1HEX    H1N 2741  17.326   4.910  12.773
    1HEX    H1O 2742  17.408   4.959  13.006
    1HEX    H1P 2743  17.247   4.955  13.067
    1HEX    H1R 2744  17.059   4.471  12.646
    1HEX    H1S 2745  17.048   4.399  12.804
    1HEX    H1T 2746  17.101   4.052  12.512
    1HEX    H1U 2747  17.006   4.100  12.373
    1HEX    H1V 2748  16.793   4.073  12.512
    1HEX    H1W 2749  16.892   4.019  12.647
    1HEX    H1X 2750  16.866   3.886  12.343
    1HEX    H1Y 2751  17.277   4.178  12.711
    1HEX    H1Z 2752  17.214   4.219  12.859
    1HEX    H20 2753   0.064   4.399  12.914
    1HEX    H21 2754   0.150   4.255  12.932
    1HEX    H22 2755  17.420   4.065  13.078
    1HEX    H23 2756  -0.000   4.122  13.241
    1HEX    H24 2757   0.404   4.012  13.113
    1HEX    H25 2758   0.440   3.997  13.283
    1HEX    H26 2759   0.444   4.268  13.138
    1HEX    H27 2760   0.585   4.166  13.155
    1HEX    H28 2761   0.415   4.340  13.370
    1HEX    H29 2762   0.091   4.481  13.132
    1HEX    H2A 2763   0.208   4.352  13.142
    1HEX    H2B 2764   0.124   4.295  13.547
    1HEX    H2C 2765   0.048   4.454  13.547
    1HEX    H2D 2766   0.285   4.552  13.595
    1HEX    H2E 2767   0.340   4.387  13.619
    1HEX    H2F 2768   0.091   4.549  13.771
    1HEX    H2G 2769  17.238   4.308  13.035
    1HEX    H2H 2770  17.302   4.438  13.124
    1HEX    H2I 2771  17.042   4.286  13.406
    1HEX    H2J 2772  16.972   4.136  13.353
    1HEX    H2K 2773  16.883   4.279  13.143
    1HEX    H2M 2774  16.910   4.416  13.247
    1STR    S00 2775   0.445   4.213  12.414
    1STR    S0E 2776  17.290   5.168  12.966
    1STR    S0M 2777  16.887   3.854  12.471
    1STR    S0X 2778   0.524   4.261  13.364
    1STR    S14 2779   0.187   4.458  13.794
    1STR    S1B 2780  16.720   4.285  13.320
    1HEX    C01 2781   0.274   8.566  16.746
    1HEX    C02 2782   0.209   8.568  16.885
    1HEX    C03 2783   0.058   8.554  16.874
    1HEX    O04 2784   0.006   8.449  16.837
    1HEX    O05 2785  17.433   8.667  16.908
    1HEX    C06 2786  17.292   8.664  16.924
    1HEX    C07 2787  17.254   8.655  17.074
    1HEX    C08 2788  17.280   8.793  17.138
    1HEX    O09 2789  17.199   8.905  17.102
    1HEX    C0A 2790  17.165   8.991  17.201
    1HEX    O0B 2791  17.141   8.959  17.317
    1HEX    C0C 2792  17.167   9.138  17.159
    1HEX    C0D 2793  17.179   9.231  17.282
    1HEX    C0F 2794  17.105   8.612  17.087
    1HEX    O0G 2795  17.094   8.469  17.074
    1HEX    C0H 2796  17.061   8.410  16.957
    1HEX    O0I 2797  17.008   8.468  16.863
    1HEX    C0J 2798  17.101   8.262  16.947
    1HEX    C0K 2799  17.084   8.179  17.077
    1HEX    C0N 2800  17.336   8.544  17.151
    1HEX    O0O 2801   0.034   8.565  17.183
    1HEX    C0P 2802   0.080   8.652  17.287
    1HEX    C0Q 2803   0.041   8.631  17.437
    1HEX    C0R 2804   0.073   8.485   0.039
    1HEX    O0S 2805   0.213   8.460   0.037
    1HEX    C0T 2806   0.282   8.448   0.152
    1HEX    O0U 2807   0.235   8.453   0.266
    1HEX    C0V 2808   0.431   8.424   0.130
    1HEX    C0W 2809   0.513   8.554   0.121
    1HEX    C0Y 2810   0.130   8.730   0.076
    1HEX    O0Z 2811   0.106   8.721   0.215
    1HEX    C10 2812   0.189   8.780   0.299
    1HEX    O11 2813   0.289   8.845   0.266
    1HEX    C12 2814   0.148   8.761   0.444
    1HEX    C13 2815   0.254   8.811   0.542
    1HEX    C15 2816  17.333   8.669   0.028
    1HEX    O16 2817  17.293   8.644   0.162
    1HEX    C17 2818  17.215   8.539   0.192
    1HEX    O18 2819  17.179   8.451   0.115
    1HEX    C19 2820  17.169   8.543   0.337
    1HEX    C1A 2821  17.087   8.670   0.363
    1HEX    H1C 2822   0.484   8.572  16.636
    1HEX    H1D 2823   0.250   8.473  16.694
    1HEX    H1E 2824   0.236   8.648  16.685
    1HEX    H1F 2825   0.233   8.659  16.939
    1HEX    H1G 2826   0.245   8.484  16.945
    1HEX    H1H 2827  17.247   8.584  16.866
    1HEX    H1I 2828  17.251   8.755  16.881
    1HEX    H1J 2829  17.381   8.825  17.110
    1HEX    H1K 2830  17.280   8.782  17.245
    1HEX    H1M 2831  17.078   9.162  17.101
    1HEX    H1N 2832  17.252   9.153  17.093
    1HEX    H1O 2833  17.254   9.195  17.352
    1HEX    H1P 2834  17.084   9.234  17.337
    1HEX    H1Q 2835  17.354   9.379  17.214
    1HEX    H1R 2836  17.042   8.665  17.014
    1HEX    H1S 2837  17.065   8.641  17.184
    1HEX    H1T 2838  17.205   8.258  16.914
    1HEX    H1U 2839  17.042   8.218  16.867
    1HEX    H1V 2840  16.985   8.198  17.118
    1HEX    H1W 2841  17.155   8.212  17.153
    1HEX    H1Y 2842  17.338   8.457  17.086
    1HEX    H1Z 2843  17.283   8.506  17.238
    1HEX    H20 2844   0.069   8.757  17.260
    1HEX    H21 2845   0.188   8.637  17.281
    1HEX    H22 2846   0.023   8.414  17.412
    1HEX    H23 2847   0.032   8.464   0.138
    1HEX    H24 2848   0.441   8.367   0.037
    1HEX    H25 2849   0.469   8.361   0.210
    1HEX    H26 2850   0.466   8.626   0.053
    1HEX    H27 2851   0.612   8.532   0.080
    1HEX    H28 2852   0.421   8.701   0.285
    1HEX    H29 2853   0.113   8.833   0.045
    1HEX    H2A 2854   0.236   8.710   0.057
    1HEX    H2B 2855   0.128   8.655   0.459
    1HEX    H2C 2856   0.053   8.813   0.457
    1HEX    H2D 2857   0.286   8.913   0.517
    1HEX    H2E 2858   0.343   8.748   0.537
    1HEX    H2F 2859   0.088   8.901   0.688
    1HEX    H2G 2860  17.261   8.623  17.401
    1HEX    H2H 2861  17.320   8.776   0.015
    1HEX    H2I 2862  17.257   8.539   0.401
    1HEX    H2J 2863  17.110   8.453   0.358
    1HEX    H2K 2864  17.000   8.675   0.297
    1HEX    H2M 2865  17.147   8.759   0.343
    1HEX    H2N 2866  16.946   8.573   0.530
    1STR    S00 2867   0.454   8.581  16.766
    1STR    S0E 2868  17.223   9.400  17.231
    1STR    S0M 2869  17.098   7.996  17.053
    1STR    S0X 2870   0.536   8.632   0.284
    1STR    S14 2871   0.184   8.810   0.710
    1STR    S1B 2872  17.033   8.674   0.537
    1HEX    C01 2873   0.278   8.566   3.669
    1HEX    C02 2874   0.216   8.569   3.809
    1HEX    C03 2875   0.065   8.570   3.800
    1HEX    O04 2876   0.003   8.470   3.762
    1HEX    O05 2877   0.012   8.688   3.834
    1HEX    C06 2878  17.311   8.704   3.840
    1HEX    C07 2879  17.260   8.701   3.986
    1HEX    C08 2880  17.310   8.830   4.056
    1HEX    O09 2881  17.244   8.950   4.021
    1HEX    C0A 2882  17.177   9.019   4.115
    1HEX    O0B 2883  17.132   8.971   4.219
    1HEX    C0C 2884  17.169   9.168   4.086
    1HEX    C0D 2885  17.181   9.250   4.215
    1HEX    C0F 2886  17.105   8.700   3.986
    1HEX    O0G 2887  17.058   8.578   3.930
    1HEX    C0H 2888  17.006   8.575   3.806
    1HEX    O0I 2889  16.973   8.672   3.739
    1HEX    C0J 2890  16.996   8.433   3.751
    1HEX    C0K 2891  16.876   8.358   3.809
    1HEX    C0N 2892  17.306   8.571   4.061
    1HEX    O0O 2893   0.002   8.554   4.104
    1HEX    C0P 2894   0.068   8.634   4.203
    1HEX    C0Q 2895   0.033   8.623   4.355
    1HEX    C0R 2896   0.066   8.479   4.404
    1HEX    O0S 2897   0.207   8.455   4.399
    1HEX    C0T 2898   0.279   8.447   4.514
    1HEX    O0U 2899   0.234   8.456   4.628
    1HEX    C0V 2900   0.428   8.424   4.489
    1HEX    C0W 2901   0.510   8.554   4.480
    1HEX    C0Y 2902   0.123   8.725   4.428
    1HEX    O0Z 2903   0.101   8.721   4.568
    1HEX    C10 2904   0.188   8.779   4.650
    1HEX    O11 2905   0.289   8.840   4.616
    1HEX    C12 2906   0.147   8.761   4.795
    1HEX    C13 2907   0.254   8.812   4.893
    1HEX    C15 2908  17.325   8.661   4.387
    1HEX    O16 2909  17.287   8.641   4.523
    1HEX    C17 2910  17.213   8.535   4.559
    1HEX    O18 2911  17.180   8.442   4.486
    1HEX    C19 2912  17.168   8.543   4.704
    1HEX    C1A 2913  17.086   8.671   4.727
    1HEX    H1C 2914   0.486   8.570   3.555
    1HEX    H1D 2915   0.249   8.475   3.617
    1HEX    H1E 2916   0.242   8.651   3.610
    1HEX    H1F 2917   0.249   8.656   3.865
    1HEX    H1G 2918   0.246   8.481   3.867
    1HEX    H1H 2919  17.261   8.629   3.778
    1HEX    H1I 2920  17.284   8.799   3.793
    1HEX    H1J 2921  17.414   8.847   4.029
    1HEX    H1K 2922  17.307   8.816   4.163
    1HEX    H1M 2923  17.077   9.191   4.032
    1HEX    H1N 2924  17.252   9.192   4.019
    1HEX    H1O 2925  17.256   9.207   4.283
    1HEX    H1P 2926  17.086   9.249   4.270
    1HEX    H1Q 2927  17.355   9.398   4.145
    1HEX    H1R 2928  17.065   8.787   3.934
    1HEX    H1S 2929  17.066   8.708   4.088
    1HEX    H1T 2930  17.089   8.381   3.774
    1HEX    H1U 2931  16.989   8.439   3.643
    1HEX    H1V 2932  16.783   8.410   3.786
    1HEX    H1W 2933  16.883   8.353   3.918
    1HEX    H1X 2934  16.856   8.224   3.613
    1HEX    H1Y 2935  17.291   8.489   3.991
    1HEX    H1Z 2936  17.236   8.543   4.139
    1HEX    H20 2937   0.076   8.738   4.173
    1HEX    H21 2938   0.172   8.602   4.194
    1HEX    H22 2939   0.015   8.405   4.342
    1HEX    H23 2940   0.028   8.463   4.505
    1HEX    H24 2941   0.437   8.368   4.396
    1HEX    H25 2942   0.467   8.360   4.568
    1HEX    H26 2943   0.462   8.627   4.414
    1HEX    H27 2944   0.608   8.533   4.439
    1HEX    H28 2945   0.421   8.701   4.645
    1HEX    H29 2946   0.104   8.827   4.394
    1HEX    H2A 2947   0.229   8.706   4.407
    1HEX    H2B 2948   0.127   8.655   4.812
    1HEX    H2C 2949   0.053   8.814   4.809
    1HEX    H2D 2950   0.286   8.913   4.867
    1HEX    H2E 2951   0.343   8.748   4.887
    1HEX    H2F 2952   0.090   8.900   5.041
    1HEX    H2G 2953  17.254   8.609   4.325
    1HEX    H2H 2954  17.309   8.767   4.369
    1HEX    H2I 2955  17.256   8.541   4.767
    1HEX    H2J 2956  17.109   8.454   4.727
    1HEX    H2K 2957  17.000   8.674   4.659
    1HEX    H2M 2958  17.146   8.759   4.705
    1HEX    H2N 2959  16.945   8.575   4.893
    1STR    S00 2960   0.459   8.575   3.686
    1STR    S0E 2961  17.228   9.422   4.177
    1STR    S0M 2962  16.872   8.190   3.741
    1STR    S0X 2963   0.535   8.630   4.644
    1STR    S14 2964   0.186   8.810   5.061
    1STR    S1B 2965  17.030   8.678   4.899
    1HEX    C01 2966   0.278   8.566   8.029
    1HEX    C02 2967   0.216   8.569   8.169
    1HEX    C03 2968   0.065   8.570   8.160
    1HEX    O04 2969   0.003   8.470   8.122
    1HEX    O05 2970   0.012   8.688   8.194
    1HEX    C06 2971  17.311   8.704   8.200
    1HEX    C07 2972  17.260   8.701   8.346
    1HEX    C08 2973  17.310   8.830   8.416
    1HEX    O09 2974  17.244   8.950   8.381
    1HEX    C0A 2975  17.177   9.019   8.475
    1HEX    O0B 2976  17.132   8.971   8.579
    1HEX    C0C 2977  17.169   9.168   8.446
    1HEX    C0D 2978  17.181   9.250   8.575
    1HEX    C0F 2979  17.105   8.700   8.346
    1HEX    O0G 2980  17.058   8.578   8.290
    1HEX    C0H 2981  17.006   8.575   8.166
    1HEX    O0I 2982  16.973   8.672   8.099
    1HEX    C0J 2983  16.996   8.433   8.111
    1HEX    C0K 2984  16.876   8.358   8.170
    1HEX    C0N 2985  17.306   8.571   8.421
    1HEX    O0O 2986   0.002   8.554   8.464
    1HEX    C0P 2987   0.068   8.634   8.563
    1HEX    C0Q 2988   0.033   8.623   8.715
    1HEX    C0R 2989   0.066   8.479   8.764
    1HEX    O0S 2990   0.207   8.455   8.759
    1HEX    C0T 2991   0.279   8.447   8.874
    1HEX    O0U 2992   0.234   8.456   8.988
    1HEX    C0V 2993   0.428   8.424   8.849
    1HEX    C0W 2994   0.510   8.554   8.840
    1HEX    C0Y 2995   0.123   8.725   8.788
    1HEX    O0Z 2996   0.101   8.721   8.927
    1HEX    C10 2997   0.188   8.779   9.010
    1HEX    O11 2998   0.289   8.840   8.976
    1HEX    C12 2999   0.147   8.761   9.155
    1HEX    C13 3000   0.254   8.812   9.253
    1HEX    C15 3001  17.325   8.661   8.747
    1HEX    O16 3002  17.287   8.641   8.883
    1HEX    C17 3003  17.213   8.535   8.919
    1HEX    O18 3004  17.180   8.442   8.846
    1HEX    C19 3005  17.168   8.543   9.064
    1HEX    C1A 3006  17.086   8.671   9.087
    1HEX    H1C 3007   0.486   8.570   7.914
    1HEX    H1D 3008   0.249   8.475   7.977
    1HEX    H1E 3009   0.242   8.651   7.970
    1HEX    H1F 3010   0.249   8.656   8.225
    1HEX    H1G 3011   0.246   8.481   8.227
    1HEX    H1H 3012  17.261   8.629   8.138
    1HEX    H1I 3013  17.284   8.799   8.153
    1HEX    H1J 3014  17.414   8.847   8.389
    1HEX    H1K 3015  17.307   8.816   8.523
    1HEX    H1M 3016  17.077   9.191   8.392
    1HEX    H1N 3017  17.252   9.192   8.379
    1HEX    H1O 3018  17.256   9.208   8.643
    1HEX    H1P 3019  17.086   9.249   8.629
    1HEX    H1Q 3020  17.355   9.398   8.505
    1HEX    H1R 3021  17.065   8.787   8.294
    1HEX    H1S 3022  17.066   8.708   8.448
    1HEX    H1T 3023  17.089   8.381   8.134
    1HEX    H1U 3024  16.989   8.439   8.003
    1HEX    H1V 3025  16.783   8.410   8.146
    1HEX    H1W 3026  16.883   8.353   8.278
    1HEX    H1X 3027  16.856   8.224   7.973
    1HEX    H1Y 3028  17.291   8.489   8.351
    1HEX    H1Z 3029  17.236   8.543   8.499
    1HEX    H20 3030   0.076   8.738   8.533
    1HEX    H21 3031   0.172   8.602   8.554
    1HEX    H22 3032   0.015   8.405   8.702
    1HEX    H23 3033   0.028   8.463   8.865
    1HEX    H24 3034   0.437   8.368   8.756
    1HEX    H25 3035   0.467   8.360   8.928
    1HEX    H26 3036   0.462   8.627   8.774
    1HEX    H27 3037   0.608   8.533   8.798
    1HEX    H28 3038   0.421   8.701   9.005
    1HEX    H29 3039   0.104   8.827   8.754
    1HEX    H2A 3040   0.229   8.706   8.767
    1HEX    H2B 3041   0.127   8.655   9.172
    1HEX    H2C 3042   0.053   8.814   9.169
    1HEX    H2D 3043   0.286   8.913   9.227
    1HEX    H2E 3044   0.343   8.748   9.247
    1HEX    H2F 3045   0.090   8.900   9.401
    1HEX    H2G 3046  17.254   8.609   8.685
    1HEX    H2H 3047  17.309   8.767   8.729
    1HEX    H2I 3048  17.256   8.541   9.127
    1HEX    H2J 3049  17.109   8.454   9.087
    1HEX    H2K 3050  17.000   8.674   9.020
    1HEX    H2M 3051  17.146   8.759   9.065
    1HEX    H2N 3052  16.945   8.575   9.253
    1STR    S00 3053   0.459   8.575   8.045
    1STR    S0E 3054  17.227   9.422   8.537
    1STR    S0M 3055  16.872   8.190   8.101
    1STR    S0X 3056   0.535   8.630   9.003
    1STR    S14 3057   0.186   8.810   9.421
    1STR    S1B 3058  17.030   8.678   9.259
    1HEX    C01 3059   0.269   8.569  12.389
    1HEX    C02 3060   0.209   8.571  12.530
    1HEX    C03 3061   0.061   8.538  12.529
    1HEX    O04 3062   0.022   8.424  12.504
    1HEX    O05 3063  17.424   8.643  12.560
    1HEX    C06 3064  17.287   8.623  12.591
    1HEX    C07 3065  17.264   8.631  12.744
    1HEX    C08 3066  17.277   8.780  12.786
    1HEX    O09 3067  17.179   8.877  12.752
    1HEX    C0A 3068  17.151   8.971  12.847
    1HEX    O0B 3069  17.136   8.947  12.966
    1HEX    C0C 3070  17.153   9.115  12.795
    1HEX    C0D 3071  17.173   9.216  12.910
    1HEX    C0F 3072  17.126   8.566  12.779
    1HEX    O0G 3073  17.139   8.424  12.801
    1HEX    C0H 3074  17.111   8.333  12.705
    1HEX    O0I 3075  17.050   8.360  12.601
    1HEX    C0J 3076  17.170   8.192  12.727
    1HEX    C0K 3077  17.171   8.132  12.871
    1HEX    C0N 3078  17.370   8.548  12.826
    1HEX    O0O 3079   0.062   8.601  12.846
    1HEX    C0P 3080   0.096   8.704  12.942
    1HEX    C0Q 3081   0.062   8.690  13.094
    1HEX    C0R 3082   0.100   8.547  13.140
    1HEX    O0S 3083   0.240   8.524  13.133
    1HEX    C0T 3084   0.304   8.467  13.237
    1HEX    O0U 3085   0.255   8.441  13.347
    1HEX    C0V 3086   0.450   8.438  13.207
    1HEX    C0W 3087   0.532   8.567  13.195
    1HEX    C0Y 3088   0.145   8.801  13.171
    1HEX    O0Z 3089   0.085   8.932  13.172
    1HEX    C10 3090   0.156   9.048  13.198
    1HEX    O11 3091   0.278   9.059  13.190
    1HEX    C12 3092   0.065   9.162  13.251
    1HEX    C13 3093   0.110   9.313  13.266
    1HEX    C15 3094  17.350   8.712  13.126
    1HEX    O16 3095  17.311   8.675  13.258
    1HEX    C17 3096  17.234   8.566  13.278
    1HEX    O18 3097  17.206   8.481  13.194
    1HEX    C19 3098  17.179   8.559  13.419
    1HEX    C1A 3099  17.086   8.678  13.446
    1HEX    H1C 3100   0.475   8.574  12.271
    1HEX    H1D 3101   0.242   8.476  12.338
    1HEX    H1E 3102   0.229   8.651  12.329
    1HEX    H1F 3103   0.225   8.667  12.579
    1HEX    H1G 3104   0.258   8.496  12.592
    1HEX    H1H 3105  17.249   8.530  12.548
    1HEX    H1I 3106  17.230   8.702  12.541
    1HEX    H1J 3107  17.370   8.818  12.744
    1HEX    H1K 3108  17.291   8.783  12.892
    1HEX    H1M 3109  17.061   9.135  12.740
    1HEX    H1N 3110  17.236   9.124  12.725
    1HEX    H1O 3111  17.263   9.193  12.967
    1HEX    H1P 3112  17.089   9.213  12.980
    1HEX    H1Q 3113  17.242   9.442  12.949
    1HEX    H1R 3114  17.051   8.589  12.702
    1HEX    H1S 3115  17.086   8.611  12.870
    1HEX    H1T 3116  17.271   8.195  12.687
    1HEX    H1U 3117  17.115   8.125  12.660
    1HEX    H1V 3118  17.070   8.124  12.910
    1HEX    H1W 3119  17.226   8.198  12.939
    1HEX    H1Y 3120  17.385   8.455  12.771
    1HEX    H1Z 3121  17.330   8.512  12.920
    1HEX    H20 3122   0.071   8.804  12.906
    1HEX    H21 3123   0.205   8.704  12.935
    1HEX    H22 3124   0.050   8.472  13.079
    1HEX    H23 3125   0.063   8.529  13.241
    1HEX    H24 3126   0.453   8.381  13.114
    1HEX    H25 3127   0.490   8.373  13.285
    1HEX    H26 3128   0.481   8.638  13.130
    1HEX    H27 3129   0.629   8.546  13.151
    1HEX    H28 3130   0.427   8.651  13.392
    1HEX    H29 3131   0.246   8.806  13.132
    1HEX    H2A 3132   0.157   8.770  13.275
    1HEX    H2B 3133   0.048   9.127  13.354
    1HEX    H2C 3134  17.408   9.153  13.204
    1HEX    H2D 3135   0.188   9.318  13.343
    1HEX    H2E 3136   0.025   9.367  13.310
    1HEX    H2G 3137  17.286   8.659  13.057
    1HEX    H2H 3138  17.323   8.816  13.113
    1HEX    H2I 3139  17.262   8.557  13.489
    1HEX    H2J 3140  17.125   8.464  13.431
    1HEX    H2K 3141  17.001   8.677  13.378
    1HEX    H2M 3142  17.140   8.772  13.428
    1HEX    H2N 3143  16.950   8.568  13.607
    1STR    S00 3144   0.449   8.583  12.402
    1STR    S0E 3145  17.189   9.383  12.841
    1STR    S0M 3146  17.250   7.964  12.871
    1STR    S0X 3147   0.556   8.642  13.359
    1STR    S14 3148   0.170   9.424  13.128
    1STR    S1B 3149  17.029   8.676  13.618
    1HEX    C01 3150   0.278  12.926  16.749
    1HEX    C02 3151   0.216  12.929  16.889
    1HEX    C03 3152   0.065  12.930  16.880
    1HEX    O04 3153   0.003  12.830  16.842
    1HEX    O05 3154   0.012  13.048  16.914
    1HEX    C06 3155  17.311  13.064  16.919
    1HEX    C07 3156  17.260  13.061  17.066
    1HEX    C08 3157  17.310  13.190  17.136
    1HEX    O09 3158  17.244  13.310  17.100
    1HEX    C0A 3159  17.177  13.379  17.195
    1HEX    O0B 3160  17.132  13.331  17.299
    1HEX    C0C 3161  17.170  13.528  17.166
    1HEX    C0D 3162  17.181  13.610  17.295
    1HEX    C0F 3163  17.105  13.061  17.066
    1HEX    O0G 3164  17.058  12.938  17.010
    1HEX    C0H 3165  17.006  12.935  16.886
    1HEX    O0I 3166  16.973  13.032  16.819
    1HEX    C0J 3167  16.996  12.793  16.831
    1HEX    C0K 3168  16.876  12.718  16.889
    1HEX    C0N 3169  17.306  12.931  17.141
    1HEX    O0O 3170   0.002  12.914  17.184
    1HEX    C0P 3171   0.068  12.995  17.283
    1HEX    C0Q 3172   0.033  12.983  17.435
    1HEX    C0R 3173   0.067  12.839   0.044
    1HEX    O0S 3174   0.208  12.815   0.039
    1HEX    C0T 3175   0.279  12.807   0.154
    1HEX    O0U 3176   0.235  12.816   0.268
    1HEX    C0V 3177   0.428  12.784   0.129
    1HEX    C0W 3178   0.510  12.915   0.120
    1HEX    C0Y 3179   0.123  13.086   0.068
    1HEX    O0Z 3180   0.101  13.081   0.208
    1HEX    C10 3181   0.188  13.139   0.290
    1HEX    O11 3182   0.289  13.200   0.256
    1HEX    C12 3183   0.147  13.122   0.435
    1HEX    C13 3184   0.254  13.172   0.533
    1HEX    C15 3185  17.325  13.021   0.027
    1HEX    O16 3186  17.287  13.001   0.163
    1HEX    C17 3187  17.213  12.895   0.199
    1HEX    O18 3188  17.180  12.802   0.126
    1HEX    C19 3189  17.168  12.903   0.344
    1HEX    C1A 3190  17.086  13.031   0.367
    1HEX    H1C 3191   0.486  12.929  16.634
    1HEX    H1D 3192   0.249  12.835  16.697
    1HEX    H1E 3193   0.242  13.011  16.690
    1HEX    H1F 3194   0.249  13.016  16.945
    1HEX    H1G 3195   0.246  12.841  16.947
    1HEX    H1H 3196  17.261  12.989  16.858
    1HEX    H1I 3197  17.284  13.159  16.873
    1HEX    H1J 3198  17.414  13.207  17.109
    1HEX    H1K 3199  17.307  13.176  17.243
    1HEX    H1M 3200  17.078  13.551  17.112
    1HEX    H1N 3201  17.252  13.552  17.099
    1HEX    H1O 3202  17.256  13.568  17.363
    1HEX    H1P 3203  17.086  13.609  17.349
    1HEX    H1Q 3204  17.355  13.758  17.225
    1HEX    H1R 3205  17.065  13.148  17.014
    1HEX    H1S 3206  17.066  13.069  17.168
    1HEX    H1T 3207  17.089  12.741  16.854
    1HEX    H1U 3208  16.989  12.800  16.723
    1HEX    H1V 3209  16.783  12.770  16.866
    1HEX    H1W 3210  16.883  12.713  16.998
    1HEX    H1X 3211  16.856  12.584  16.693
    1HEX    H1Y 3212  17.291  12.849  17.071
    1HEX    H1Z 3213  17.236  12.903  17.219
    1HEX    H20 3214   0.076  13.098  17.253
    1HEX    H21 3215   0.172  12.962  17.274
    1HEX    H22 3216   0.015  12.765  17.422
    1HEX    H23 3217   0.028  12.823   0.145
    1HEX    H24 3218   0.437  12.729   0.036
    1HEX    H25 3219   0.467  12.720   0.208
    1HEX    H26 3220   0.462  12.987   0.054
    1HEX    H27 3221   0.608  12.893   0.078
    1HEX    H28 3222   0.421  13.061   0.285
    1HEX    H29 3223   0.104  13.187   0.034
    1HEX    H2A 3224   0.228  13.066   0.047
    1HEX    H2B 3225   0.127  13.016   0.452
    1HEX    H2C 3226   0.053  13.175   0.449
    1HEX    H2D 3227   0.286  13.273   0.507
    1HEX    H2E 3228   0.343  13.109   0.527
    1HEX    H2F 3229   0.090  13.260   0.681
    1HEX    H2G 3230  17.254  12.969  17.405
    1HEX    H2H 3231  17.309  13.127   0.009
    1HEX    H2I 3232  17.256  12.901   0.407
    1HEX    H2J 3233  17.109  12.814   0.367
    1HEX    H2K 3234  17.000  13.034   0.300
    1HEX    H2M 3235  17.146  13.119   0.345
    1HEX    H2N 3236  16.945  12.935   0.533
    1STR    S00 3237   0.459  12.935  16.765
    1STR    S0E 3238  17.227  13.782  17.257
    1STR    S0M 3239  16.872  12.550  16.821
    1STR    S0X 3240   0.535  12.990   0.283
    1STR    S14 3241   0.186  13.170   0.701
    1STR    S1B 3242  17.030  13.038   0.539
    1HEX    C01 3243   0.269  12.932   3.679
    1HEX    C02 3244   0.214  12.938   3.822
    1HEX    C03 3245   0.062  12.940   3.821
    1HEX    O04 3246  17.438  12.841   3.785
    1HEX    O05 3247   0.010  13.059   3.858
    1HEX    C06 3248  17.309  13.078   3.857
    1HEX    C07 3249  17.249  13.086   4.000
    1HEX    C08 3250  17.284  13.221   4.064
    1HEX    O09 3251  17.213  13.336   4.020
    1HEX    C0A 3252  17.150  13.409   4.113
    1HEX    O0B 3253  17.098  13.365   4.215
    1HEX    C0C 3254  17.159  13.559   4.087
    1HEX    C0D 3255  17.184  13.635   4.218
    1HEX    C0F 3256  17.094  13.073   3.988
    1HEX    O0G 3257  17.061  12.945   3.933
    1HEX    C0H 3258  17.005  12.936   3.810
    1HEX    O0I 3259  16.965  13.030   3.742
    1HEX    C0J 3260  17.001  12.793   3.758
    1HEX    C0K 3261  16.879  12.718   3.812
    1HEX    C0N 3262  17.299  12.974   4.097
    1HEX    O0O 3263  17.433  12.979   4.149
    1HEX    C0P 3264   0.044  13.075   4.246
    1HEX    C0Q 3265   0.026  13.056   4.401
    1HEX    C0R 3266   0.170  13.073   4.460
    1HEX    O0S 3267   0.219  13.201   4.413
    1HEX    C0T 3268   0.264  13.300   4.497
    1HEX    O0U 3269   0.291  13.284   4.615
    1HEX    C0V 3270   0.288  13.436   4.425
    1HEX    C0W 3271   0.241  13.568   4.500
    1HEX    C0Y 3272  17.383  13.168   4.475
    1HEX    O0Z 3273  17.377  13.135   4.615
    1HEX    C10 3274  17.422  13.212   4.716
    1HEX    O11 3275   0.015  13.330   4.707
    1HEX    C12 3276  17.425  13.136   4.851
    1HEX    C13 3277   0.100  13.178   4.946
    1HEX    C15 3278  17.394  12.918   4.422
    1HEX    O16 3279  17.349  12.890   4.555
    1HEX    C17 3280  17.222  12.845   4.574
    1HEX    O18 3281  17.149  12.795   4.488
    1HEX    C19 3282  17.170  12.869   4.715
    1HEX    C1A 3283  17.092  13.001   4.720
    1HEX    H1C 3284   0.473  12.930   3.555
    1HEX    H1D 3285   0.238  12.839   3.630
    1HEX    H1E 3286   0.231  13.014   3.619
    1HEX    H1F 3287   0.249  13.027   3.874
    1HEX    H1G 3288   0.246  12.852   3.880
    1HEX    H1H 3289  17.261  13.000   3.798
    1HEX    H1I 3290  17.287  13.170   3.803
    1HEX    H1J 3291  17.388  13.242   4.042
    1HEX    H1K 3292  17.274  13.211   4.172
    1HEX    H1M 3293  17.068  13.593   4.037
    1HEX    H1N 3294  17.242  13.574   4.018
    1HEX    H1O 3295  17.257  13.583   4.281
    1HEX    H1P 3296  17.092  13.641   4.277
    1HEX    H1Q 3297  17.368  13.765   4.140
    1HEX    H1R 3298  17.053  13.155   3.930
    1HEX    H1S 3299  17.047  13.081   4.086
    1HEX    H1T 3300  17.093  12.742   3.785
    1HEX    H1U 3301  16.998  12.797   3.649
    1HEX    H1V 3302  16.786  12.770   3.786
    1HEX    H1W 3303  16.883  12.712   3.921
    1HEX    H1X 3304  16.859  12.586   3.614
    1HEX    H1Y 3305  17.294  12.880   4.041
    1HEX    H1Z 3306  17.226  12.961   4.176
    1HEX    H20 3307   0.037  13.180   4.219
    1HEX    H21 3308   0.149  13.059   4.224
    1HEX    H22 3309   0.235  12.993   4.425
    1HEX    H23 3310   0.170  13.065   4.569
    1HEX    H24 3311   0.242  13.429   4.326
    1HEX    H25 3312   0.395  13.440   4.408
    1HEX    H26 3313   0.330  13.616   4.540
    1HEX    H27 3314   0.181  13.542   4.587
    1HEX    H29 3315  17.282  13.175   4.435
    1HEX    H2A 3316  17.427  13.267   4.461
    1HEX    H2B 3317  17.436  13.030   4.827
    1HEX    H2C 3318  17.329  13.148   4.900
    1HEX    H2D 3319   0.088  13.282   4.976
    1HEX    H2E 3320   0.194  13.173   4.892
    1HEX    H2G 3321   0.010  12.834   4.382
    1HEX    H2H 3322  17.305  12.924   4.362
    1HEX    H2I 3323  17.253  12.869   4.785
    1HEX    H2J 3324  17.105  12.786   4.742
    1HEX    H2K 3325  17.005  12.998   4.654
    1HEX    H2M 3326  17.153  13.084   4.685
    1HEX    H2N 3327  16.941  12.946   4.896
    1STR    S00 3328   0.451  12.940   3.687
    1STR    S0E 3329  17.246  13.802   4.182
    1STR    S0M 3330  16.876  12.550   3.742
    1STR    S0X 3331   0.154  13.698   4.397
    1STR    S14 3332   0.115  13.073   5.098
    1STR    S1B 3333  17.040  13.036   4.890
    1HEX    C01 3334   0.286  12.934   8.025
    1HEX    C02 3335   0.247  12.930   8.173
    1HEX    C03 3336   0.096  12.936   8.185
    1HEX    O04 3337   0.026  12.839   8.156
    1HEX    O05 3338   0.053  13.058   8.224
    1HEX    C06 3339  17.355  13.088   8.213
    1HEX    C07 3340  17.277  13.070   8.345
    1HEX    C08 3341  17.306  13.193   8.433
    1HEX    O09 3342  17.245  13.315   8.393
    1HEX    C0A 3343  17.177  13.386   8.484
    1HEX    O0B 3344  17.129  13.342   8.589
    1HEX    C0C 3345  17.170  13.534   8.450
    1HEX    C0D 3346  17.182  13.620   8.578
    1HEX    C0F 3347  17.125  13.066   8.311
    1HEX    O0G 3348  17.103  12.976   8.202
    1HEX    C0H 3349  16.996  12.995   8.123
    1HEX    O0I 3350  16.898  13.063   8.153
    1HEX    C0J 3351  17.004  12.928   7.985
    1HEX    C0K 3352  17.142  12.876   7.937
    1HEX    C0N 3353  17.309  12.936   8.421
    1HEX    O0O 3354  -0.000  12.907   8.474
    1HEX    C0P 3355   0.070  12.988   8.570
    1HEX    C0Q 3356   0.036  12.979   8.722
    1HEX    C0R 3357   0.070  12.836   8.773
    1HEX    O0S 3358   0.211  12.811   8.767
    1HEX    C0T 3359   0.284  12.806   8.881
    1HEX    O0U 3360   0.241  12.817   8.996
    1HEX    C0V 3361   0.432  12.783   8.854
    1HEX    C0W 3362   0.514  12.914   8.842
    1HEX    C0Y 3363   0.127  13.083   8.793
    1HEX    O0Z 3364   0.105  13.081   8.933
    1HEX    C10 3365   0.191  13.140   9.015
    1HEX    O11 3366   0.292  13.200   8.980
    1HEX    C12 3367   0.150  13.124   9.160
    1HEX    C13 3368   0.257  13.174   9.258
    1HEX    C15 3369  17.329  13.016   8.754
    1HEX    O16 3370  17.290  12.996   8.890
    1HEX    C17 3371  17.214  12.892   8.924
    1HEX    O18 3372  17.180  12.799   8.851
    1HEX    C19 3373  17.166  12.900   9.068
    1HEX    C1A 3374  17.084  13.028   9.089
    1HEX    H1C 3375   0.472  12.938   7.879
    1HEX    H1D 3376   0.247  12.846   7.974
    1HEX    H1E 3377   0.241  13.021   7.976
    1HEX    H1F 3378   0.290  13.014   8.228
    1HEX    H1G 3379   0.281  12.838   8.221
    1HEX    H1H 3380  17.315  13.029   8.132
    1HEX    H1I 3381  17.344  13.190   8.177
    1HEX    H1J 3382  17.412  13.217   8.427
    1HEX    H1K 3383  17.285  13.169   8.537
    1HEX    H1M 3384  17.078  13.556   8.396
    1HEX    H1N 3385  17.253  13.556   8.383
    1HEX    H1O 3386  17.255  13.577   8.647
    1HEX    H1P 3387  17.086  13.620   8.631
    1HEX    H1Q 3388  17.358  13.763   8.506
    1HEX    H1R 3389  17.090  13.165   8.283
    1HEX    H1S 3390  17.063  13.037   8.396
    1HEX    H1T 3391  16.930  12.848   7.983
    1HEX    H1U 3392  16.967  13.003   7.916
    1HEX    H1V 3393  17.136  12.768   7.920
    1HEX    H1W 3394  17.222  12.887   8.010
    1HEX    H1Y 3395  17.292  12.855   8.350
    1HEX    H1Z 3396  17.233  12.915   8.496
    1HEX    H20 3397   0.080  13.090   8.538
    1HEX    H21 3398   0.172  12.952   8.560
    1HEX    H22 3399   0.018  12.762   8.713
    1HEX    H23 3400   0.033  12.822   8.875
    1HEX    H24 3401   0.440  12.726   8.761
    1HEX    H25 3402   0.473  12.720   8.933
    1HEX    H26 3403   0.465  12.985   8.776
    1HEX    H27 3404   0.612  12.892   8.799
    1HEX    H28 3405   0.425  13.060   9.008
    1HEX    H29 3406   0.109  13.184   8.757
    1HEX    H2A 3407   0.232  13.062   8.773
    1HEX    H2B 3408   0.129  13.018   9.177
    1HEX    H2C 3409   0.056  13.178   9.173
    1HEX    H2D 3410   0.289  13.275   9.232
    1HEX    H2E 3411   0.345  13.110   9.252
    1HEX    H2F 3412   0.091  13.262   9.405
    1HEX    H2G 3413  17.259  12.965   8.690
    1HEX    H2H 3414  17.313  13.123   8.738
    1HEX    H2I 3415  17.253  12.898   9.134
    1HEX    H2J 3416  17.107  12.812   9.091
    1HEX    H2K 3417  16.999  13.031   9.022
    1HEX    H2M 3418  17.145  13.116   9.067
    1HEX    H2N 3419  16.941  12.935   9.256
    1STR    S00 3420   0.466  12.940   8.013
    1STR    S0E 3421  17.231  13.789   8.536
    1STR    S0M 3422  17.189  12.954   7.778
    1STR    S0X 3423   0.541  12.992   9.004
    1STR    S14 3424   0.188  13.172   9.426
    1STR    S1B 3425  17.027  13.038   9.261
    1HEX    C01 3426   0.355  12.940  12.339
    1HEX    C02 3427   0.279  12.947  12.472
    1HEX    C03 3428   0.129  12.950  12.451
    1HEX    O04 3429   0.074  12.868  12.378
    1HEX    O05 3430   0.067  13.043  12.528
    1HEX    C06 3431  17.365  13.040  12.542
    1HEX    C07 3432  17.313  12.971  12.674
    1HEX    C08 3433  17.273  13.077  12.784
    1HEX    O09 3434  17.137  13.072  12.834
    1HEX    C0A 3435  17.072  12.968  12.900
    1HEX    O0B 3436  16.950  12.964  12.910
    1HEX    C0C 3437  17.157  12.862  12.970
    1HEX    C0D 3438  17.129  12.706  12.963
    1HEX    C0F 3439  17.176  12.908  12.630
    1HEX    O0G 3440  17.164  12.830  12.512
    1HEX    C0H 3441  17.049  12.843  12.441
    1HEX    O0I 3442  16.984  12.946  12.427
    1HEX    C0J 3443  16.997  12.711  12.386
    1HEX    C0K 3444  16.882  12.661  12.476
    1HEX    C0N 3445  17.420  12.867  12.730
    1HEX    O0O 3446   0.011  12.858  12.871
    1HEX    C0P 3447   0.116  12.936  12.932
    1HEX    C0Q 3448   0.120  12.926  13.090
    1HEX    C0R 3449   0.205  12.804  13.134
    1HEX    O0S 3450   0.346  12.825  13.116
    1HEX    C0T 3451   0.428  12.837  13.225
    1HEX    O0U 3452   0.392  12.833  13.342
    1HEX    C0V 3453   0.576  12.857  13.190
    1HEX    C0W 3454   0.600  12.985  13.106
    1HEX    C0Y 3455   0.181  13.056  13.150
    1HEX    O0Z 3456   0.171  13.050  13.291
    1HEX    C10 3457   0.220  13.146  13.368
    1HEX    O11 3458   0.293  13.238  13.331
    1HEX    C12 3459   0.167  13.134  13.510
    1HEX    C13 3460   0.269  13.179  13.615
    1HEX    C15 3461  17.415  12.908  13.146
    1HEX    O16 3462  17.394  12.911  13.288
    1HEX    C17 3463  17.276  12.867  13.338
    1HEX    O18 3464  17.195  12.797  13.278
    1HEX    C19 3465  17.242  12.919  13.477
    1HEX    C1A 3466  17.138  13.032  13.467
    1HEX    H1C 3467   0.575  12.934  12.250
    1HEX    H1D 3468   0.329  12.849  12.285
    1HEX    H1E 3469   0.328  13.024  12.276
    1HEX    H1F 3470   0.308  13.035  12.529
    1HEX    H1G 3471   0.302  12.859  12.533
    1HEX    H1H 3472  17.323  12.991  12.453
    1HEX    H1I 3473  17.326  13.141  12.530
    1HEX    H1J 3474  17.280  13.177  12.740
    1HEX    H1K 3475  17.342  13.084  12.867
    1HEX    H1M 3476  17.141  12.894  13.072
    1HEX    H1N 3477  17.256  12.886  12.948
    1HEX    H1O 3478  17.137  12.671  13.066
    1HEX    H1P 3479  17.025  12.690  12.937
    1HEX    H1R 3480  17.104  12.990  12.622
    1HEX    H1S 3481  17.139  12.840  12.706
    1HEX    H1T 3482  17.080  12.640  12.384
    1HEX    H1U 3483  16.963  12.727  12.284
    1HEX    H1V 3484  16.794  12.725  12.465
    1HEX    H1W 3485  16.910  12.666  12.581
    1HEX    H1X 3486  16.806  12.514  12.306
    1HEX    H1Y 3487   0.077  12.874  12.682
    1HEX    H1Z 3488  17.385  12.768  12.698
    1HEX    H20 3489   0.106  13.040  12.902
    1HEX    H21 3490   0.212  12.904  12.891
    1HEX    H22 3491   0.175  12.715  13.078
    1HEX    H23 3492   0.182  12.779  13.238
    1HEX    H24 3493   0.614  12.769  13.138
    1HEX    H25 3494   0.631  12.862  13.284
    1HEX    H26 3495   0.518  13.054  13.125
    1HEX    H27 3496   0.596  12.961  13.000
    1HEX    H29 3497   0.128  13.144  13.115
    1HEX    H2A 3498   0.285  13.068  13.120
    1HEX    H2B 3499   0.140  13.030  13.528
    1HEX    H2C 3500   0.076  13.193  13.516
    1HEX    H2D 3501   0.303  13.281  13.596
    1HEX    H2E 3502   0.357  13.115  13.613
    1HEX    H2F 3503   0.096  13.262  13.759
    1HEX    H2G 3504  17.377  12.812  13.109
    1HEX    H2H 3505  17.354  12.989  13.107
    1HEX    H2I 3506  17.332  12.950  13.530
    1HEX    H2J 3507  17.200  12.834  13.532
    1HEX    H2K 3508  17.060  13.006  13.394
    1HEX    H2M 3509  17.184  13.124  13.432
    1HEX    H2N 3510  16.974  12.958  13.623
    1STR    S00 3511   0.532  12.942  12.376
    1STR    S0E 3512  17.237  12.584  12.865
    1STR    S0M 3513  16.843  12.490  12.432
    1STR    S0X 3514   0.752  13.083  13.141
    1STR    S14 3515   0.191  13.170  13.779
    1STR    S1B 3516  17.059  13.061  13.627
    1HEX    C01 3517   4.645  17.292  16.742
    1HEX    C02 3518   4.576  17.301  16.878
    1HEX    C03 3519   4.426  17.310  16.861
    1HEX    O04 3520   4.361  17.213  16.821
    1HEX    O05 3521   4.376  17.430  16.896
    1HEX    C06 3522   4.236   0.008  16.908
    1HEX    C07 3523   4.191  17.439  17.056
    1HEX    C08 3524   4.233   0.126  17.131
    1HEX    O09 3525   4.168   0.247  17.092
    1HEX    C0A 3526   4.091   0.310  17.181
    1HEX    O0B 3527   4.034   0.257  17.277
    1HEX    C0C 3528   4.086   0.460  17.159
    1HEX    C0D 3529   4.100   0.535  17.293
    1HEX    C0F 3530   4.036  17.424  17.061
    1HEX    O0G 3531   3.998  17.299  17.005
    1HEX    C0H 3532   3.932  17.293  16.888
    1HEX    O0I 3533   3.885  17.388  16.826
    1HEX    C0J 3534   3.922  17.151  16.833
    1HEX    C0K 3535   3.800  17.077  16.889
    1HEX    C0N 3536   4.254  17.315  17.128
    1HEX    O0O 3537   4.391  17.326  17.174
    1HEX    C0P 3538   4.430  17.382  17.302
    1HEX    C0Q 3539   4.395  17.298  17.429
    1HEX    C0R 3540   4.457  17.157  17.404
    1HEX    O0S 3541   4.595  17.157  17.360
    1HEX    C0T 3542   4.698  17.146   0.008
    1HEX    O0U 3543   4.689  17.151   0.129
    1HEX    C0V 3544   4.835  17.121  17.387
    1HEX    C0W 3545   4.941  17.227  17.425
    1HEX    C0Y 3546   4.453  17.353   0.122
    1HEX    O0Z 3547   4.411  17.257   0.219
    1HEX    C10 3548   4.489  17.200   0.311
    1HEX    O11 3549   4.580  17.257   0.372
    1HEX    C12 3550   4.448  17.054   0.338
    1HEX    C13 3551   4.552  16.941   0.305
    1HEX    C15 3552   4.238  17.297   0.002
    1HEX    O16 3553   4.179  17.312   0.131
    1HEX    C17 3554   4.120  17.208   0.192
    1HEX    O18 3555   4.107  17.096   0.144
    1HEX    C19 3556   4.068  17.241   0.331
    1HEX    C1A 3557   4.007  17.381   0.342
    1HEX    H1C 3558   4.858  17.286  16.638
    1HEX    H1D 3559   4.613  17.202  16.689
    1HEX    H1E 3560   4.617  17.377  16.680
    1HEX    H1F 3561   4.610  17.389  16.934
    1HEX    H1G 3562   4.598  17.214  16.939
    1HEX    H1H 3563   4.183  17.375  16.846
    1HEX    H1I 3564   4.208   0.104  16.866
    1HEX    H1J 3565   4.340   0.142  17.116
    1HEX    H1K 3566   4.219   0.111  17.238
    1HEX    H1M 3567   3.994   0.488  17.108
    1HEX    H1N 3568   4.169   0.486  17.093
    1HEX    H1O 3569   4.175   0.487  17.357
    1HEX    H1P 3570   4.006   0.532  17.348
    1HEX    H1Q 3571   4.275   0.683  17.227
    1HEX    H1R 3572   3.988   0.069  17.012
    1HEX    H1S 3573   4.000  17.428  17.164
    1HEX    H1T 3574   4.014  17.098  16.856
    1HEX    H1U 3575   3.916  17.157  16.724
    1HEX    H1V 3576   3.708  17.131  16.865
    1HEX    H1W 3577   3.806  17.072  16.998
    1HEX    H1X 3578   3.777  16.944  16.693
    1HEX    H1Y 3579   4.253  17.233  17.056
    1HEX    H1Z 3580   4.185  17.276  17.201
    1HEX    H20 3581   4.402   0.046  17.315
    1HEX    H21 3582   4.539  17.389  17.296
    1HEX    H22 3583   4.401  17.106  17.326
    1HEX    H23 3584   4.445  17.092   0.051
    1HEX    H24 3585   4.824  17.115  17.278
    1HEX    H25 3586   4.867  17.023  17.421
    1HEX    H26 3587   4.905  17.328  17.403
    1HEX    H27 3588   5.031  17.212  17.367
    1HEX    H28 3589   4.869  17.245   0.212
    1HEX    H29 3590   4.411   0.011   0.147
    1HEX    H2A 3591   4.561  17.365   0.120
    1HEX    H2B 3592   4.351  17.035   0.291
    1HEX    H2C 3593   4.430  17.054   0.445
    1HEX    H2D 3594   4.553  16.873   0.390
    1HEX    H2E 3595   4.652  16.985   0.305
    1HEX    H2G 3596   4.197  17.209  17.394
    1HEX    H2H 3597   4.197  17.384  17.390
    1HEX    H2I 3598   4.152  17.231   0.401
    1HEX    H2J 3599   3.995  17.164   0.358
    1HEX    H2K 3600   3.926  17.394   0.270
    1HEX    H2M 3601   4.082   0.017   0.320
    1HEX    H2N 3602   3.851  17.309   0.509
    1STR    S00 3603   4.825  17.290  16.767
    1STR    S0E 3604   4.149   0.707  17.264
    1STR    S0M 3605   3.795  16.909  16.821
    1STR    S0X 3606   4.990  17.222   0.160
    1STR    S14 3607   4.535  16.834   0.151
    1STR    S1B 3608   3.944  17.405   0.511
    1HEX    C01 3609   4.638  17.286   3.669
    1HEX    C02 3610   4.576  17.289   3.809
    1HEX    C03 3611   4.425  17.289   3.800
    1HEX    O04 3612   4.363  17.190   3.762
    1HEX    O05 3613   4.372  17.408   3.834
    1HEX    C06 3614   4.231  17.424   3.839
    1HEX    C07 3615   4.180  17.421   3.986
    1HEX    C08 3616   4.230   0.109   4.056
    1HEX    O09 3617   4.164   0.230   4.020
    1HEX    C0A 3618   4.097   0.298   4.115
    1HEX    O0B 3619   4.052   0.251   4.219
    1HEX    C0C 3620   4.090   0.448   4.086
    1HEX    C0D 3621   4.101   0.530   4.215
    1HEX    C0F 3622   4.025  17.420   3.986
    1HEX    O0G 3623   3.978  17.297   3.930
    1HEX    C0H 3624   3.926  17.294   3.806
    1HEX    O0I 3625   3.893  17.391   3.739
    1HEX    C0J 3626   3.916  17.153   3.751
    1HEX    C0K 3627   3.796  17.078   3.809
    1HEX    C0N 3628   4.226  17.291   4.061
    1HEX    O0O 3629   4.362  17.273   4.104
    1HEX    C0P 3630   4.428  17.354   4.203
    1HEX    C0Q 3631   4.393  17.342   4.355
    1HEX    C0R 3632   4.427  17.199   4.404
    1HEX    O0S 3633   4.568  17.174   4.399
    1HEX    C0T 3634   4.639  17.167   4.514
    1HEX    O0U 3635   4.595  17.175   4.628
    1HEX    C0V 3636   4.788  17.144   4.489
    1HEX    C0W 3637   4.870  17.274   4.480
    1HEX    C0Y 3638   4.483   0.005   4.428
    1HEX    O0Z 3639   4.461   0.001   4.568
    1HEX    C10 3640   4.547   0.059   4.650
    1HEX    O11 3641   4.649   0.120   4.616
    1HEX    C12 3642   4.507   0.041   4.795
    1HEX    C13 3643   4.614   0.092   4.893
    1HEX    C15 3644   4.245  17.380   4.387
    1HEX    O16 3645   4.207  17.360   4.523
    1HEX    C17 3646   4.133  17.254   4.559
    1HEX    O18 3647   4.100  17.161   4.486
    1HEX    C19 3648   4.088  17.262   4.704
    1HEX    C1A 3649   4.006  17.390   4.727
    1HEX    H1C 3650   4.846  17.290   3.555
    1HEX    H1D 3651   4.610  17.195   3.617
    1HEX    H1E 3652   4.602  17.371   3.610
    1HEX    H1F 3653   4.609  17.376   3.865
    1HEX    H1G 3654   4.606  17.201   3.867
    1HEX    H1H 3655   4.181  17.348   3.778
    1HEX    H1I 3656   4.204   0.079   3.793
    1HEX    H1J 3657   4.334   0.126   4.029
    1HEX    H1K 3658   4.227   0.095   4.163
    1HEX    H1M 3659   3.998   0.470   4.032
    1HEX    H1N 3660   4.172   0.472   4.019
    1HEX    H1O 3661   4.176   0.487   4.282
    1HEX    H1P 3662   4.006   0.528   4.269
    1HEX    H1Q 3663   4.275   0.677   4.145
    1HEX    H1R 3664   3.985   0.067   3.934
    1HEX    H1S 3665   3.986  17.428   4.088
    1HEX    H1T 3666   4.009  17.100   3.773
    1HEX    H1U 3667   3.909  17.159   3.643
    1HEX    H1V 3668   3.703  17.129   3.786
    1HEX    H1W 3669   3.803  17.073   3.918
    1HEX    H1X 3670   3.776  16.943   3.613
    1HEX    H1Y 3671   4.212  17.208   3.991
    1HEX    H1Z 3672   4.156  17.262   4.139
    1HEX    H20 3673   4.435   0.018   4.173
    1HEX    H21 3674   4.532  17.321   4.194
    1HEX    H22 3675   4.376  17.125   4.342
    1HEX    H23 3676   4.388  17.183   4.505
    1HEX    H24 3677   4.797  17.088   4.396
    1HEX    H25 3678   4.827  17.080   4.568
    1HEX    H26 3679   4.822  17.347   4.414
    1HEX    H27 3680   4.968  17.253   4.438
    1HEX    H28 3681   4.781  17.421   4.645
    1HEX    H29 3682   4.464   0.107   4.394
    1HEX    H2A 3683   4.588  17.425   4.407
    1HEX    H2B 3684   4.488  17.375   4.812
    1HEX    H2C 3685   4.413   0.094   4.809
    1HEX    H2D 3686   4.645   0.193   4.867
    1HEX    H2E 3687   4.703   0.029   4.887
    1HEX    H2F 3688   4.449   0.180   5.041
    1HEX    H2G 3689   4.174  17.328   4.325
    1HEX    H2H 3690   4.229   0.046   4.369
    1HEX    H2I 3691   4.176  17.261   4.768
    1HEX    H2J 3692   4.030  17.173   4.727
    1HEX    H2K 3693   3.920  17.393   4.659
    1HEX    H2M 3694   4.066   0.038   4.705
    1HEX    H2N 3695   3.865  17.295   4.893
    1STR    S00 3696   4.819  17.295   3.686
    1STR    S0E 3697   4.148   0.701   4.177
    1STR    S0M 3698   3.792  16.909   3.741
    1STR    S0X 3699   4.895  17.350   4.643
    1STR    S14 3700   4.546   0.090   5.061
    1STR    S1B 3701   3.950  17.398   4.899
    1HEX    C01 3702   4.638  17.286   8.029
    1HEX    C02 3703   4.576  17.289   8.169
    1HEX    C03 3704   4.425  17.289   8.160
    1HEX    O04 3705   4.363  17.190   8.122
    1HEX    O05 3706   4.372  17.408   8.194
    1HEX    C06 3707   4.231  17.424   8.199
    1HEX    C07 3708   4.180  17.421   8.346
    1HEX    C08 3709   4.230   0.109   8.416
    1HEX    O09 3710   4.164   0.230   8.380
    1HEX    C0A 3711   4.097   0.298   8.475
    1HEX    O0B 3712   4.052   0.251   8.579
    1HEX    C0C 3713   4.090   0.448   8.446
    1HEX    C0D 3714   4.101   0.530   8.575
    1HEX    C0F 3715   4.025  17.420   8.346
    1HEX    O0G 3716   3.978  17.297   8.290
    1HEX    C0H 3717   3.926  17.294   8.166
    1HEX    O0I 3718   3.893  17.391   8.099
    1HEX    C0J 3719   3.916  17.153   8.111
    1HEX    C0K 3720   3.796  17.078   8.170
    1HEX    C0N 3721   4.226  17.291   8.421
    1HEX    O0O 3722   4.362  17.273   8.464
    1HEX    C0P 3723   4.428  17.354   8.563
    1HEX    C0Q 3724   4.393  17.342   8.715
    1HEX    C0R 3725   4.427  17.199   8.764
    1HEX    O0S 3726   4.568  17.174   8.759
    1HEX    C0T 3727   4.639  17.167   8.874
    1HEX    O0U 3728   4.594  17.175   8.988
    1HEX    C0V 3729   4.788  17.144   8.849
    1HEX    C0W 3730   4.870  17.274   8.840
    1HEX    C0Y 3731   4.483   0.005   8.788
    1HEX    O0Z 3732   4.461   0.001   8.928
    1HEX    C10 3733   4.547   0.059   9.010
    1HEX    O11 3734   4.649   0.120   8.976
    1HEX    C12 3735   4.507   0.041   9.155
    1HEX    C13 3736   4.614   0.092   9.253
    1HEX    C15 3737   4.245  17.380   8.747
    1HEX    O16 3738   4.207  17.360   8.883
    1HEX    C17 3739   4.133  17.254   8.919
    1HEX    O18 3740   4.100  17.161   8.846
    1HEX    C19 3741   4.088  17.262   9.064
    1HEX    C1A 3742   4.006  17.390   9.087
    1HEX    H1C 3743   4.846  17.290   7.914
    1HEX    H1D 3744   4.610  17.195   7.977
    1HEX    H1E 3745   4.602  17.371   7.970
    1HEX    H1F 3746   4.609  17.376   8.225
    1HEX    H1G 3747   4.606  17.201   8.227
    1HEX    H1H 3748   4.181  17.348   8.138
    1HEX    H1I 3749   4.204   0.079   8.153
    1HEX    H1J 3750   4.334   0.126   8.389
    1HEX    H1K 3751   4.227   0.095   8.523
    1HEX    H1M 3752   3.998   0.470   8.392
    1HEX    H1N 3753   4.172   0.472   8.379
    1HEX    H1O 3754   4.176   0.487   8.642
    1HEX    H1P 3755   4.006   0.528   8.629
    1HEX    H1Q 3756   4.275   0.677   8.505
    1HEX    H1R 3757   3.985   0.067   8.294
    1HEX    H1S 3758   3.986  17.428   8.448
    1HEX    H1T 3759   4.009  17.100   8.134
    1HEX    H1U 3760   3.909  17.159   8.003
    1HEX    H1V 3761   3.703  17.129   8.146
    1HEX    H1W 3762   3.803  17.073   8.278
    1HEX    H1X 3763   3.776  16.943   7.973
    1HEX    H1Y 3764   4.212  17.208   8.351
    1HEX    H1Z 3765   4.156  17.262   8.499
    1HEX    H20 3766   4.436   0.018   8.533
    1HEX    H21 3767   4.532  17.321   8.554
    1HEX    H22 3768   4.376  17.125   8.702
    1HEX    H23 3769   4.388  17.183   8.865
    1HEX    H24 3770   4.797  17.088   8.756
    1HEX    H25 3771   4.827  17.080   8.928
    1HEX    H26 3772   4.822  17.347   8.774
    1HEX    H27 3773   4.968  17.253   8.798
    1HEX    H28 3774   4.781  17.421   9.005
    1HEX    H29 3775   4.464   0.107   8.754
    1HEX    H2A 3776   4.588  17.425   8.767
    1HEX    H2B 3777   4.488  17.375   9.172
    1HEX    H2C 3778   4.413   0.094   9.169
    1HEX    H2D 3779   4.645   0.193   9.227
    1HEX    H2E 3780   4.703   0.029   9.247
    1HEX    H2F 3781   4.449   0.180   9.401
    1HEX    H2G 3782   4.174  17.328   8.685
    1HEX    H2H 3783   4.229   0.046   8.729
    1HEX    H2I 3784   4.176  17.261   9.128
    1HEX    H2J 3785   4.030  17.173   9.087
    1HEX    H2K 3786   3.920  17.393   9.020
    1HEX    H2M 3787   4.066   0.038   9.065
    1HEX    H2N 3788   3.865  17.295   9.254
    1STR    S00 3789   4.819  17.295   8.045
    1STR    S0E 3790   4.147   0.701   8.537
    1STR    S0M 3791   3.792  16.909   8.101
    1STR    S0X 3792   4.895  17.350   9.003
    1STR    S14 3793   4.546   0.090   9.421
    1STR    S1B 3794   3.950  17.398   9.259
    1HEX    C01 3795   4.638  17.286  12.389
    1HEX    C02 3796   4.576  17.289  12.529
    1HEX    C03 3797   4.425  17.289  12.520
    1HEX    O04 3798   4.363  17.190  12.482
    1HEX    O05 3799   4.372  17.408  12.554
    1HEX    C06 3800   4.231  17.424  12.559
    1HEX    C07 3801   4.180  17.421  12.706
    1HEX    C08 3802   4.230   0.109  12.776
    1HEX    O09 3803   4.164   0.230  12.740
    1HEX    C0A 3804   4.097   0.298  12.835
    1HEX    O0B 3805   4.052   0.251  12.939
    1HEX    C0C 3806   4.090   0.448  12.806
    1HEX    C0D 3807   4.101   0.530  12.935
    1HEX    C0F 3808   4.025  17.420  12.706
    1HEX    O0G 3809   3.978  17.297  12.650
    1HEX    C0H 3810   3.926  17.294  12.526
    1HEX    O0I 3811   3.893  17.391  12.459
    1HEX    C0J 3812   3.916  17.153  12.471
    1HEX    C0K 3813   3.796  17.078  12.529
    1HEX    C0N 3814   4.226  17.291  12.781
    1HEX    O0O 3815   4.362  17.273  12.824
    1HEX    C0P 3816   4.428  17.354  12.923
    1HEX    C0Q 3817   4.393  17.342  13.075
    1HEX    C0R 3818   4.427  17.199  13.124
    1HEX    O0S 3819   4.568  17.174  13.119
    1HEX    C0T 3820   4.639  17.167  13.234
    1HEX    O0U 3821   4.595  17.175  13.348
    1HEX    C0V 3822   4.788  17.144  13.209
    1HEX    C0W 3823   4.870  17.274  13.200
    1HEX    C0Y 3824   4.483   0.005  13.148
    1HEX    O0Z 3825   4.461   0.001  13.288
    1HEX    C10 3826   4.548   0.059  13.370
    1HEX    O11 3827   4.649   0.120  13.336
    1HEX    C12 3828   4.507   0.041  13.515
    1HEX    C13 3829   4.614   0.092  13.613
    1HEX    C15 3830   4.245  17.380  13.107
    1HEX    O16 3831   4.207  17.360  13.243
    1HEX    C17 3832   4.133  17.254  13.279
    1HEX    O18 3833   4.100  17.161  13.206
    1HEX    C19 3834   4.088  17.262  13.424
    1HEX    C1A 3835   4.006  17.390  13.447
    1HEX    H1C 3836   4.846  17.290  12.274
    1HEX    H1D 3837   4.610  17.195  12.337
    1HEX    H1E 3838   4.602  17.371  12.330
    1HEX    H1F 3839   4.609  17.376  12.585
    1HEX    H1G 3840   4.606  17.201  12.587
    1HEX    H1H 3841   4.181  17.348  12.498
    1HEX    H1I 3842   4.204   0.079  12.513
    1HEX    H1J 3843   4.334   0.126  12.749
    1HEX    H1K 3844   4.227   0.095  12.883
    1HEX    H1M 3845   3.998   0.470  12.752
    1HEX    H1N 3846   4.172   0.472  12.739
    1HEX    H1O 3847   4.176   0.487  13.002
    1HEX    H1P 3848   4.006   0.528  12.989
    1HEX    H1Q 3849   4.275   0.677  12.865
    1HEX    H1R 3850   3.985   0.067  12.654
    1HEX    H1S 3851   3.986  17.428  12.808
    1HEX    H1T 3852   4.009  17.100  12.494
    1HEX    H1U 3853   3.909  17.159  12.363
    1HEX    H1V 3854   3.703  17.129  12.505
    1HEX    H1W 3855   3.803  17.073  12.638
    1HEX    H1X 3856   3.776  16.943  12.333
    1HEX    H1Y 3857   4.212  17.208  12.711
    1HEX    H1Z 3858   4.156  17.262  12.859
    1HEX    H20 3859   4.436   0.018  12.893
    1HEX    H21 3860   4.532  17.321  12.914
    1HEX    H22 3861   4.376  17.125  13.062
    1HEX    H23 3862   4.388  17.183  13.225
    1HEX    H24 3863   4.797  17.088  13.116
    1HEX    H25 3864   4.827  17.080  13.288
    1HEX    H26 3865   4.822  17.347  13.134
    1HEX    H27 3866   4.968  17.253  13.158
    1HEX    H28 3867   4.781  17.421  13.365
    1HEX    H29 3868   4.464   0.107  13.114
    1HEX    H2A 3869   4.588  17.425  13.127
    1HEX    H2B 3870   4.488  17.375  13.532
    1HEX    H2C 3871   4.413   0.094  13.529
    1HEX    H2D 3872   4.645   0.193  13.587
    1HEX    H2E 3873   4.703   0.029  13.607
    1HEX    H2F 3874   4.449   0.180  13.761
    1HEX    H2G 3875   4.174  17.328  13.045
    1HEX    H2H 3876   4.229   0.046  13.089
    1HEX    H2I 3877   4.176  17.261  13.488
    1HEX    H2J 3878   4.029  17.173  13.447
    1HEX    H2K 3879   3.920  17.393  13.379
    1HEX    H2M 3880   4.066   0.038  13.425
    1HEX    H2N 3881   3.865  17.295  13.613
    1STR    S00 3882   4.819  17.295  12.405
    1STR    S0E 3883   4.147   0.701  12.897
    1STR    S0M 3884   3.792  16.909  12.461
    1STR    S0X 3885   4.895  17.350  13.363
    1STR    S14 3886   4.546   0.090  13.781
    1STR    S1B 3887   3.950  17.398  13.619
    1HEX    C01 3888   4.637   4.214  16.753
    1HEX    C02 3889   4.578   4.210  16.894
    1HEX    C03 3890   4.428   4.193  16.889
    1HEX    O04 3891   4.378   4.094  16.836
    1HEX    O05 3892   4.361   4.296  16.943
    1HEX    C06 3893   4.219   4.294  16.945
    1HEX    C07 3894   4.163   4.296  17.090
    1HEX    C08 3895   4.185   4.437  17.150
    1HEX    O09 3896   4.126   4.531  17.062
    1HEX    C0A 3897   4.119   4.659  17.095
    1HEX    O0B 3898   4.140   4.705  17.208
    1HEX    C0C 3899   4.086   4.749  16.976
    1HEX    C0D 3900   4.171   4.717  16.851
    1HEX    C0F 3901   4.009   4.277  17.085
    1HEX    O0G 3902   3.975   4.159  17.013
    1HEX    C0H 3903   3.895   4.166  16.906
    1HEX    O0I 3904   3.833   4.264  16.867
    1HEX    C0J 3905   3.888   4.034  16.832
    1HEX    C0K 3906   3.776   3.948  16.890
    1HEX    C0N 3907   4.222   4.175  17.170
    1HEX    O0O 3908   4.362   4.169  17.202
    1HEX    C0P 3909   4.429   4.261  17.289
    1HEX    C0Q 3910   4.398   4.260   0.002
    1HEX    C0R 3911   4.428   4.118   0.057
    1HEX    O0S 3912   4.568   4.089   0.050
    1HEX    C0T 3913   4.643   4.085   0.162
    1HEX    O0U 3914   4.601   4.097   0.277
    1HEX    C0V 3915   4.791   4.062   0.134
    1HEX    C0W 3916   4.873   4.192   0.123
    1HEX    C0Y 3917   4.493   4.362   0.069
    1HEX    O0Z 3918   4.468   4.364   0.208
    1HEX    C10 3919   4.555   4.420   0.291
    1HEX    O11 3920   4.658   4.478   0.257
    1HEX    C12 3921   4.511   4.406   0.435
    1HEX    C13 3922   4.617   4.455   0.534
    1HEX    C15 3923   4.253   4.309   0.032
    1HEX    O16 3924   4.210   4.287   0.166
    1HEX    C17 3925   4.134   4.181   0.197
    1HEX    O18 3926   4.099   4.092   0.120
    1HEX    C19 3927   4.087   4.184   0.342
    1HEX    C1A 3928   4.005   4.311   0.368
    1HEX    H1C 3929   4.841   4.217  16.633
    1HEX    H1D 3930   4.607   4.124  16.697
    1HEX    H1E 3931   4.599   4.300  16.698
    1HEX    H1F 3932   4.602   4.301  16.949
    1HEX    H1G 3933   4.619   4.127  16.951
    1HEX    H1H 3934   4.180   4.208  16.892
    1HEX    H1I 3935   4.184   4.380  16.889
    1HEX    H1J 3936   4.290   4.465  17.153
    1HEX    H1K 3937   4.143   4.446  17.250
    1HEX    H1M 3938   3.979   4.745  16.956
    1HEX    H1N 3939   4.108   4.851  17.009
    1HEX    H1O 3940   4.267   4.673  16.882
    1HEX    H1P 3941   4.196   4.809  16.799
    1HEX    H1R 3942   3.961   4.365  17.041
    1HEX    H1S 3943   3.967   4.270  17.185
    1HEX    H1T 3944   3.985   3.984  16.840
    1HEX    H1U 3945   3.870   4.055  16.727
    1HEX    H1V 3946   3.679   3.998  16.879
    1HEX    H1W 3947   3.792   3.931  16.996
    1HEX    H1X 3948   3.748   3.837  16.681
    1HEX    H1Y 3949   4.210   4.088  17.105
    1HEX    H1Z 3950   4.161   4.144  17.254
    1HEX    H20 3951   4.431   4.362  17.249
    1HEX    H21 3952   4.534   4.231  17.279
    1HEX    H22 3953   4.373   4.043  -0.000
    1HEX    H23 3954   4.392   4.109   0.159
    1HEX    H24 3955   4.798   4.006   0.041
    1HEX    H25 3956   4.831   3.998   0.212
    1HEX    H26 3957   4.824   4.264   0.058
    1HEX    H27 3958   4.970   4.170   0.079
    1HEX    H28 3959   4.788   4.341   0.288
    1HEX    H29 3960   4.478   4.463   0.030
    1HEX    H2A 3961   4.597   4.338   0.049
    1HEX    H2B 3962   4.489   4.300   0.453
    1HEX    H2C 3963   4.418   4.461   0.447
    1HEX    H2D 3964   4.650   4.556   0.510
    1HEX    H2E 3965   4.706   4.391   0.529
    1HEX    H2F 3966   4.451   4.542   0.681
    1HEX    H2G 3967   4.178   4.268  17.407
    1HEX    H2H 3968   4.247   4.417   0.016
    1HEX    H2I 3969   4.175   4.180   0.406
    1HEX    H2J 3970   4.029   4.094   0.362
    1HEX    H2K 3971   3.919   4.316   0.301
    1HEX    H2M 3972   4.065   4.400   0.349
    1HEX    H2N 3973   3.863   4.212   0.532
    1STR    S00 3974   4.818   4.222  16.764
    1STR    S0E 3975   4.095   4.603  16.728
    1STR    S0M 3976   3.774   3.789  16.803
    1STR    S0X 3977   4.902   4.268   0.285
    1STR    S14 3978   4.547   4.452   0.702
    1STR    S1B 3979   3.949   4.314   0.541
    1HEX    C01 3980   4.517   4.866   3.983
    1HEX    C02 3981   4.545   4.719   4.032
    1HEX    C03 3982   4.482   4.597   3.958
    1HEX    O04 3983   4.555   4.516   3.901
    1HEX    O05 3984   4.349   4.579   3.974
    1HEX    C06 3985   4.279   4.461   3.923
    1HEX    C07 3986   4.179   4.397   4.026
    1HEX    C08 3987   4.167   4.491   4.148
    1HEX    O09 3988   4.121   4.617   4.103
    1HEX    C0A 3989   4.074   4.705   4.190
    1HEX    O0B 3990   4.038   4.680   4.305
    1HEX    C0C 3991   4.076   4.846   4.133
    1HEX    C0D 3992   4.097   4.948   4.246
    1HEX    C0F 3993   4.030   4.390   3.972
    1HEX    O0G 3994   3.973   4.264   3.930
    1HEX    C0H 3995   3.853   4.268   3.863
    1HEX    O0I 3996   3.810   4.368   3.805
    1HEX    C0J 3997   3.772   4.138   3.862
    1HEX    C0K 3998   3.694   4.111   3.994
    1HEX    C0N 3999   4.224   4.252   4.069
    1HEX    O0O 4000   4.360   4.219   4.104
    1HEX    C0P 4001   4.443   4.295   4.193
    1HEX    C0Q 4002   4.433   4.271   4.348
    1HEX    C0R 4003   4.506   4.139   4.391
    1HEX    O0S 4004   4.648   4.136   4.367
    1HEX    C0T 4005   4.737   4.145   4.470
    1HEX    O0U 4006   4.708   4.176   4.586
    1HEX    C0V 4007   4.880   4.103   4.435
    1HEX    C0W 4008   4.979   4.219   4.402
    1HEX    C0Y 4009   4.502   4.390   4.420
    1HEX    O0Z 4010   4.481   4.379   4.559
    1HEX    C10 4011   4.555   4.448   4.645
    1HEX    O11 4012   4.646   4.526   4.615
    1HEX    C12 4013   4.513   4.421   4.788
    1HEX    C13 4014   4.620   4.462   4.890
    1HEX    C15 4015   4.284   4.262   4.389
    1HEX    O16 4016   4.257   4.233   4.526
    1HEX    C17 4017   4.149   4.160   4.558
    1HEX    O18 4018   4.082   4.091   4.481
    1HEX    C19 4019   4.106   4.177   4.703
    1HEX    C1A 4020   4.021   4.304   4.716
    1HEX    H1D 4021   4.609   4.905   3.939
    1HEX    H1E 4022   4.445   4.864   3.902
    1HEX    H1F 4023   4.527   4.708   4.139
    1HEX    H1G 4024   4.653   4.702   4.021
    1HEX    H1H 4025   4.349   4.385   3.887
    1HEX    H1I 4026   4.226   4.492   3.833
    1HEX    H1J 4027   4.262   4.508   4.198
    1HEX    H1K 4028   4.099   4.450   4.223
    1HEX    H1M 4029   3.985   4.865   4.077
    1HEX    H1N 4030   4.159   4.851   4.062
    1HEX    H1O 4031   4.176   4.915   4.313
    1HEX    H1P 4032   4.006   4.955   4.306
    1HEX    H1Q 4033   4.257   5.073   4.126
    1HEX    H1R 4034   4.014   4.467   3.897
    1HEX    H1S 4035   3.961   4.419   4.051
    1HEX    H1T 4036   3.842   4.057   3.842
    1HEX    H1U 4037   3.704   4.140   3.777
    1HEX    H1V 4038   3.713   4.008   4.024
    1HEX    H1W 4039   3.734   4.173   4.075
    1HEX    H1Y 4040   4.207   4.188   3.982
    1HEX    H1Z 4041   4.153   4.212   4.141
    1HEX    H20 4042   4.439   4.400   4.167
    1HEX    H21 4043   4.545   4.268   4.165
    1HEX    H22 4044   4.461   4.055   4.339
    1HEX    H23 4045   4.485   4.120   4.497
    1HEX    H24 4046   4.877   4.029   4.355
    1HEX    H25 4047   4.916   4.050   4.523
    1HEX    H26 4048   4.952   4.309   4.457
    1HEX    H27 4049   4.973   4.243   4.296
    1HEX    H29 4050   4.463   4.486   4.386
    1HEX    H2A 4051   4.609   4.390   4.398
    1HEX    H2B 4052   4.492   4.314   4.797
    1HEX    H2C 4053   4.420   4.473   4.805
    1HEX    H2D 4054   4.651   4.565   4.874
    1HEX    H2E 4055   4.709   4.400   4.880
    1HEX    H2F 4056   4.453   4.536   5.044
    1HEX    H2G 4057   4.237   4.186   4.328
    1HEX    H2H 4058   4.235   4.357   4.369
    1HEX    H2I 4059   4.194   4.181   4.767
    1HEX    H2J 4060   4.049   4.089   4.732
    1HEX    H2K 4061   3.936   4.301   4.647
    1HEX    H2M 4062   4.080   4.392   4.689
    1HEX    H2N 4063   3.873   4.220   4.883
    1STR    S00 4064   4.461   4.988   4.113
    1STR    S0E 4065   4.140   5.111   4.178
    1STR    S0M 4066   3.510   4.128   3.991
    1STR    S0X 4067   5.153   4.172   4.444
    1STR    S14 4068   4.550   4.445   5.057
    1STR    S1B 4069   3.961   4.321   4.886
    1HEX    C01 4070   4.637   4.207   8.028
    1HEX    C02 4071   4.572   4.212   8.167
    1HEX    C03 4072   4.420   4.217   8.154
    1HEX    O04 4073   4.357   4.121   8.111
    1HEX    O05 4074   4.369   4.335   8.192
    1HEX    C06 4075   4.229   4.355   8.195
    1HEX    C07 4076   4.173   4.346   8.339
    1HEX    C08 4077   4.223   4.469   8.419
    1HEX    O09 4078   4.167   4.594   8.381
    1HEX    C0A 4079   4.097   4.664   8.471
    1HEX    O0B 4080   4.041   4.618   8.570
    1HEX    C0C 4081   4.097   4.813   8.443
    1HEX    C0D 4082   4.106   4.892   8.574
    1HEX    C0F 4083   4.018   4.351   8.336
    1HEX    O0G 4084   3.968   4.228   8.281
    1HEX    C0H 4085   3.924   4.222   8.155
    1HEX    O0I 4086   3.899   4.318   8.083
    1HEX    C0J 4087   3.914   4.079   8.105
    1HEX    C0K 4088   3.796   4.004   8.168
    1HEX    C0N 4089   4.212   4.210   8.407
    1HEX    O0O 4090   4.344   4.186   8.459
    1HEX    C0P 4091   4.402   4.260   8.568
    1HEX    C0Q 4092   4.347   4.246   8.714
    1HEX    C0R 4093   4.434   4.144   8.793
    1HEX    O0S 4094   4.575   4.165   8.790
    1HEX    C0T 4095   4.650   4.095   8.879
    1HEX    O0U 4096   4.606   4.038   8.978
    1HEX    C0V 4097   4.797   4.087   8.842
    1HEX    C0W 4098   4.867   4.223   8.832
    1HEX    C0Y 4099   4.347   4.387   8.786
    1HEX    O0Z 4100   4.214   4.442   8.783
    1HEX    C10 4101   4.170   4.521   8.882
    1HEX    O11 4102   4.240   4.604   8.940
    1HEX    C12 4103   4.029   4.486   8.932
    1HEX    C13 4104   3.907   4.572   8.886
    1HEX    C15 4105   4.204   4.188   8.722
    1HEX    O16 4106   4.163   4.180   8.858
    1HEX    C17 4107   4.098   4.074   8.905
    1HEX    O18 4108   4.073   3.971   8.843
    1HEX    C19 4109   4.053   4.094   9.049
    1HEX    C1A 4110   3.911   4.153   9.053
    1HEX    H1C 4111   4.847   4.208   7.918
    1HEX    H1D 4112   4.607   4.117   7.975
    1HEX    H1E 4113   4.604   4.292   7.968
    1HEX    H1F 4114   4.605   4.299   8.223
    1HEX    H1G 4115   4.598   4.123   8.225
    1HEX    H1H 4116   4.179   4.284   8.128
    1HEX    H1I 4117   4.206   4.453   8.152
    1HEX    H1J 4118   4.330   4.482   8.400
    1HEX    H1K 4119   4.212   4.451   8.526
    1HEX    H1M 4120   4.008   4.840   8.386
    1HEX    H1N 4121   4.184   4.835   8.380
    1HEX    H1O 4122   4.182   4.850   8.641
    1HEX    H1P 4123   4.011   4.886   8.628
    1HEX    H1Q 4124   4.275   5.047   8.508
    1HEX    H1R 4125   3.982   4.438   8.281
    1HEX    H1S 4126   3.978   4.362   8.437
    1HEX    H1T 4127   4.008   4.028   8.127
    1HEX    H1U 4128   3.904   4.081   7.996
    1HEX    H1V 4129   3.702   4.054   8.146
    1HEX    H1W 4130   3.806   4.002   8.277
    1HEX    H1X 4131   3.774   3.865   7.975
    1HEX    H1Y 4132   4.200   4.133   8.331
    1HEX    H1Z 4133   4.135   4.181   8.478
    1HEX    H20 4134   4.419   4.363   8.541
    1HEX    H21 4135   4.505   4.224   8.567
    1HEX    H22 4136   4.417   4.043   8.753
    1HEX    H23 4137   4.401   4.140   8.897
    1HEX    H24 4138   4.804   4.034   8.747
    1HEX    H25 4139   4.848   4.023   8.915
    1HEX    H26 4140   4.809   4.292   8.771
    1HEX    H27 4141   4.964   4.211   8.784
    1HEX    H28 4142   4.766   4.300   9.034
    1HEX    H29 4143   4.418   4.457   8.742
    1HEX    H2A 4144   4.379   4.376   8.889
    1HEX    H2B 4145   4.037   4.497   9.040
    1HEX    H2C 4146   4.013   4.380   8.916
    1HEX    H2D 4147   3.944   4.668   8.851
    1HEX    H2E 4148   3.846   4.594   8.973
    1HEX    H2G 4149   4.200   4.091   8.672
    1HEX    H2H 4150   4.132   4.252   8.673
    1HEX    H2I 4151   4.125   4.161   9.096
    1HEX    H2J 4152   4.059   3.999   9.102
    1HEX    H2K 4153   3.836   4.074   9.057
    1HEX    H2M 4154   3.889   4.210   8.963
    1HEX    H2N 4155   3.894   4.167   9.290
    1STR    S00 4156   4.817   4.213   8.048
    1STR    S0E 4157   4.146   5.066   8.540
    1STR    S0M 4158   3.793   3.834   8.104
    1STR    S0X 4159   4.894   4.294   8.997
    1STR    S14 4160   3.790   4.504   8.756
    1STR    S1B 4161   3.896   4.263   9.197
    1HEX    C01 4162   4.456   4.870  12.622
    1HEX    C02 4163   4.486   4.741  12.704
    1HEX    C03 4164   4.446   4.606  12.640
    1HEX    O04 4165   4.530   4.532  12.590
    1HEX    O05 4166   4.316   4.576  12.653
    1HEX    C06 4167   4.263   4.446  12.621
    1HEX    C07 4168   4.185   4.383  12.741
    1HEX    C08 4169   4.163   4.487  12.852
    1HEX    O09 4170   4.103   4.606  12.804
    1HEX    C0A 4171   4.018   4.672  12.882
    1HEX    O0B 4172   3.935   4.620  12.956
    1HEX    C0C 4173   4.043   4.821  12.881
    1HEX    C0D 4174   4.072   4.868  13.026
    1HEX    C0F 4175   4.041   4.343  12.696
    1HEX    O0G 4176   4.040   4.229  12.611
    1HEX    C0H 4177   3.940   4.214  12.522
    1HEX    O0I 4178   3.858   4.300  12.491
    1HEX    C0J 4179   3.932   4.074  12.464
    1HEX    C0K 4180   3.810   4.000  12.520
    1HEX    C0N 4181   4.255   4.253  12.796
    1HEX    O0O 4182   4.390   4.254  12.845
    1HEX    C0P 4183   4.439   4.323  12.962
    1HEX    C0Q 4184   4.394   4.281  13.107
    1HEX    C0R 4185   4.426   4.131  13.130
    1HEX    O0S 4186   4.567   4.107  13.125
    1HEX    C0T 4187   4.637   4.082  13.238
    1HEX    O0U 4188   4.590   4.076  13.351
    1HEX    C0V 4189   4.786   4.064  13.213
    1HEX    C0W 4190   4.862   4.197  13.199
    1HEX    C0Y 4191   4.473   4.366  13.213
    1HEX    O0Z 4192   4.430   4.340  13.347
    1HEX    C10 4193   4.497   4.391  13.453
    1HEX    O11 4194   4.602   4.453  13.445
    1HEX    C12 4195   4.425   4.366  13.588
    1HEX    C13 4196   4.510   4.396  13.715
    1HEX    C15 4197   4.244   4.312  13.126
    1HEX    O16 4198   4.193   4.287  13.255
    1HEX    C17 4199   4.127   4.174  13.283
    1HEX    O18 4200   4.105   4.081  13.206
    1HEX    C19 4201   4.076   4.174  13.427
    1HEX    C1A 4202   4.000   4.305  13.456
    1HEX    H1D 4203   4.551   4.919  12.598
    1HEX    H1E 4204   4.415   4.841  12.525
    1HEX    H1F 4205   4.445   4.746  12.805
    1HEX    H1G 4206   4.594   4.733  12.716
    1HEX    H1H 4207   4.339   4.377  12.583
    1HEX    H1I 4208   4.195   4.460  12.536
    1HEX    H1J 4209   4.257   4.519  12.895
    1HEX    H1K 4210   4.103   4.444  12.932
    1HEX    H1M 4211   3.958   4.873  12.837
    1HEX    H1N 4212   4.129   4.840  12.816
    1HEX    H1O 4213   4.093   4.782  13.089
    1HEX    H1P 4214   3.984   4.916  13.069
    1HEX    H1Q 4215   4.223   5.015  12.909
    1HEX    H1R 4216   3.992   4.429  12.650
    1HEX    H1S 4217   3.979   4.319  12.782
    1HEX    H1T 4218   4.024   4.020  12.486
    1HEX    H1U 4219   3.924   4.083  12.355
    1HEX    H1V 4220   3.718   4.053  12.496
    1HEX    H1W 4221   3.816   3.995  12.629
    1HEX    H1X 4222   3.780   3.865  12.326
    1HEX    H1Y 4223   4.261   4.185  12.711
    1HEX    H1Z 4224   4.189   4.197  12.862
    1HEX    H20 4225   4.435   4.431  12.947
    1HEX    H21 4226   4.546   4.303  12.957
    1HEX    H22 4227   4.378   4.070  13.053
    1HEX    H23 4228   4.385   4.097  13.224
    1HEX    H24 4229   4.796   4.005  13.121
    1HEX    H25 4230   4.828   4.003  13.293
    1HEX    H26 4231   4.810   4.265  13.132
    1HEX    H27 4232   4.960   4.178  13.155
    1HEX    H28 4233   4.762   4.315  13.384
    1HEX    H29 4234   4.460   4.473  13.194
    1HEX    H2A 4235   4.580   4.348  13.205
    1HEX    H2B 4236   4.391   4.262  13.590
    1HEX    H2C 4237   4.336   4.428  13.586
    1HEX    H2D 4238   4.585   4.471  13.690
    1HEX    H2E 4239   4.565   4.308  13.747
    1HEX    H2G 4240   4.182   4.260  13.054
    1HEX    H2H 4241   4.229   4.419  13.110
    1HEX    H2I 4242   4.162   4.164  13.492
    1HEX    H2J 4243   4.013   4.087  13.442
    1HEX    H2K 4244   3.912   4.314  13.392
    1HEX    H2M 4245   4.063   4.392  13.436
    1HEX    H2N 4246   3.859   4.210  13.623
    1STR    S00 4247   4.343   4.998  12.696
    1STR    S0E 4248   4.218   4.975  13.037
    1STR    S0M 4249   3.805   3.831  12.453
    1STR    S0X 4250   4.888   4.277  13.360
    1STR    S14 4251   4.416   4.468  13.857
    1STR    S1B 4252   3.950   4.308  13.630
    1HEX    C01 4253   4.638   8.566  16.749
    1HEX    C02 4254   4.576   8.569  16.889
    1HEX    C03 4255   4.425   8.570  16.880
    1HEX    O04 4256   4.363   8.470  16.842
    1HEX    O05 4257   4.372   8.688  16.914
    1HEX    C06 4258   4.231   8.704  16.920
    1HEX    C07 4259   4.180   8.701  17.066
    1HEX    C08 4260   4.230   8.830  17.136
    1HEX    O09 4261   4.164   8.950  17.101
    1HEX    C0A 4262   4.097   9.019  17.195
    1HEX    O0B 4263   4.052   8.971  17.299
    1HEX    C0C 4264   4.089   9.168  17.166
    1HEX    C0D 4265   4.101   9.250  17.295
    1HEX    C0F 4266   4.025   8.700  17.066
    1HEX    O0G 4267   3.978   8.578  17.010
    1HEX    C0H 4268   3.926   8.575  16.886
    1HEX    O0I 4269   3.893   8.672  16.819
    1HEX    C0J 4270   3.916   8.433  16.831
    1HEX    C0K 4271   3.796   8.358  16.889
    1HEX    C0N 4272   4.226   8.571  17.141
    1HEX    O0O 4273   4.362   8.553  17.184
    1HEX    C0P 4274   4.428   8.634  17.283
    1HEX    C0Q 4275   4.393   8.623  17.435
    1HEX    C0R 4276   4.426   8.479   0.044
    1HEX    O0S 4277   4.567   8.455   0.039
    1HEX    C0T 4278   4.639   8.447   0.154
    1HEX    O0U 4279   4.594   8.456   0.268
    1HEX    C0V 4280   4.788   8.424   0.129
    1HEX    C0W 4281   4.870   8.554   0.120
    1HEX    C0Y 4282   4.483   8.725   0.068
    1HEX    O0Z 4283   4.461   8.721   0.208
    1HEX    C10 4284   4.548   8.779   0.290
    1HEX    O11 4285   4.649   8.840   0.256
    1HEX    C12 4286   4.507   8.761   0.435
    1HEX    C13 4287   4.614   8.812   0.533
    1HEX    C15 4288   4.245   8.661   0.027
    1HEX    O16 4289   4.207   8.641   0.163
    1HEX    C17 4290   4.133   8.535   0.199
    1HEX    O18 4291   4.100   8.442   0.126
    1HEX    C19 4292   4.088   8.543   0.344
    1HEX    C1A 4293   4.006   8.671   0.367
    1HEX    H1C 4294   4.846   8.570  16.634
    1HEX    H1D 4295   4.609   8.475  16.697
    1HEX    H1E 4296   4.602   8.651  16.690
    1HEX    H1F 4297   4.609   8.656  16.945
    1HEX    H1G 4298   4.606   8.481  16.947
    1HEX    H1H 4299   4.181   8.629  16.858
    1HEX    H1I 4300   4.204   8.799  16.873
    1HEX    H1J 4301   4.334   8.847  17.109
    1HEX    H1K 4302   4.227   8.816  17.243
    1HEX    H1M 4303   3.997   9.191  17.112
    1HEX    H1N 4304   4.172   9.192  17.099
    1HEX    H1O 4305   4.176   9.208  17.363
    1HEX    H1P 4306   4.006   9.249  17.349
    1HEX    H1Q 4307   4.275   9.398  17.225
    1HEX    H1R 4308   3.985   8.788  17.014
    1HEX    H1S 4309   3.986   8.708  17.168
    1HEX    H1T 4310   4.009   8.381  16.854
    1HEX    H1U 4311   3.909   8.439  16.723
    1HEX    H1V 4312   3.703   8.410  16.866
    1HEX    H1W 4313   3.803   8.353  16.998
    1HEX    H1X 4314   3.776   8.224  16.693
    1HEX    H1Y 4315   4.211   8.489  17.071
    1HEX    H1Z 4316   4.156   8.543  17.219
    1HEX    H20 4317   4.436   8.738  17.253
    1HEX    H21 4318   4.532   8.602  17.274
    1HEX    H22 4319   4.375   8.405  17.422
    1HEX    H23 4320   4.388   8.463   0.145
    1HEX    H24 4321   4.797   8.368   0.036
    1HEX    H25 4322   4.827   8.360   0.208
    1HEX    H26 4323   4.822   8.627   0.054
    1HEX    H27 4324   4.968   8.533   0.078
    1HEX    H28 4325   4.781   8.701   0.285
    1HEX    H29 4326   4.464   8.827   0.034
    1HEX    H2A 4327   4.588   8.706   0.047
    1HEX    H2B 4328   4.487   8.655   0.452
    1HEX    H2C 4329   4.413   8.814   0.449
    1HEX    H2D 4330   4.646   8.913   0.507
    1HEX    H2E 4331   4.703   8.748   0.527
    1HEX    H2F 4332   4.450   8.901   0.681
    1HEX    H2G 4333   4.174   8.609  17.405
    1HEX    H2H 4334   4.229   8.767   0.009
    1HEX    H2I 4335   4.176   8.541   0.408
    1HEX    H2J 4336   4.029   8.454   0.367
    1HEX    H2K 4337   3.920   8.674   0.300
    1HEX    H2M 4338   4.066   8.759   0.345
    1HEX    H2N 4339   3.865   8.575   0.533
    1STR    S00 4340   4.819   8.575  16.765
    1STR    S0E 4341   4.147   9.422  17.257
    1STR    S0M 4342   3.792   8.190  16.821
    1STR    S0X 4343   4.895   8.630   0.283
    1STR    S14 4344   4.546   8.810   0.701
    1STR    S1B 4345   3.950   8.678   0.539
    1HEX    C01 4346   4.640   8.568   3.670
    1HEX    C02 4347   4.579   8.573   3.810
    1HEX    C03 4348   4.427   8.576   3.801
    1HEX    O04 4349   4.364   8.479   3.760
    1HEX    O05 4350   4.376   8.694   3.840
    1HEX    C06 4351   4.235   8.709   3.848
    1HEX    C07 4352   4.186   8.701   3.995
    1HEX    C08 4353   4.228   8.830   4.068
    1HEX    O09 4354   4.160   8.948   4.030
    1HEX    C0A 4355   4.095   9.019   4.123
    1HEX    O0B 4356   4.051   8.975   4.229
    1HEX    C0C 4357   4.087   9.168   4.090
    1HEX    C0D 4358   4.100   9.253   4.217
    1HEX    C0F 4359   4.031   8.694   3.996
    1HEX    O0G 4360   3.987   8.572   3.935
    1HEX    C0H 4361   3.930   8.572   3.814
    1HEX    O0I 4362   3.893   8.671   3.751
    1HEX    C0J 4363   3.919   8.432   3.755
    1HEX    C0K 4364   3.798   8.357   3.812
    1HEX    C0N 4365   4.239   8.571   4.065
    1HEX    O0O 4366   4.377   8.555   4.105
    1HEX    C0P 4367   4.449   8.641   4.195
    1HEX    C0Q 4368   4.440   8.622   4.350
    1HEX    C0R 4369   4.527   8.500   4.394
    1HEX    O0S 4370   4.668   8.510   4.362
    1HEX    C0T 4371   4.762   8.522   4.461
    1HEX    O0U 4372   4.739   8.544   4.580
    1HEX    C0V 4373   4.907   8.500   4.414
    1HEX    C0W 4374   5.010   8.605   4.465
    1HEX    C0Y 4375   4.501   8.747   4.417
    1HEX    O0Z 4376   4.481   8.737   4.557
    1HEX    C10 4377   4.554   8.807   4.642
    1HEX    O11 4378   4.643   8.887   4.612
    1HEX    C12 4379   4.513   8.780   4.785
    1HEX    C13 4380   4.620   8.820   4.887
    1HEX    C15 4381   4.291   8.611   4.401
    1HEX    O16 4382   4.280   8.515   4.505
    1HEX    C17 4383   4.219   8.395   4.487
    1HEX    O18 4384   4.135   8.367   4.402
    1HEX    C19 4385   4.273   8.295   4.590
    1HEX    C1A 4386   4.230   8.146   4.583
    1HEX    H1C 4387   4.847   8.568   3.553
    1HEX    H1D 4388   4.609   8.477   3.618
    1HEX    H1E 4389   4.605   8.653   3.610
    1HEX    H1F 4390   4.613   8.660   3.865
    1HEX    H1G 4391   4.607   8.485   3.868
    1HEX    H1H 4392   4.184   8.636   3.785
    1HEX    H1I 4393   4.207   8.806   3.805
    1HEX    H1J 4394   4.331   8.853   4.041
    1HEX    H1K 4395   4.225   8.814   4.176
    1HEX    H1M 4396   3.995   9.189   4.036
    1HEX    H1N 4397   4.170   9.190   4.022
    1HEX    H1O 4398   4.174   9.211   4.285
    1HEX    H1P 4399   4.005   9.254   4.271
    1HEX    H1Q 4400   4.276   9.397   4.144
    1HEX    H1R 4401   3.987   8.781   3.947
    1HEX    H1S 4402   3.993   8.697   4.098
    1HEX    H1T 4403   4.012   8.379   3.776
    1HEX    H1U 4404   3.912   8.441   3.647
    1HEX    H1V 4405   3.706   8.411   3.790
    1HEX    H1W 4406   3.806   8.349   3.920
    1HEX    H1X 4407   3.776   8.229   3.612
    1HEX    H1Y 4408   4.225   8.490   3.993
    1HEX    H1Z 4409   4.169   8.537   4.142
    1HEX    H20 4410   4.441   8.746   4.170
    1HEX    H21 4411   4.553   8.622   4.170
    1HEX    H22 4412   4.488   8.410   4.347
    1HEX    H23 4413   4.516   8.485   4.501
    1HEX    H24 4414   4.906   8.495   4.305
    1HEX    H25 4415   4.936   8.400   4.449
    1HEX    H26 4416   4.962   8.703   4.473
    1HEX    H27 4417   5.040   8.579   4.567
    1HEX    H29 4418   4.455   8.840   4.383
    1HEX    H2A 4419   4.608   8.756   4.395
    1HEX    H2B 4420   4.492   8.673   4.794
    1HEX    H2C 4421   4.420   8.833   4.803
    1HEX    H2D 4422   4.653   8.923   4.870
    1HEX    H2E 4423   4.708   8.756   4.877
    1HEX    H2F 4424   4.455   8.899   5.040
    1HEX    H2G 4425   4.219   8.589   4.324
    1HEX    H2H 4426   4.256   8.706   4.440
    1HEX    H2I 4427   4.250   8.337   4.688
    1HEX    H2J 4428   4.381   8.301   4.579
    1HEX    H2K 4429   4.150   8.128   4.510
    1HEX    H2M 4430   4.189   8.116   4.679
    1STR    S00 4431   4.821   8.574   3.685
    1STR    S0E 4432   4.148   9.423   4.174
    1STR    S0M 4433   3.792   8.191   3.739
    1STR    S0X 4434   5.163   8.623   4.362
    1STR    S14 4435   4.550   8.805   5.054
    1STR    S1B 4436   4.373   8.034   4.549
    1HEX    C01 4437   4.638   8.566   8.029
    1HEX    C02 4438   4.576   8.569   8.169
    1HEX    C03 4439   4.425   8.570   8.160
    1HEX    O04 4440   4.363   8.470   8.122
    1HEX    O05 4441   4.372   8.688   8.194
    1HEX    C06 4442   4.231   8.704   8.200
    1HEX    C07 4443   4.180   8.701   8.346
    1HEX    C08 4444   4.230   8.829   8.416
    1HEX    O09 4445   4.164   8.950   8.380
    1HEX    C0A 4446   4.097   9.019   8.475
    1HEX    O0B 4447   4.052   8.971   8.579
    1HEX    C0C 4448   4.089   9.168   8.446
    1HEX    C0D 4449   4.101   9.250   8.575
    1HEX    C0F 4450   4.025   8.700   8.346
    1HEX    O0G 4451   3.978   8.578   8.290
    1HEX    C0H 4452   3.926   8.575   8.166
    1HEX    O0I 4453   3.893   8.672   8.099
    1HEX    C0J 4454   3.916   8.433   8.111
    1HEX    C0K 4455   3.796   8.358   8.169
    1HEX    C0N 4456   4.226   8.571   8.421
    1HEX    O0O 4457   4.362   8.553   8.464
    1HEX    C0P 4458   4.428   8.634   8.563
    1HEX    C0Q 4459   4.393   8.623   8.715
    1HEX    C0R 4460   4.426   8.479   8.764
    1HEX    O0S 4461   4.567   8.455   8.759
    1HEX    C0T 4462   4.639   8.447   8.874
    1HEX    O0U 4463   4.594   8.456   8.988
    1HEX    C0V 4464   4.788   8.424   8.849
    1HEX    C0W 4465   4.870   8.554   8.840
    1HEX    C0Y 4466   4.483   8.725   8.788
    1HEX    O0Z 4467   4.461   8.721   8.927
    1HEX    C10 4468   4.548   8.779   9.010
    1HEX    O11 4469   4.649   8.840   8.976
    1HEX    C12 4470   4.507   8.761   9.155
    1HEX    C13 4471   4.614   8.812   9.253
    1HEX    C15 4472   4.245   8.661   8.747
    1HEX    O16 4473   4.207   8.641   8.883
    1HEX    C17 4474   4.133   8.535   8.919
    1HEX    O18 4475   4.100   8.442   8.846
    1HEX    C19 4476   4.088   8.543   9.064
    1HEX    C1A 4477   4.006   8.671   9.087
    1HEX    H1C 4478   4.846   8.570   7.914
    1HEX    H1D 4479   4.609   8.475   7.977
    1HEX    H1E 4480   4.602   8.651   7.970
    1HEX    H1F 4481   4.609   8.656   8.225
    1HEX    H1G 4482   4.606   8.481   8.227
    1HEX    H1H 4483   4.181   8.629   8.138
    1HEX    H1I 4484   4.204   8.799   8.153
    1HEX    H1J 4485   4.334   8.847   8.389
    1HEX    H1K 4486   4.227   8.816   8.523
    1HEX    H1M 4487   3.997   9.191   8.392
    1HEX    H1N 4488   4.172   9.192   8.379
    1HEX    H1O 4489   4.176   9.208   8.643
    1HEX    H1P 4490   4.006   9.249   8.629
    1HEX    H1Q 4491   4.275   9.398   8.505
    1HEX    H1R 4492   3.985   8.787   8.294
    1HEX    H1S 4493   3.986   8.708   8.448
    1HEX    H1T 4494   4.009   8.381   8.134
    1HEX    H1U 4495   3.909   8.439   8.003
    1HEX    H1V 4496   3.703   8.410   8.146
    1HEX    H1W 4497   3.803   8.353   8.278
    1HEX    H1X 4498   3.776   8.224   7.973
    1HEX    H1Y 4499   4.211   8.489   8.351
    1HEX    H1Z 4500   4.156   8.543   8.499
    1HEX    H20 4501   4.436   8.738   8.533
    1HEX    H21 4502   4.532   8.602   8.554
    1HEX    H22 4503   4.375   8.405   8.702
    1HEX    H23 4504   4.388   8.463   8.865
    1HEX    H24 4505   4.797   8.368   8.756
    1HEX    H25 4506   4.827   8.360   8.928
    1HEX    H26 4507   4.822   8.627   8.774
    1HEX    H27 4508   4.968   8.533   8.798
    1HEX    H28 4509   4.781   8.701   9.005
    1HEX    H29 4510   4.464   8.827   8.754
    1HEX    H2A 4511   4.589   8.706   8.767
    1HEX    H2B 4512   4.487   8.655   9.172
    1HEX    H2C 4513   4.413   8.814   9.169
    1HEX    H2D 4514   4.646   8.913   9.227
    1HEX    H2E 4515   4.703   8.748   9.247
    1HEX    H2F 4516   4.450   8.900   9.401
    1HEX    H2G 4517   4.174   8.609   8.685
    1HEX    H2H 4518   4.229   8.767   8.729
    1HEX    H2I 4519   4.176   8.541   9.127
    1HEX    H2J 4520   4.029   8.454   9.087
    1HEX    H2K 4521   3.920   8.674   9.020
    1HEX    H2M 4522   4.066   8.759   9.065
    1HEX    H2N 4523   3.865   8.575   9.253
    1STR    S00 4524   4.819   8.575   8.045
    1STR    S0E 4525   4.147   9.422   8.537
    1STR    S0M 4526   3.792   8.190   8.101
    1STR    S0X 4527   4.895   8.630   9.003
    1STR    S14 4528   4.546   8.810   9.421
    1STR    S1B 4529   3.950   8.678   9.259
    1HEX    C01 4530   4.633   8.564  12.394
    1HEX    C02 4531   4.573   8.564  12.535
    1HEX    C03 4532   4.421   8.558  12.527
    1HEX    O04 4533   4.363   8.457  12.490
    1HEX    O05 4534   4.364   8.675  12.561
    1HEX    C06 4535   4.223   8.688  12.562
    1HEX    C07 4536   4.168   8.717  12.705
    1HEX    C08 4537   4.224   8.854  12.751
    1HEX    O09 4538   4.154   8.970  12.709
    1HEX    C0A 4539   4.092   9.044  12.803
    1HEX    O0B 4540   4.055   9.004  12.913
    1HEX    C0C 4541   4.079   9.190  12.763
    1HEX    C0D 4542   4.093   9.283  12.885
    1HEX    C0F 4543   4.013   8.719  12.697
    1HEX    O0G 4544   3.966   8.592  12.650
    1HEX    C0H 4545   3.915   8.579  12.526
    1HEX    O0I 4546   3.879   8.671  12.453
    1HEX    C0J 4547   3.913   8.435  12.478
    1HEX    C0K 4548   3.793   8.358  12.534
    1HEX    C0N 4549   4.206   8.606  12.808
    1HEX    O0O 4550   4.344   8.586  12.840
    1HEX    C0P 4551   4.415   8.669  12.933
    1HEX    C0Q 4552   4.384   8.659  13.086
    1HEX    C0R 4553   4.372   8.509  13.127
    1HEX    O0S 4554   4.478   8.426  13.078
    1HEX    C0T 4555   4.532   8.328  13.156
    1HEX    O0U 4556   4.521   8.319  13.278
    1HEX    C0V 4557   4.618   8.229  13.076
    1HEX    C0W 4558   4.648   8.092  13.143
    1HEX    C0Y 4559   4.508   8.718  13.158
    1HEX    O0Z 4560   4.490   8.706  13.298
    1HEX    C10 4561   4.565   8.780  13.379
    1HEX    O11 4562   4.654   8.857  13.345
    1HEX    C12 4563   4.523   8.762  13.524
    1HEX    C13 4564   4.625   8.820  13.622
    1HEX    C15 4565   4.256   8.743  13.130
    1HEX    O16 4566   4.278   8.863  13.209
    1HEX    C17 4567   4.170   8.937  13.251
    1HEX    O18 4568   4.054   8.910  13.222
    1HEX    C19 4569   4.201   9.058  13.343
    1HEX    C1A 4570   4.208   9.194  13.267
    1HEX    H1C 4571   4.840   8.571  12.277
    1HEX    H1D 4572   4.606   8.472  12.341
    1HEX    H1E 4573   4.594   8.647  12.336
    1HEX    H1F 4574   4.602   8.653  12.590
    1HEX    H1G 4575   4.607   8.477  12.592
    1HEX    H1H 4576   4.176   8.600  12.519
    1HEX    H1I 4577   4.195   8.770  12.495
    1HEX    H1J 4578   4.327   8.865  12.715
    1HEX    H1K 4579   4.233   8.856  12.858
    1HEX    H1M 4580   3.984   9.206  12.713
    1HEX    H1N 4581   4.158   9.211  12.691
    1HEX    H1O 4582   4.175   9.250  12.950
    1HEX    H1P 4583   4.003   9.281  12.946
    1HEX    H1Q 4584   4.261   9.442  12.836
    1HEX    H1R 4585   3.978   8.801  12.633
    1HEX    H1S 4586   3.970   8.739  12.795
    1HEX    H1T 4587   4.007   8.387  12.506
    1HEX    H1U 4588   3.910   8.435  12.369
    1HEX    H1V 4589   3.699   8.407  12.507
    1HEX    H1W 4590   3.798   8.354  12.643
    1HEX    H1X 4591   3.779   8.219  12.339
    1HEX    H1Y 4592   4.174   8.510  12.766
    1HEX    H1Z 4593   4.148   8.615  12.900
    1HEX    H20 4594   4.423   8.772  12.900
    1HEX    H21 4595   4.517   8.632  12.919
    1HEX    H22 4596   4.280   8.467  13.086
    1HEX    H23 4597   4.362   8.501  13.235
    1HEX    H24 4598   4.713   8.280  13.061
    1HEX    H25 4599   4.575   8.215  12.977
    1HEX    H26 4600   4.684   8.111  13.244
    1HEX    H27 4601   4.730   8.043  13.091
    1HEX    H29 4602   4.521   8.823  13.130
    1HEX    H2A 4603   4.600   8.666  13.130
    1HEX    H2B 4604   4.508   8.655  13.542
    1HEX    H2C 4605   4.426   8.810  13.535
    1HEX    H2D 4606   4.651   8.923  13.595
    1HEX    H2E 4607   4.717   8.762  13.619
    1HEX    H2F 4608   4.454   8.903  13.765
    1HEX    H2G 4609   4.188   8.678  13.186
    1HEX    H2H 4610   4.197   8.774  13.045
    1HEX    H2I 4611   4.291   9.038  13.401
    1HEX    H2J 4612   4.119   9.062  13.415
    1HEX    H2K 4613   4.120   9.203  13.203
    1HEX    H2M 4614   4.293   9.191  13.199
    1STR    S00 4615   4.814   8.577  12.408
    1STR    S0E 4616   4.128   9.451  12.826
    1STR    S0M 4617   3.795   8.188  12.468
    1STR    S0X 4618   4.513   7.968  13.159
    1STR    S14 4619   4.554   8.818  13.789
    1STR    S1B 4620   4.221   9.353  13.365
    1HEX    C01 4621   4.457  13.547  17.101
    1HEX    C02 4622   4.541  13.424  17.047
    1HEX    C03 4623   4.472  13.289  17.016
    1HEX    O04 4624   4.542  13.192  16.991
    1HEX    O05 4625   4.337  13.285  17.021
    1HEX    C06 4626   4.264  13.167  16.980
    1HEX    C07 4627   4.176  13.101  17.091
    1HEX    C08 4628   4.154  13.200  17.207
    1HEX    O09 4629   4.104  13.324  17.161
    1HEX    C0A 4630   4.067  13.414  17.252
    1HEX    O0B 4631   4.037  13.389  17.369
    1HEX    C0C 4632   4.073  13.556  17.199
    1HEX    C0D 4633   4.094  13.657  17.313
    1HEX    C0F 4634   4.032  13.073  17.037
    1HEX    O0G 4635   4.028  12.956  16.956
    1HEX    C0H 4636   3.936  12.941  16.861
    1HEX    O0I 4637   3.861  13.030  16.819
    1HEX    C0J 4638   3.927  12.799  16.809
    1HEX    C0K 4639   3.809  12.725  16.874
    1HEX    C0N 4640   4.231  12.962  17.140
    1HEX    O0O 4641   4.367  12.942  17.181
    1HEX    C0P 4642   4.431  13.020  17.281
    1HEX    C0Q 4643   4.399  12.995  17.432
    1HEX    C0R 4644   4.434  12.849   0.030
    1HEX    O0S 4645   4.575  12.825   0.030
    1HEX    C0T 4646   4.642  12.810   0.147
    1HEX    O0U 4647   4.593  12.813   0.259
    1HEX    C0V 4648   4.791  12.786   0.126
    1HEX    C0W 4649   4.873  12.916   0.119
    1HEX    C0Y 4650   4.489  13.094   0.069
    1HEX    O0Z 4651   4.466  13.084   0.208
    1HEX    C10 4652   4.551  13.141   0.293
    1HEX    O11 4653   4.653  13.203   0.261
    1HEX    C12 4654   4.509  13.121   0.437
    1HEX    C13 4655   4.615  13.172   0.536
    1HEX    C15 4656   4.251  13.027   0.027
    1HEX    O16 4657   4.215  13.001   0.162
    1HEX    C17 4658   4.136  12.897   0.194
    1HEX    O18 4659   4.098  12.809   0.118
    1HEX    C19 4660   4.091  12.902   0.339
    1HEX    C1A 4661   4.008  13.030   0.364
    1HEX    H1D 4662   4.543  13.582  17.158
    1HEX    H1E 4663   4.414  13.562  17.001
    1HEX    H1F 4664   4.619  13.397  17.119
    1HEX    H1G 4665   4.595  13.451  16.956
    1HEX    H1H 4666   4.329  13.091  16.934
    1HEX    H1I 4667   4.200  13.199  16.898
    1HEX    H1J 4668   4.248  13.225  17.256
    1HEX    H1K 4669   4.087  13.159  17.282
    1HEX    H1M 4670   3.982  13.578  17.143
    1HEX    H1N 4671   4.156  13.562  17.128
    1HEX    H1O 4672   4.182  13.630  17.372
    1HEX    H1P 4673   4.009  13.653  17.382
    1HEX    H1Q 4674   4.239  13.809  17.208
    1HEX    H1R 4675   3.992  13.160  16.985
    1HEX    H1S 4676   3.962  13.056  17.119
    1HEX    H1T 4677   4.021  12.747  16.830
    1HEX    H1U 4678   3.916  12.802  16.701
    1HEX    H1V 4679   3.715  12.776  16.852
    1HEX    H1W 4680   3.819  12.725  16.983
    1HEX    H1X 4681   3.776  12.582  16.687
    1HEX    H1Y 4682   4.228  12.893  17.055
    1HEX    H1Z 4683   4.162  12.913  17.209
    1HEX    H20 4684   4.429  13.125  17.253
    1HEX    H21 4685   4.536  12.994  17.267
    1HEX    H22 4686   4.386  12.779  17.402
    1HEX    H23 4687   4.392  12.825   0.128
    1HEX    H24 4688   4.802  12.730   0.033
    1HEX    H25 4689   4.827  12.722   0.206
    1HEX    H26 4690   4.826  12.989   0.053
    1HEX    H27 4691   4.972  12.894   0.078
    1HEX    H28 4692   4.782  13.062   0.284
    1HEX    H29 4693   4.470  13.197   0.039
    1HEX    H2A 4694   4.594  13.075   0.048
    1HEX    H2B 4695   4.490  13.015   0.452
    1HEX    H2C 4696   4.414  13.174   0.450
    1HEX    H2D 4697   4.646  13.273   0.511
    1HEX    H2E 4698   4.704  13.109   0.531
    1HEX    H2F 4699   4.448  13.260   0.682
    1HEX    H2G 4700   4.182  12.975  17.402
    1HEX    H2H 4701   4.233  13.133   0.015
    1HEX    H2I 4702   4.179  12.900   0.403
    1HEX    H2J 4703   4.032  12.813   0.361
    1HEX    H2K 4704   3.922  13.034   0.297
    1HEX    H2M 4705   4.069  13.118   0.342
    1HEX    H2N 4706   3.867  12.934   0.530
    1STR    S00 4707   4.488  13.728  17.059
    1STR    S0E 4708   4.112  13.824  17.246
    1STR    S0M 4709   3.803  12.554  16.815
    1STR    S0X 4710   4.896  12.990   0.284
    1STR    S14 4711   4.544  13.169   0.704
    1STR    S1B 4712   3.953  13.036   0.537
    1HEX    C01 4713   4.638  12.926   3.669
    1HEX    C02 4714   4.576  12.929   3.809
    1HEX    C03 4715   4.425  12.930   3.800
    1HEX    O04 4716   4.363  12.830   3.762
    1HEX    O05 4717   4.372  13.048   3.834
    1HEX    C06 4718   4.231  13.064   3.839
    1HEX    C07 4719   4.180  13.061   3.986
    1HEX    C08 4720   4.230  13.190   4.056
    1HEX    O09 4721   4.164  13.310   4.020
    1HEX    C0A 4722   4.097  13.379   4.115
    1HEX    O0B 4723   4.052  13.331   4.219
    1HEX    C0C 4724   4.089  13.528   4.086
    1HEX    C0D 4725   4.101  13.610   4.215
    1HEX    C0F 4726   4.025  13.061   3.986
    1HEX    O0G 4727   3.978  12.938   3.930
    1HEX    C0H 4728   3.926  12.935   3.806
    1HEX    O0I 4729   3.893  13.032   3.739
    1HEX    C0J 4730   3.916  12.793   3.751
    1HEX    C0K 4731   3.796  12.718   3.809
    1HEX    C0N 4732   4.226  12.931   4.061
    1HEX    O0O 4733   4.362  12.914   4.104
    1HEX    C0P 4734   4.428  12.995   4.203
    1HEX    C0Q 4735   4.393  12.983   4.355
    1HEX    C0R 4736   4.427  12.839   4.404
    1HEX    O0S 4737   4.568  12.815   4.399
    1HEX    C0T 4738   4.639  12.807   4.514
    1HEX    O0U 4739   4.595  12.816   4.628
    1HEX    C0V 4740   4.788  12.784   4.489
    1HEX    C0W 4741   4.870  12.915   4.480
    1HEX    C0Y 4742   4.483  13.085   4.428
    1HEX    O0Z 4743   4.461  13.081   4.568
    1HEX    C10 4744   4.548  13.139   4.650
    1HEX    O11 4745   4.649  13.200   4.616
    1HEX    C12 4746   4.507  13.122   4.795
    1HEX    C13 4747   4.614  13.172   4.893
    1HEX    C15 4748   4.245  13.021   4.387
    1HEX    O16 4749   4.207  13.001   4.523
    1HEX    C17 4750   4.133  12.895   4.559
    1HEX    O18 4751   4.100  12.802   4.486
    1HEX    C19 4752   4.088  12.903   4.704
    1HEX    C1A 4753   4.006  13.031   4.727
    1HEX    H1C 4754   4.846  12.929   3.555
    1HEX    H1D 4755   4.609  12.835   3.617
    1HEX    H1E 4756   4.602  13.011   3.610
    1HEX    H1F 4757   4.609  13.016   3.865
    1HEX    H1G 4758   4.606  12.841   3.867
    1HEX    H1H 4759   4.181  12.989   3.778
    1HEX    H1I 4760   4.204  13.159   3.793
    1HEX    H1J 4761   4.334  13.207   4.029
    1HEX    H1K 4762   4.227  13.176   4.163
    1HEX    H1M 4763   3.998  13.551   4.032
    1HEX    H1N 4764   4.172  13.552   4.019
    1HEX    H1O 4765   4.176  13.568   4.283
    1HEX    H1P 4766   4.006  13.609   4.270
    1HEX    H1Q 4767   4.275  13.758   4.145
    1HEX    H1R 4768   3.985  13.148   3.934
    1HEX    H1S 4769   3.986  13.069   4.088
    1HEX    H1T 4770   4.009  12.741   3.774
    1HEX    H1U 4771   3.909  12.800   3.643
    1HEX    H1V 4772   3.703  12.770   3.786
    1HEX    H1W 4773   3.803  12.713   3.918
    1HEX    H1X 4774   3.776  12.584   3.613
    1HEX    H1Y 4775   4.211  12.849   3.991
    1HEX    H1Z 4776   4.156  12.903   4.139
    1HEX    H20 4777   4.436  13.098   4.173
    1HEX    H21 4778   4.532  12.962   4.194
    1HEX    H22 4779   4.376  12.765   4.342
    1HEX    H23 4780   4.388  12.823   4.505
    1HEX    H24 4781   4.797  12.729   4.396
    1HEX    H25 4782   4.827  12.720   4.568
    1HEX    H26 4783   4.822  12.987   4.414
    1HEX    H27 4784   4.968  12.893   4.438
    1HEX    H28 4785   4.781  13.061   4.645
    1HEX    H29 4786   4.464  13.187   4.394
    1HEX    H2A 4787   4.589  13.066   4.407
    1HEX    H2B 4788   4.487  13.016   4.812
    1HEX    H2C 4789   4.413  13.175   4.809
    1HEX    H2D 4790   4.646  13.273   4.867
    1HEX    H2E 4791   4.703  13.109   4.887
    1HEX    H2F 4792   4.450  13.261   5.041
    1HEX    H2G 4793   4.174  12.969   4.325
    1HEX    H2H 4794   4.229  13.127   4.369
    1HEX    H2I 4795   4.176  12.901   4.767
    1HEX    H2J 4796   4.029  12.814   4.727
    1HEX    H2K 4797   3.920  13.034   4.659
    1HEX    H2M 4798   4.066  13.119   4.705
    1HEX    H2N 4799   3.865  12.935   4.893
    1STR    S00 4800   4.819  12.935   3.685
    1STR    S0E 4801   4.147  13.782   4.177
    1STR    S0M 4802   3.792  12.550   3.741
    1STR    S0X 4803   4.895  12.990   4.643
    1STR    S14 4804   4.546  13.170   5.061
    1STR    S1B 4805   3.950  13.038   4.899
    1HEX    C01 4806   4.638  12.926   8.029
    1HEX    C02 4807   4.576  12.929   8.169
    1HEX    C03 4808   4.425  12.930   8.160
    1HEX    O04 4809   4.363  12.830   8.122
    1HEX    O05 4810   4.372  13.048   8.194
    1HEX    C06 4811   4.231  13.064   8.199
    1HEX    C07 4812   4.180  13.061   8.346
    1HEX    C08 4813   4.230  13.190   8.416
    1HEX    O09 4814   4.164  13.311   8.380
    1HEX    C0A 4815   4.097  13.379   8.475
    1HEX    O0B 4816   4.052  13.331   8.579
    1HEX    C0C 4817   4.089  13.528   8.446
    1HEX    C0D 4818   4.101  13.611   8.575
    1HEX    C0F 4819   4.025  13.061   8.346
    1HEX    O0G 4820   3.978  12.938   8.290
    1HEX    C0H 4821   3.926  12.935   8.166
    1HEX    O0I 4822   3.893  13.032   8.099
    1HEX    C0J 4823   3.916  12.793   8.111
    1HEX    C0K 4824   3.796  12.718   8.169
    1HEX    C0N 4825   4.226  12.931   8.421
    1HEX    O0O 4826   4.362  12.914   8.464
    1HEX    C0P 4827   4.428  12.994   8.563
    1HEX    C0Q 4828   4.393  12.983   8.715
    1HEX    C0R 4829   4.426  12.839   8.764
    1HEX    O0S 4830   4.567  12.815   8.759
    1HEX    C0T 4831   4.639  12.807   8.874
    1HEX    O0U 4832   4.594  12.816   8.988
    1HEX    C0V 4833   4.788  12.784   8.849
    1HEX    C0W 4834   4.870  12.914   8.840
    1HEX    C0Y 4835   4.483  13.085   8.788
    1HEX    O0Z 4836   4.461  13.081   8.928
    1HEX    C10 4837   4.548  13.139   9.010
    1HEX    O11 4838   4.649  13.200   8.976
    1HEX    C12 4839   4.507  13.122   9.155
    1HEX    C13 4840   4.614  13.172   9.253
    1HEX    C15 4841   4.245  13.021   8.747
    1HEX    O16 4842   4.207  13.001   8.883
    1HEX    C17 4843   4.133  12.895   8.919
    1HEX    O18 4844   4.100  12.802   8.846
    1HEX    C19 4845   4.088  12.903   9.064
    1HEX    C1A 4846   4.006  13.031   9.087
    1HEX    H1C 4847   4.846  12.930   7.914
    1HEX    H1D 4848   4.609  12.835   7.977
    1HEX    H1E 4849   4.602  13.011   7.970
    1HEX    H1F 4850   4.609  13.016   8.225
    1HEX    H1G 4851   4.606  12.841   8.227
    1HEX    H1H 4852   4.181  12.989   8.138
    1HEX    H1I 4853   4.205  13.159   8.153
    1HEX    H1J 4854   4.334  13.207   8.389
    1HEX    H1K 4855   4.227  13.176   8.523
    1HEX    H1M 4856   3.998  13.551   8.392
    1HEX    H1N 4857   4.172  13.552   8.379
    1HEX    H1O 4858   4.176  13.568   8.642
    1HEX    H1P 4859   4.006  13.609   8.629
    1HEX    H1Q 4860   4.275  13.758   8.505
    1HEX    H1R 4861   3.985  13.148   8.294
    1HEX    H1S 4862   3.986  13.069   8.448
    1HEX    H1T 4863   4.009  12.741   8.134
    1HEX    H1U 4864   3.909  12.800   8.003
    1HEX    H1V 4865   3.703  12.770   8.146
    1HEX    H1W 4866   3.803  12.713   8.278
    1HEX    H1X 4867   3.776  12.584   7.973
    1HEX    H1Y 4868   4.211  12.849   8.351
    1HEX    H1Z 4869   4.156  12.903   8.499
    1HEX    H20 4870   4.436  13.098   8.533
    1HEX    H21 4871   4.532  12.962   8.554
    1HEX    H22 4872   4.375  12.765   8.702
    1HEX    H23 4873   4.388  12.823   8.865
    1HEX    H24 4874   4.797  12.728   8.756
    1HEX    H25 4875   4.827  12.720   8.928
    1HEX    H26 4876   4.822  12.987   8.774
    1HEX    H27 4877   4.968  12.893   8.798
    1HEX    H28 4878   4.781  13.061   9.005
    1HEX    H29 4879   4.464  13.187   8.754
    1HEX    H2A 4880   4.589  13.066   8.767
    1HEX    H2B 4881   4.487  13.016   9.172
    1HEX    H2C 4882   4.413  13.175   9.169
    1HEX    H2D 4883   4.646  13.273   9.227
    1HEX    H2E 4884   4.703  13.109   9.247
    1HEX    H2F 4885   4.450  13.261   9.401
    1HEX    H2G 4886   4.174  12.969   8.685
    1HEX    H2H 4887   4.229  13.127   8.729
    1HEX    H2I 4888   4.176  12.901   9.127
    1HEX    H2J 4889   4.030  12.814   9.087
    1HEX    H2K 4890   3.920  13.034   9.020
    1HEX    H2M 4891   4.066  13.119   9.065
    1HEX    H2N 4892   3.865  12.935   9.253
    1STR    S00 4893   4.819  12.935   8.045
    1STR    S0E 4894   4.147  13.782   8.537
    1STR    S0M 4895   3.792  12.550   8.101
    1STR    S0X 4896   4.895  12.990   9.003
    1STR    S14 4897   4.546  13.170   9.421
    1STR    S1B 4898   3.950  13.038   9.259
    1HEX    C01 4899   4.624  12.931  12.384
    1HEX    C02 4900   4.554  12.940  12.520
    1HEX    C03 4901   4.403  12.939  12.504
    1HEX    O04 4902   4.343  12.839  12.465
    1HEX    O05 4903   4.347  13.057  12.538
    1HEX    C06 4904   4.207  13.067  12.561
    1HEX    C07 4905   4.179  13.070  12.713
    1HEX    C08 4906   4.241  13.197  12.775
    1HEX    O09 4907   4.180  13.321  12.740
    1HEX    C0A 4908   4.109  13.388  12.833
    1HEX    O0B 4909   4.063  13.339  12.936
    1HEX    C0C 4910   4.097  13.536  12.803
    1HEX    C0D 4911   4.104  13.618  12.934
    1HEX    C0F 4912   4.026  13.077  12.740
    1HEX    O0G 4913   3.952  12.955  12.722
    1HEX    C0H 4914   3.848  12.953  12.637
    1HEX    O0I 4915   3.837  13.023  12.537
    1HEX    C0J 4916   3.736  12.859  12.680
    1HEX    C0K 4917   3.635  12.939  12.767
    1HEX    C0N 4918   4.238  12.943  12.782
    1HEX    O0O 4919   4.378  12.942  12.823
    1HEX    C0P 4920   4.433  13.008  12.940
    1HEX    C0Q 4921   4.403  12.947  13.081
    1HEX    C0R 4922   4.458  12.802  13.080
    1HEX    O0S 4923   4.599  12.809  13.058
    1HEX    C0T 4924   4.687  12.738  13.132
    1HEX    O0U 4925   4.658  12.654  13.217
    1HEX    C0V 4926   4.832  12.767  13.096
    1HEX    C0W 4927   4.880  12.910  13.128
    1HEX    C0Y 4928   4.475  13.024  13.196
    1HEX    O0Z 4929   4.433  12.969  13.321
    1HEX    C10 4930   4.503  12.876  13.389
    1HEX    O11 4931   4.625  12.876  13.403
    1HEX    C12 4932   4.410  12.777  13.461
    1HEX    C13 4933   4.438  12.623  13.455
    1HEX    C15 4934   4.249  12.955  13.105
    1HEX    O16 4935   4.197  12.935  13.236
    1HEX    C17 4936   4.095  12.850  13.258
    1HEX    O18 4937   4.052  12.767  13.179
    1HEX    C19 4938   4.032  12.865  13.396
    1HEX    C1A 4939   3.994  13.011  13.424
    1HEX    H1C 4940   4.839  12.928  12.282
    1HEX    H1D 4941   4.598  12.838  12.333
    1HEX    H1E 4942   4.593  13.014  12.319
    1HEX    H1F 4943   4.584  13.030  12.574
    1HEX    H1G 4944   4.581  12.855  12.582
    1HEX    H1H 4945   4.151  12.985  12.513
    1HEX    H1I 4946   4.171  13.158  12.514
    1HEX    H1J 4947   4.346  13.204  12.746
    1HEX    H1K 4948   4.238  13.187  12.883
    1HEX    H1M 4949   4.005  13.556  12.749
    1HEX    H1N 4950   4.180  13.563  12.738
    1HEX    H1O 4951   4.178  13.575  13.003
    1HEX    H1P 4952   4.008  13.614  12.985
    1HEX    H1Q 4953   4.278  13.767  12.867
    1HEX    H1R 4954   3.982  13.159  12.682
    1HEX    H1S 4955   4.008  13.105  12.844
    1HEX    H1T 4956   3.778  12.773  12.732
    1HEX    H1U 4957   3.690  12.821  12.589
    1HEX    H1V 4958   3.549  12.926  12.702
    1HEX    H1W 4959   3.673  12.909  12.865
    1HEX    H1Y 4960   4.232  12.862  12.708
    1HEX    H1Z 4961   4.168  12.905  12.854
    1HEX    H20 4962   4.420  13.115  12.941
    1HEX    H21 4963   4.541  13.000  12.924
    1HEX    H22 4964   4.411  12.743  13.001
    1HEX    H23 4965   4.433  12.752  13.172
    1HEX    H24 4966   4.841  12.747  12.990
    1HEX    H25 4967   4.895  12.694  13.147
    1HEX    H26 4968   4.807  12.984  13.095
    1HEX    H27 4969   4.972  12.930  13.073
    1HEX    H28 4970   4.792  12.914  13.351
    1HEX    H29 4971   4.449  13.130  13.195
    1HEX    H2A 4972   4.584  13.020  13.187
    1HEX    H2B 4973   4.309  12.798  13.429
    1HEX    H2C 4974   4.415  12.809  13.565
    1HEX    H2D 4975   4.387  12.579  13.541
    1HEX    H2E 4976   4.544  12.606  13.472
    1HEX    H2G 4977   4.203  12.881  13.042
    1HEX    H2H 4978   4.212  13.053  13.073
    1HEX    H2I 4979   4.101  12.829  13.472
    1HEX    H2J 4980   3.945  12.800  13.401
    1HEX    H2K 4981   3.913  13.043  13.358
    1HEX    H2M 4982   4.078  13.078  13.406
    1HEX    H2N 4983   3.840  12.941  13.593
    1STR    S00 4984   4.804  12.939  12.411
    1STR    S0E 4985   4.150  13.790  12.898
    1STR    S0M 4986   3.493  12.867  12.859
    1STR    S0X 4987   4.917  12.934  13.304
    1STR    S14 4988   4.385  12.518  13.309
    1STR    S1B 4989   3.944  13.026  13.598
    1HEX    C01 4990   9.155  17.226  16.817
    1HEX    C02 4991   9.120  17.147  16.944
    1HEX    C03 4992   8.971  17.124  16.945
    1HEX    O04 4993   8.922  17.011  16.953
    1HEX    O05 4994   8.905  17.238  16.925
    1HEX    C06 4995   8.767  17.236  16.896
    1HEX    C07 4996   8.684  17.282  17.017
    1HEX    C08 4997   8.730  17.428  17.061
    1HEX    O09 4998   8.673   0.116  17.034
    1HEX    C0A 4999   8.717   0.225  17.106
    1HEX    O0B 5000   8.803   0.220  17.194
    1HEX    C0C 5001   8.639   0.355  17.082
    1HEX    C0D 5002   8.584   0.418  17.213
    1HEX    C0F 5003   8.537  17.269  16.970
    1HEX    O0G 5004   8.492  17.144  16.917
    1HEX    C0H 5005   8.367  17.141  16.864
    1HEX    O0I 5006   8.291  17.236  16.856
    1HEX    C0J 5007   8.321  17.006  16.813
    1HEX    C0K 5008   8.179  16.974  16.863
    1HEX    C0N 5009   8.702  17.180  17.135
    1HEX    O0O 5010   8.820  17.187  17.214
    1HEX    C0P 5011   8.853  17.299  17.299
    1HEX    C0Q 5012   8.763  17.339  17.422
    1HEX    C0R 5013   8.760  17.213   0.075
    1HEX    O0S 5014   8.892  17.156   0.087
    1HEX    C0T 5015   8.971  17.174   0.195
    1HEX    O0U 5016   8.934  17.215   0.304
    1HEX    C0V 5017   9.117  17.135   0.168
    1HEX    C0W 5018   9.212  17.254   0.142
    1HEX    C0Y 5019   8.848   0.007   0.055
    1HEX    O0Z 5020   8.807   0.029   0.190
    1HEX    C10 5021   8.898   0.075   0.278
    1HEX    O11 5022   9.010   0.118   0.249
    1HEX    C12 5023   8.851   0.065   0.423
    1HEX    C13 5024   8.963   0.097   0.523
    1HEX    C15 5025   8.618  17.408  17.394
    1HEX    O16 5026   8.538  17.366  17.280
    1HEX    C17 5027   8.413  17.418  17.241
    1HEX    O18 5028   8.308  17.366  17.277
    1HEX    C19 5029   8.408   0.095  17.135
    1HEX    C1A 5030   8.354   0.080  16.982
    1HEX    H1C 5031   9.331  17.293  16.674
    1HEX    H1D 5032   9.107  17.179  16.731
    1HEX    H1E 5033   9.117  17.328  16.823
    1HEX    H1F 5034   9.148  17.202  17.034
    1HEX    H1G 5035   9.169  17.050  16.947
    1HEX    H1H 5036   8.735  17.138  16.860
    1HEX    H1I 5037   8.752  17.300  16.810
    1HEX    H1J 5038   8.837  17.439  17.046
    1HEX    H1K 5039   8.712  17.432  17.166
    1HEX    H1M 5040   8.558   0.338  17.010
    1HEX    H1N 5041   8.708   0.424  17.033
    1HEX    H1O 5042   8.657   0.412  17.294
    1HEX    H1P 5043   8.495   0.367  17.248
    1HEX    H1Q 5044   8.663   0.643  17.204
    1HEX    H1R 5045   8.520  17.342  16.893
    1HEX    H1S 5046   8.468  17.288  17.050
    1HEX    H1T 5047   8.392  16.929  16.842
    1HEX    H1U 5048   8.322  17.012  16.704
    1HEX    H1V 5049   8.110  17.056  16.842
    1HEX    H1W 5050   8.179  16.960  16.971
    1HEX    H1X 5051   8.105  16.877  16.659
    1HEX    H1Y 5052   8.703  17.080  17.091
    1HEX    H1Z 5053   8.615  17.172  17.200
    1HEX    H20 5054   8.890  17.386  17.245
    1HEX    H21 5055   8.950  17.265  17.336
    1HEX    H22 5056   8.696  17.136   0.032
    1HEX    H23 5057   8.719  17.235   0.174
    1HEX    H24 5058   9.118  17.069   0.082
    1HEX    H25 5059   9.153  17.076   0.252
    1HEX    H26 5060   9.169  17.325   0.070
    1HEX    H27 5061   9.305  17.218   0.097
    1HEX    H28 5062   9.147  17.423   0.296
    1HEX    H29 5063   8.849   0.102   0.002
    1HEX    H2A 5064   8.952  17.416   0.057
    1HEX    H2B 5065   8.816  17.403   0.439
    1HEX    H2C 5066   8.766   0.132   0.435
    1HEX    H2D 5067   9.007   0.195   0.503
    1HEX    H2E 5068   9.044   0.024   0.514
    1HEX    H2F 5069   8.808   0.193   0.676
    1HEX    H2G 5070   8.635   0.074  17.376
    1HEX    H2H 5071   8.559  17.404   0.045
    1HEX    H2I 5072   8.488   0.162  17.153
    1HEX    H2J 5073   8.329   0.152  17.184
    1HEX    H2K 5074   8.295  17.430  16.980
    1HEX    H2M 5075   8.274   0.154  16.984
    1STR    S00 5076   9.334  17.228  16.791
    1STR    S0E 5077   8.541   0.592  17.188
    1STR    S0M 5078   8.117  16.824  16.781
    1STR    S0X 5079   9.255  17.343   0.294
    1STR    S14 5080   8.896   0.093   0.691
    1STR    S1B 5081   8.415   0.124  16.799
    1HEX    C01 5082   8.998  17.286   3.669
    1HEX    C02 5083   8.936  17.289   3.809
    1HEX    C03 5084   8.785  17.289   3.800
    1HEX    O04 5085   8.723  17.190   3.762
    1HEX    O05 5086   8.732  17.408   3.834
    1HEX    C06 5087   8.591  17.424   3.839
    1HEX    C07 5088   8.540  17.421   3.986
    1HEX    C08 5089   8.590   0.109   4.056
    1HEX    O09 5090   8.524   0.230   4.020
    1HEX    C0A 5091   8.457   0.298   4.115
    1HEX    O0B 5092   8.412   0.251   4.219
    1HEX    C0C 5093   8.450   0.448   4.086
    1HEX    C0D 5094   8.461   0.530   4.215
    1HEX    C0F 5095   8.385  17.420   3.986
    1HEX    O0G 5096   8.338  17.297   3.930
    1HEX    C0H 5097   8.286  17.294   3.806
    1HEX    O0I 5098   8.253  17.391   3.739
    1HEX    C0J 5099   8.276  17.153   3.751
    1HEX    C0K 5100   8.156  17.078   3.809
    1HEX    C0N 5101   8.586  17.291   4.061
    1HEX    O0O 5102   8.722  17.273   4.104
    1HEX    C0P 5103   8.788  17.354   4.203
    1HEX    C0Q 5104   8.753  17.342   4.355
    1HEX    C0R 5105   8.787  17.199   4.404
    1HEX    O0S 5106   8.928  17.174   4.399
    1HEX    C0T 5107   8.999  17.167   4.514
    1HEX    O0U 5108   8.955  17.175   4.628
    1HEX    C0V 5109   9.148  17.144   4.489
    1HEX    C0W 5110   9.230  17.274   4.480
    1HEX    C0Y 5111   8.843   0.005   4.428
    1HEX    O0Z 5112   8.821   0.001   4.568
    1HEX    C10 5113   8.907   0.059   4.650
    1HEX    O11 5114   9.009   0.120   4.616
    1HEX    C12 5115   8.867   0.041   4.795
    1HEX    C13 5116   8.974   0.092   4.893
    1HEX    C15 5117   8.605  17.380   4.387
    1HEX    O16 5118   8.567  17.360   4.523
    1HEX    C17 5119   8.493  17.254   4.559
    1HEX    O18 5120   8.460  17.161   4.486
    1HEX    C19 5121   8.448  17.262   4.704
    1HEX    C1A 5122   8.366  17.390   4.727
    1HEX    H1C 5123   9.206  17.290   3.555
    1HEX    H1D 5124   8.970  17.195   3.617
    1HEX    H1E 5125   8.962  17.371   3.610
    1HEX    H1F 5126   8.969  17.376   3.865
    1HEX    H1G 5127   8.966  17.201   3.867
    1HEX    H1H 5128   8.541  17.348   3.778
    1HEX    H1I 5129   8.564   0.079   3.793
    1HEX    H1J 5130   8.694   0.126   4.029
    1HEX    H1K 5131   8.587   0.095   4.163
    1HEX    H1M 5132   8.358   0.470   4.032
    1HEX    H1N 5133   8.532   0.472   4.019
    1HEX    H1O 5134   8.536   0.487   4.282
    1HEX    H1P 5135   8.366   0.528   4.269
    1HEX    H1Q 5136   8.635   0.677   4.145
    1HEX    H1R 5137   8.345   0.067   3.934
    1HEX    H1S 5138   8.346  17.428   4.088
    1HEX    H1T 5139   8.369  17.100   3.774
    1HEX    H1U 5140   8.269  17.159   3.643
    1HEX    H1V 5141   8.063  17.129   3.786
    1HEX    H1W 5142   8.163  17.073   3.918
    1HEX    H1X 5143   8.136  16.943   3.613
    1HEX    H1Y 5144   8.572  17.208   3.991
    1HEX    H1Z 5145   8.516  17.262   4.139
    1HEX    H20 5146   8.795   0.018   4.173
    1HEX    H21 5147   8.892  17.321   4.194
    1HEX    H22 5148   8.736  17.125   4.342
    1HEX    H23 5149   8.748  17.183   4.505
    1HEX    H24 5150   9.157  17.088   4.396
    1HEX    H25 5151   9.187  17.080   4.568
    1HEX    H26 5152   9.182  17.347   4.414
    1HEX    H27 5153   9.328  17.253   4.438
    1HEX    H28 5154   9.141  17.421   4.645
    1HEX    H29 5155   8.824   0.107   4.394
    1HEX    H2A 5156   8.948  17.425   4.407
    1HEX    H2B 5157   8.848  17.375   4.812
    1HEX    H2C 5158   8.773   0.094   4.809
    1HEX    H2D 5159   9.005   0.193   4.867
    1HEX    H2E 5160   9.063   0.029   4.887
    1HEX    H2F 5161   8.809   0.180   5.041
    1HEX    H2G 5162   8.534  17.328   4.325
    1HEX    H2H 5163   8.589   0.046   4.369
    1HEX    H2I 5164   8.536  17.261   4.768
    1HEX    H2J 5165   8.390  17.173   4.727
    1HEX    H2K 5166   8.280  17.393   4.660
    1HEX    H2M 5167   8.426   0.038   4.705
    1HEX    H2N 5168   8.225  17.295   4.894
    1STR    S00 5169   9.179  17.295   3.686
    1STR    S0E 5170   8.508   0.701   4.177
    1STR    S0M 5171   8.152  16.909   3.741
    1STR    S0X 5172   9.255  17.350   4.643
    1STR    S14 5173   8.906   0.090   5.061
    1STR    S1B 5174   8.310  17.398   4.899
    1HEX    C01 5175   8.998  17.286   8.029
    1HEX    C02 5176   8.936  17.289   8.169
    1HEX    C03 5177   8.785  17.289   8.160
    1HEX    O04 5178   8.723  17.190   8.122
    1HEX    O05 5179   8.732  17.408   8.194
    1HEX    C06 5180   8.591  17.424   8.199
    1HEX    C07 5181   8.540  17.421   8.346
    1HEX    C08 5182   8.590   0.109   8.416
    1HEX    O09 5183   8.524   0.230   8.380
    1HEX    C0A 5184   8.457   0.298   8.475
    1HEX    O0B 5185   8.412   0.251   8.579
    1HEX    C0C 5186   8.450   0.448   8.446
    1HEX    C0D 5187   8.461   0.530   8.575
    1HEX    C0F 5188   8.385  17.420   8.346
    1HEX    O0G 5189   8.338  17.297   8.290
    1HEX    C0H 5190   8.286  17.294   8.166
    1HEX    O0I 5191   8.253  17.391   8.099
    1HEX    C0J 5192   8.276  17.153   8.111
    1HEX    C0K 5193   8.156  17.078   8.170
    1HEX    C0N 5194   8.586  17.291   8.421
    1HEX    O0O 5195   8.722  17.273   8.464
    1HEX    C0P 5196   8.788  17.354   8.563
    1HEX    C0Q 5197   8.753  17.342   8.715
    1HEX    C0R 5198   8.787  17.199   8.764
    1HEX    O0S 5199   8.928  17.174   8.759
    1HEX    C0T 5200   8.999  17.167   8.874
    1HEX    O0U 5201   8.955  17.175   8.988
    1HEX    C0V 5202   9.148  17.144   8.849
    1HEX    C0W 5203   9.230  17.274   8.840
    1HEX    C0Y 5204   8.843   0.005   8.788
    1HEX    O0Z 5205   8.821   0.001   8.928
    1HEX    C10 5206   8.908   0.059   9.010
    1HEX    O11 5207   9.009   0.120   8.976
    1HEX    C12 5208   8.867   0.041   9.155
    1HEX    C13 5209   8.974   0.092   9.253
    1HEX    C15 5210   8.605  17.380   8.747
    1HEX    O16 5211   8.567  17.360   8.883
    1HEX    C17 5212   8.493  17.254   8.919
    1HEX    O18 5213   8.460  17.161   8.846
    1HEX    C19 5214   8.448  17.262   9.064
    1HEX    C1A 5215   8.366  17.390   9.087
    1HEX    H1C 5216   9.206  17.290   7.914
    1HEX    H1D 5217   8.970  17.195   7.977
    1HEX    H1E 5218   8.962  17.371   7.970
    1HEX    H1F 5219   8.969  17.376   8.225
    1HEX    H1G 5220   8.966  17.201   8.227
    1HEX    H1H 5221   8.541  17.348   8.138
    1HEX    H1I 5222   8.564   0.079   8.153
    1HEX    H1J 5223   8.694   0.126   8.389
    1HEX    H1K 5224   8.587   0.095   8.523
    1HEX    H1M 5225   8.358   0.470   8.392
    1HEX    H1N 5226   8.532   0.472   8.379
    1HEX    H1O 5227   8.536   0.487   8.642
    1HEX    H1P 5228   8.366   0.528   8.629
    1HEX    H1Q 5229   8.635   0.677   8.505
    1HEX    H1R 5230   8.345   0.067   8.294
    1HEX    H1S 5231   8.346  17.428   8.448
    1HEX    H1T 5232   8.369  17.100   8.134
    1HEX    H1U 5233   8.269  17.159   8.003
    1HEX    H1V 5234   8.063  17.129   8.146
    1HEX    H1W 5235   8.163  17.073   8.278
    1HEX    H1X 5236   8.136  16.943   7.973
    1HEX    H1Y 5237   8.572  17.208   8.351
    1HEX    H1Z 5238   8.516  17.262   8.499
    1HEX    H20 5239   8.796   0.018   8.533
    1HEX    H21 5240   8.892  17.321   8.554
    1HEX    H22 5241   8.736  17.125   8.702
    1HEX    H23 5242   8.748  17.183   8.865
    1HEX    H24 5243   9.157  17.088   8.756
    1HEX    H25 5244   9.187  17.080   8.928
    1HEX    H26 5245   9.182  17.347   8.774
    1HEX    H27 5246   9.328  17.253   8.798
    1HEX    H28 5247   9.141  17.421   9.005
    1HEX    H29 5248   8.824   0.107   8.754
    1HEX    H2A 5249   8.948  17.425   8.767
    1HEX    H2B 5250   8.848  17.375   9.172
    1HEX    H2C 5251   8.773   0.094   9.169
    1HEX    H2D 5252   9.005   0.193   9.227
    1HEX    H2E 5253   9.063   0.029   9.247
    1HEX    H2F 5254   8.809   0.180   9.401
    1HEX    H2G 5255   8.534  17.328   8.685
    1HEX    H2H 5256   8.589   0.046   8.729
    1HEX    H2I 5257   8.536  17.261   9.128
    1HEX    H2J 5258   8.390  17.173   9.087
    1HEX    H2K 5259   8.280  17.393   9.020
    1HEX    H2M 5260   8.426   0.038   9.065
    1HEX    H2N 5261   8.225  17.295   9.254
    1STR    S00 5262   9.179  17.295   8.045
    1STR    S0E 5263   8.507   0.701   8.537
    1STR    S0M 5264   8.152  16.909   8.101
    1STR    S0X 5265   9.255  17.350   9.003
    1STR    S14 5266   8.906   0.090   9.421
    1STR    S1B 5267   8.310  17.398   9.259
    1HEX    C01 5268   8.907  17.294  12.405
    1HEX    C02 5269   8.844  17.308  12.544
    1HEX    C03 5270   8.695  17.272  12.553
    1HEX    O04 5271   8.652  17.163  12.514
    1HEX    O05 5272   8.622  17.366  12.616
    1HEX    C06 5273   8.507  17.336  12.698
    1HEX    C07 5274   8.544  17.366  12.849
    1HEX    C08 5275   8.579   0.082  12.839
    1HEX    O09 5276   8.478   0.174  12.798
    1HEX    C0A 5277   8.443   0.271  12.885
    1HEX    O0B 5278   8.420   0.252  13.004
    1HEX    C0C 5279   8.445   0.412  12.825
    1HEX    C0D 5280   8.459   0.520  12.935
    1HEX    C0F 5281   8.433  17.321  12.961
    1HEX    O0G 5282   8.486  17.267  13.090
    1HEX    C0H 5283   8.418  17.218  13.207
    1HEX    O0I 5284   8.296  17.213  13.214
    1HEX    C0J 5285   8.510  17.159  13.325
    1HEX    C0K 5286   8.476  17.173  13.485
    1HEX    C0N 5287   8.669  17.276  12.878
    1HEX    O0O 5288   8.800  17.327  12.854
    1HEX    C0P 5289   8.863  17.422  12.943
    1HEX    C0Q 5290   8.846  17.415  13.098
    1HEX    C0R 5291   8.887  17.275  13.152
    1HEX    O0S 5292   9.026  17.248  13.144
    1HEX    C0T 5293   9.079  17.167  13.237
    1HEX    O0U 5294   9.019  17.113  13.330
    1HEX    C0V 5295   9.227  17.143  13.214
    1HEX    C0W 5296   9.308  17.273  13.214
    1HEX    C0Y 5297   8.939   0.081  13.160
    1HEX    O0Z 5298   8.915   0.078  13.299
    1HEX    C10 5299   9.009   0.093  13.389
    1HEX    O11 5300   9.127   0.118  13.367
    1HEX    C12 5301   8.951   0.076  13.529
    1HEX    C13 5302   9.026   0.158  13.634
    1HEX    C15 5303   8.700  17.439  13.146
    1HEX    O16 5304   8.658   0.099  13.239
    1HEX    C17 5305   8.628   0.057  13.363
    1HEX    O18 5306   8.684  17.402  13.417
    1HEX    C19 5307   8.512   0.127  13.430
    1HEX    C1A 5308   8.380   0.110  13.353
    1HEX    H1C 5309   9.121  17.289  12.296
    1HEX    H1D 5310   8.884  17.197  12.361
    1HEX    H1E 5311   8.871  17.371  12.337
    1HEX    H1F 5312   8.860  17.409  12.583
    1HEX    H1G 5313   8.895  17.241  12.613
    1HEX    H1H 5314   8.473  17.233  12.681
    1HEX    H1I 5315   8.426  17.400  12.664
    1HEX    H1J 5316   8.657   0.096  12.764
    1HEX    H1K 5317   8.629   0.129  12.923
    1HEX    H1M 5318   8.357   0.430  12.764
    1HEX    H1N 5319   8.531   0.418  12.758
    1HEX    H1O 5320   8.536   0.492  13.008
    1HEX    H1P 5321   8.366   0.529  12.990
    1HEX    H1Q 5322   8.635   0.663  12.857
    1HEX    H1R 5323   8.369  17.244  12.919
    1HEX    H1S 5324   8.365  17.405  12.980
    1HEX    H1T 5325   8.612  17.189  13.310
    1HEX    H1U 5326   8.513  17.052  13.303
    1HEX    H1V 5327   8.403  17.253  13.498
    1HEX    H1W 5328   8.421  17.083  13.512
    1HEX    H1Y 5329   8.661  17.187  12.815
    1HEX    H1Z 5330   8.670  17.230  12.975
    1HEX    H20 5331   8.842   0.083  12.907
    1HEX    H21 5332   8.969  17.409  12.920
    1HEX    H22 5333   8.836  17.193  13.102
    1HEX    H23 5334   8.856  17.269  13.257
    1HEX    H24 5335   9.235  17.093  13.117
    1HEX    H25 5336   9.263  17.073  13.289
    1HEX    H26 5337   9.257  17.352  13.158
    1HEX    H27 5338   9.404  17.257  13.165
    1HEX    H28 5339   9.233  17.414  13.389
    1HEX    H29 5340   8.917   0.181  13.122
    1HEX    H2A 5341   9.044   0.059  13.137
    1HEX    H2B 5342   8.945  17.410  13.553
    1HEX    H2C 5343   8.848   0.111  13.523
    1HEX    H2D 5344   9.055   0.254  13.592
    1HEX    H2E 5345   9.118   0.106  13.662
    1HEX    H2F 5346   8.817   0.243  13.712
    1HEX    H2G 5347   8.669  17.345  13.187
    1HEX    H2H 5348   8.630   0.008  13.069
    1HEX    H2I 5349   8.536   0.232  13.448
    1HEX    H2J 5350   8.504   0.080  13.528
    1HEX    H2K 5351   8.380   0.019  13.293
    1HEX    H2M 5352   8.365   0.192  13.282
    1HEX    H2N 5353   8.268  17.421  13.522
    1STR    S00 5354   9.088  17.309  12.424
    1STR    S0E 5355   8.503   0.682  12.865
    1STR    S0M 5356   8.614  17.191  13.621
    1STR    S0X 5357   9.338  17.330  13.383
    1STR    S14 5358   8.918   0.183  13.777
    1STR    S1B 5359   8.240   0.100  13.468
    1HEX    C01 5360   8.998   4.206  16.749
    1HEX    C02 5361   8.936   4.208  16.889
    1HEX    C03 5362   8.785   4.209  16.880
    1HEX    O04 5363   8.722   4.110  16.842
    1HEX    O05 5364   8.732   4.328  16.914
    1HEX    C06 5365   8.591   4.344  16.919
    1HEX    C07 5366   8.540   4.341  17.066
    1HEX    C08 5367   8.590   4.469  17.136
    1HEX    O09 5368   8.524   4.590  17.100
    1HEX    C0A 5369   8.457   4.659  17.195
    1HEX    O0B 5370   8.412   4.611  17.299
    1HEX    C0C 5371   8.450   4.808  17.166
    1HEX    C0D 5372   8.461   4.890  17.295
    1HEX    C0F 5373   8.385   4.341  17.066
    1HEX    O0G 5374   8.338   4.218  17.010
    1HEX    C0H 5375   8.286   4.215  16.886
    1HEX    O0I 5376   8.253   4.312  16.819
    1HEX    C0J 5377   8.276   4.073  16.831
    1HEX    C0K 5378   8.156   3.998  16.890
    1HEX    C0N 5379   8.586   4.211  17.141
    1HEX    O0O 5380   8.722   4.193  17.184
    1HEX    C0P 5381   8.788   4.274  17.283
    1HEX    C0Q 5382   8.753   4.263  17.435
    1HEX    C0R 5383   8.787   4.119   0.044
    1HEX    O0S 5384   8.928   4.095   0.039
    1HEX    C0T 5385   8.999   4.087   0.154
    1HEX    O0U 5386   8.955   4.096   0.268
    1HEX    C0V 5387   9.148   4.064   0.129
    1HEX    C0W 5388   9.230   4.194   0.120
    1HEX    C0Y 5389   8.843   4.365   0.068
    1HEX    O0Z 5390   8.821   4.361   0.208
    1HEX    C10 5391   8.908   4.419   0.290
    1HEX    O11 5392   9.009   4.480   0.256
    1HEX    C12 5393   8.867   4.402   0.435
    1HEX    C13 5394   8.974   4.452   0.533
    1HEX    C15 5395   8.605   4.301   0.027
    1HEX    O16 5396   8.567   4.281   0.163
    1HEX    C17 5397   8.493   4.175   0.199
    1HEX    O18 5398   8.460   4.082   0.126
    1HEX    C19 5399   8.448   4.183   0.344
    1HEX    C1A 5400   8.366   4.311   0.367
    1HEX    H1C 5401   9.206   4.209  16.635
    1HEX    H1D 5402   8.969   4.115  16.697
    1HEX    H1E 5403   8.962   4.290  16.690
    1HEX    H1F 5404   8.969   4.296  16.945
    1HEX    H1G 5405   8.966   4.120  16.947
    1HEX    H1H 5406   8.541   4.268  16.858
    1HEX    H1I 5407   8.565   4.439  16.873
    1HEX    H1J 5408   8.694   4.487  17.109
    1HEX    H1K 5409   8.587   4.456  17.243
    1HEX    H1M 5410   8.358   4.831  17.112
    1HEX    H1N 5411   8.532   4.832  17.099
    1HEX    H1O 5412   8.536   4.847  17.362
    1HEX    H1P 5413   8.366   4.888  17.349
    1HEX    H1Q 5414   8.635   5.038  17.225
    1HEX    H1R 5415   8.345   4.428  17.014
    1HEX    H1S 5416   8.347   4.349  17.168
    1HEX    H1T 5417   8.369   4.021  16.853
    1HEX    H1U 5418   8.268   4.080  16.723
    1HEX    H1V 5419   8.063   4.050  16.866
    1HEX    H1W 5420   8.163   3.993  16.998
    1HEX    H1X 5421   8.136   3.864  16.693
    1HEX    H1Y 5422   8.571   4.129  17.071
    1HEX    H1Z 5423   8.516   4.183  17.219
    1HEX    H20 5424   8.796   4.378  17.253
    1HEX    H21 5425   8.892   4.242  17.274
    1HEX    H22 5426   8.735   4.045  17.422
    1HEX    H23 5427   8.748   4.103   0.145
    1HEX    H24 5428   9.157   4.008   0.036
    1HEX    H25 5429   9.187   4.000   0.208
    1HEX    H26 5430   9.182   4.267   0.054
    1HEX    H27 5431   9.328   4.173   0.078
    1HEX    H28 5432   9.141   4.341   0.285
    1HEX    H29 5433   8.824   4.467   0.034
    1HEX    H2A 5434   8.948   4.346   0.047
    1HEX    H2B 5435   8.847   4.296   0.452
    1HEX    H2C 5436   8.773   4.455   0.449
    1HEX    H2D 5437   9.006   4.553   0.507
    1HEX    H2E 5438   9.063   4.389   0.527
    1HEX    H2F 5439   8.810   4.540   0.681
    1HEX    H2G 5440   8.534   4.249  17.405
    1HEX    H2H 5441   8.589   4.407   0.009
    1HEX    H2I 5442   8.536   4.181   0.408
    1HEX    H2J 5443   8.389   4.094   0.367
    1HEX    H2K 5444   8.280   4.314   0.299
    1HEX    H2M 5445   8.426   4.399   0.345
    1HEX    H2N 5446   8.225   4.215   0.533
    1STR    S00 5447   9.179   4.214  16.766
    1STR    S0E 5448   8.507   5.061  17.257
    1STR    S0M 5449   8.152   3.830  16.822
    1STR    S0X 5450   9.255   4.270   0.283
    1STR    S14 5451   8.906   4.450   0.701
    1STR    S1B 5452   8.310   4.318   0.539
    1HEX    C01 5453   8.264   4.479   3.824
    1HEX    C02 5454   8.409   4.537   3.820
    1HEX    C03 5455   8.514   4.427   3.804
    1HEX    O04 5456   8.550   4.386   3.694
    1HEX    O05 5457   8.558   4.382   3.921
    1HEX    C06 5458   8.565   4.243   3.945
    1HEX    C07 5459   8.492   4.210   4.078
    1HEX    C08 5460   8.472   4.333   4.175
    1HEX    O09 5461   8.430   4.461   4.127
    1HEX    C0A 5462   8.447   4.567   4.211
    1HEX    O0B 5463   8.466   4.558   4.332
    1HEX    C0C 5464   8.451   4.703   4.140
    1HEX    C0D 5465   8.456   4.822   4.238
    1HEX    C0F 5466   8.349   4.157   4.047
    1HEX    O0G 5467   8.342   4.037   3.970
    1HEX    C0H 5468   8.295   4.039   3.843
    1HEX    O0I 5469   8.276   4.139   3.775
    1HEX    C0J 5470   8.264   3.902   3.786
    1HEX    C0K 5471   8.116   3.867   3.806
    1HEX    C0N 5472   8.569   4.096   4.153
    1HEX    O0O 5473   8.712   4.107   4.172
    1HEX    C0P 5474   8.783   4.220   4.228
    1HEX    C0Q 5475   8.784   4.238   4.384
    1HEX    C0R 5476   8.851   4.115   4.450
    1HEX    O0S 5477   8.992   4.107   4.421
    1HEX    C0T 5478   9.085   4.126   4.519
    1HEX    O0U 5479   9.060   4.156   4.636
    1HEX    C0V 5480   9.229   4.101   4.473
    1HEX    C0W 5481   9.314   4.228   4.451
    1HEX    C0Y 5482   8.865   4.365   4.420
    1HEX    O0Z 5483   8.841   4.389   4.558
    1HEX    C10 5484   8.934   4.437   4.639
    1HEX    O11 5485   9.042   4.485   4.607
    1HEX    C12 5486   8.886   4.425   4.783
    1HEX    C13 5487   8.992   4.466   4.886
    1HEX    C15 5488   8.640   4.261   4.439
    1HEX    O16 5489   8.615   4.229   4.575
    1HEX    C17 5490   8.514   4.146   4.605
    1HEX    O18 5491   8.463   4.063   4.530
    1HEX    C19 5492   8.456   4.172   4.743
    1HEX    C1A 5493   8.372   4.301   4.740
    1HEX    H1D 5494   8.270   4.371   3.830
    1HEX    H1E 5495   8.218   4.499   3.728
    1HEX    H1F 5496   8.434   4.588   3.912
    1HEX    H1G 5497   8.424   4.609   3.740
    1HEX    H1H 5498   8.669   4.209   3.945
    1HEX    H1I 5499   8.519   4.189   3.862
    1HEX    H1J 5500   8.568   4.357   4.216
    1HEX    H1K 5501   8.407   4.307   4.258
    1HEX    H1M 5502   8.363   4.713   4.076
    1HEX    H1N 5503   8.539   4.704   4.077
    1HEX    H1O 5504   8.534   4.808   4.313
    1HEX    H1P 5505   8.361   4.830   4.291
    1HEX    H1Q 5506   8.623   4.967   4.146
    1HEX    H1R 5507   8.297   4.237   3.996
    1HEX    H1S 5508   8.292   4.140   4.139
    1HEX    H1T 5509   8.331   3.827   3.828
    1HEX    H1U 5510   8.286   3.908   3.679
    1HEX    H1V 5511   8.052   3.953   3.785
    1HEX    H1W 5512   8.098   3.838   3.910
    1HEX    H1X 5513   8.094   3.795   3.580
    1HEX    H1Y 5514   8.559   4.005   4.093
    1HEX    H1Z 5515   8.518   4.066   4.245
    1HEX    H20 5516   8.761   4.311   4.173
    1HEX    H21 5517   8.886   4.201   4.199
    1HEX    H22 5518   8.802   4.024   4.415
    1HEX    H23 5519   8.834   4.117   4.558
    1HEX    H24 5520   9.227   4.038   4.384
    1HEX    H25 5521   9.273   4.040   4.552
    1HEX    H26 5522   9.262   4.318   4.485
    1HEX    H27 5523   9.333   4.241   4.344
    1HEX    H29 5524   8.832   4.453   4.364
    1HEX    H2A 5525   8.972   4.354   4.399
    1HEX    H2B 5526   8.858   4.321   4.798
    1HEX    H2C 5527   8.796   4.484   4.793
    1HEX    H2D 5528   9.026   4.568   4.867
    1HEX    H2E 5529   9.079   4.401   4.878
    1HEX    H2F 5530   8.820   4.542   5.033
    1HEX    H2G 5531   8.568   4.208   4.379
    1HEX    H2H 5532   8.613   4.366   4.429
    1HEX    H2I 5533   8.538   4.180   4.815
    1HEX    H2J 5534   8.395   4.087   4.772
    1HEX    H2K 5535   8.294   4.294   4.664
    1HEX    H2M 5536   8.435   4.386   4.712
    1HEX    H2N 5537   8.214   4.226   4.901
    1STR    S00 5538   8.148   4.537   3.958
    1STR    S0E 5539   8.489   4.975   4.146
    1STR    S0M 5540   8.071   3.731   3.695
    1STR    S0X 5541   9.477   4.216   4.536
    1STR    S14 5542   8.919   4.453   5.052
    1STR    S1B 5543   8.298   4.330   4.902
    1HEX    C01 5544   9.043   4.326   7.919
    1HEX    C02 5545   9.032   4.373   8.065
    1HEX    C03 5546   8.894   4.428   8.102
    1HEX    O04 5547   8.829   4.497   8.023
    1HEX    O05 5548   8.857   4.392   8.227
    1HEX    C06 5549   8.733   4.437   8.282
    1HEX    C07 5550   8.648   4.330   8.357
    1HEX    C08 5551   8.517   4.406   8.406
    1HEX    O09 5552   8.512   4.548   8.377
    1HEX    C0A 5553   8.449   4.634   8.463
    1HEX    O0B 5554   8.390   4.601   8.566
    1HEX    C0C 5555   8.462   4.782   8.425
    1HEX    C0D 5556   8.466   4.873   8.550
    1HEX    C0F 5557   8.627   4.209   8.259
    1HEX    O0G 5558   8.735   4.112   8.273
    1HEX    C0H 5559   8.850   4.111   8.199
    1HEX    O0I 5560   8.850   4.137   8.079
    1HEX    C0J 5561   8.976   4.050   8.270
    1HEX    C0K 5562   9.081   4.133   8.358
    1HEX    C0N 5563   8.711   4.266   8.486
    1HEX    O0O 5564   8.835   4.320   8.524
    1HEX    C0P 5565   8.831   4.410   8.631
    1HEX    C0Q 5566   8.789   4.352   8.770
    1HEX    C0R 5567   8.813   4.198   8.783
    1HEX    O0S 5568   8.951   4.163   8.768
    1HEX    C0T 5569   9.019   4.112   8.872
    1HEX    O0U 5570   8.975   4.090   8.984
    1HEX    C0V 5571   9.164   4.082   8.837
    1HEX    C0W 5572   9.250   4.209   8.827
    1HEX    C0Y 5573   8.879   4.424   8.870
    1HEX    O0Z 5574   8.849   4.390   9.003
    1HEX    C10 5575   8.933   4.432   9.097
    1HEX    O11 5576   9.038   4.493   9.077
    1HEX    C12 5577   8.884   4.398   9.236
    1HEX    C13 5578   8.979   4.453   9.344
    1HEX    C15 5579   8.640   4.389   8.800
    1HEX    O16 5580   8.591   4.340   8.925
    1HEX    C17 5581   8.518   4.227   8.931
    1HEX    O18 5582   8.497   4.150   8.838
    1HEX    C19 5583   8.457   4.206   9.068
    1HEX    C1A 5584   8.359   4.320   9.100
    1HEX    H1C 5585   9.193   4.213   7.771
    1HEX    H1D 5586   8.963   4.256   7.893
    1HEX    H1E 5587   9.035   4.410   7.851
    1HEX    H1F 5588   9.108   4.445   8.091
    1HEX    H1G 5589   9.049   4.287   8.129
    1HEX    H1H 5590   8.671   4.477   8.201
    1HEX    H1I 5591   8.755   4.523   8.346
    1HEX    H1J 5592   8.513   4.403   8.514
    1HEX    H1K 5593   8.424   4.359   8.375
    1HEX    H1M 5594   8.379   4.810   8.361
    1HEX    H1N 5595   8.553   4.795   8.367
    1HEX    H1O 5596   8.536   4.835   8.625
    1HEX    H1P 5597   8.368   4.874   8.599
    1HEX    H1Q 5598   8.644   5.023   8.491
    1HEX    H1R 5599   8.614   4.241   8.155
    1HEX    H1S 5600   8.534   4.158   8.285
    1HEX    H1T 5601   9.027   3.988   8.197
    1HEX    H1U 5602   8.928   3.979   8.338
    1HEX    H1V 5603   9.106   4.066   8.440
    1HEX    H1W 5604   9.029   4.216   8.407
    1HEX    H1Y 5605   8.734   4.161   8.480
    1HEX    H1Z 5606   8.639   4.254   8.565
    1HEX    H20 5607   8.773   4.498   8.604
    1HEX    H21 5608   8.935   4.445   8.635
    1HEX    H22 5609   8.756   4.139   8.712
    1HEX    H23 5610   8.775   4.164   8.879
    1HEX    H24 5611   9.165   4.028   8.742
    1HEX    H25 5612   9.205   4.014   8.912
    1HEX    H26 5613   9.202   4.283   8.764
    1HEX    H27 5614   9.346   4.184   8.780
    1HEX    H28 5615   9.162   4.333   9.014
    1HEX    H29 5616   8.871   4.533   8.859
    1HEX    H2A 5617   8.984   4.399   8.850
    1HEX    H2B 5618   8.872   4.290   9.244
    1HEX    H2C 5619   8.785   4.443   9.245
    1HEX    H2D 5620   9.010   4.555   9.320
    1HEX    H2E 5621   9.070   4.393   9.347
    1HEX    H2F 5622   8.801   4.542   9.472
    1HEX    H2G 5623   8.569   4.358   8.723
    1HEX    H2H 5624   8.629   4.497   8.803
    1HEX    H2I 5625   8.538   4.203   9.141
    1HEX    H2J 5626   8.407   4.109   9.072
    1HEX    H2K 5627   8.274   4.318   9.031
    1HEX    H2M 5628   8.408   4.416   9.086
    1HEX    H2N 5629   8.224   4.200   9.256
    1STR    S00 5630   9.204   4.243   7.900
    1STR    S0E 5631   8.512   5.043   8.506
    1STR    S0M 5632   9.252   4.194   8.297
    1STR    S0X 5633   9.284   4.280   8.991
    1STR    S14 5634   8.894   4.452   9.504
    1STR    S1B 5635   8.301   4.308   9.271
    1HEX    C01 5636   8.998   4.206  12.389
    1HEX    C02 5637   8.936   4.208  12.529
    1HEX    C03 5638   8.785   4.209  12.520
    1HEX    O04 5639   8.722   4.110  12.482
    1HEX    O05 5640   8.732   4.328  12.554
    1HEX    C06 5641   8.591   4.344  12.559
    1HEX    C07 5642   8.540   4.341  12.706
    1HEX    C08 5643   8.590   4.469  12.776
    1HEX    O09 5644   8.524   4.590  12.740
    1HEX    C0A 5645   8.457   4.659  12.835
    1HEX    O0B 5646   8.412   4.611  12.939
    1HEX    C0C 5647   8.450   4.808  12.806
    1HEX    C0D 5648   8.461   4.890  12.935
    1HEX    C0F 5649   8.385   4.341  12.706
    1HEX    O0G 5650   8.338   4.218  12.650
    1HEX    C0H 5651   8.286   4.215  12.526
    1HEX    O0I 5652   8.253   4.312  12.459
    1HEX    C0J 5653   8.276   4.073  12.471
    1HEX    C0K 5654   8.156   3.998  12.530
    1HEX    C0N 5655   8.586   4.211  12.781
    1HEX    O0O 5656   8.722   4.193  12.824
    1HEX    C0P 5657   8.788   4.274  12.923
    1HEX    C0Q 5658   8.753   4.263  13.075
    1HEX    C0R 5659   8.787   4.119  13.124
    1HEX    O0S 5660   8.928   4.095  13.119
    1HEX    C0T 5661   8.999   4.087  13.234
    1HEX    O0U 5662   8.955   4.096  13.348
    1HEX    C0V 5663   9.148   4.064  13.209
    1HEX    C0W 5664   9.230   4.194  13.200
    1HEX    C0Y 5665   8.843   4.365  13.148
    1HEX    O0Z 5666   8.821   4.361  13.288
    1HEX    C10 5667   8.908   4.419  13.370
    1HEX    O11 5668   9.009   4.480  13.336
    1HEX    C12 5669   8.867   4.402  13.515
    1HEX    C13 5670   8.974   4.452  13.613
    1HEX    C15 5671   8.605   4.301  13.107
    1HEX    O16 5672   8.567   4.281  13.243
    1HEX    C17 5673   8.493   4.175  13.279
    1HEX    O18 5674   8.460   4.082  13.206
    1HEX    C19 5675   8.448   4.183  13.424
    1HEX    C1A 5676   8.366   4.311  13.447
    1HEX    H1C 5677   9.206   4.209  12.274
    1HEX    H1D 5678   8.969   4.115  12.337
    1HEX    H1E 5679   8.962   4.290  12.330
    1HEX    H1F 5680   8.969   4.296  12.585
    1HEX    H1G 5681   8.966   4.120  12.587
    1HEX    H1H 5682   8.541   4.268  12.498
    1HEX    H1I 5683   8.565   4.439  12.513
    1HEX    H1J 5684   8.694   4.487  12.749
    1HEX    H1K 5685   8.587   4.456  12.883
    1HEX    H1M 5686   8.358   4.831  12.752
    1HEX    H1N 5687   8.532   4.832  12.739
    1HEX    H1O 5688   8.536   4.847  13.002
    1HEX    H1P 5689   8.366   4.888  12.989
    1HEX    H1Q 5690   8.635   5.038  12.865
    1HEX    H1R 5691   8.345   4.428  12.654
    1HEX    H1S 5692   8.347   4.349  12.808
    1HEX    H1T 5693   8.369   4.021  12.494
    1HEX    H1U 5694   8.269   4.079  12.363
    1HEX    H1V 5695   8.063   4.050  12.506
    1HEX    H1W 5696   8.163   3.993  12.638
    1HEX    H1X 5697   8.136   3.864  12.333
    1HEX    H1Y 5698   8.571   4.129  12.711
    1HEX    H1Z 5699   8.516   4.183  12.859
    1HEX    H20 5700   8.796   4.378  12.893
    1HEX    H21 5701   8.892   4.242  12.914
    1HEX    H22 5702   8.736   4.045  13.062
    1HEX    H23 5703   8.748   4.103  13.225
    1HEX    H24 5704   9.157   4.008  13.116
    1HEX    H25 5705   9.187   4.000  13.288
    1HEX    H26 5706   9.182   4.267  13.134
    1HEX    H27 5707   9.328   4.173  13.158
    1HEX    H28 5708   9.141   4.341  13.365
    1HEX    H29 5709   8.824   4.467  13.114
    1HEX    H2A 5710   8.949   4.346  13.127
    1HEX    H2B 5711   8.847   4.296  13.532
    1HEX    H2C 5712   8.773   4.455  13.529
    1HEX    H2D 5713   9.006   4.553  13.587
    1HEX    H2E 5714   9.063   4.389  13.607
    1HEX    H2F 5715   8.810   4.541  13.761
    1HEX    H2G 5716   8.534   4.249  13.045
    1HEX    H2H 5717   8.589   4.407  13.089
    1HEX    H2I 5718   8.536   4.181  13.488
    1HEX    H2J 5719   8.390   4.094  13.447
    1HEX    H2K 5720   8.280   4.314  13.379
    1HEX    H2M 5721   8.426   4.399  13.425
    1HEX    H2N 5722   8.225   4.215  13.613
    1STR    S00 5723   9.179   4.214  12.405
    1STR    S0E 5724   8.507   5.061  12.897
    1STR    S0M 5725   8.152   3.830  12.461
    1STR    S0X 5726   9.255   4.270  13.363
    1STR    S14 5727   8.906   4.450  13.781
    1STR    S1B 5728   8.310   4.318  13.619
    1HEX    C01 5729   8.998   8.566  16.749
    1HEX    C02 5730   8.936   8.569  16.889
    1HEX    C03 5731   8.785   8.570  16.880
    1HEX    O04 5732   8.723   8.470  16.842
    1HEX    O05 5733   8.732   8.688  16.914
    1HEX    C06 5734   8.591   8.704  16.920
    1HEX    C07 5735   8.540   8.701  17.066
    1HEX    C08 5736   8.590   8.830  17.136
    1HEX    O09 5737   8.524   8.950  17.100
    1HEX    C0A 5738   8.457   9.019  17.195
    1HEX    O0B 5739   8.412   8.971  17.299
    1HEX    C0C 5740   8.449   9.168  17.166
    1HEX    C0D 5741   8.461   9.250  17.295
    1HEX    C0F 5742   8.385   8.700  17.066
    1HEX    O0G 5743   8.338   8.578  17.010
    1HEX    C0H 5744   8.286   8.575  16.886
    1HEX    O0I 5745   8.253   8.672  16.819
    1HEX    C0J 5746   8.276   8.433  16.831
    1HEX    C0K 5747   8.156   8.358  16.889
    1HEX    C0N 5748   8.586   8.571  17.141
    1HEX    O0O 5749   8.722   8.554  17.184
    1HEX    C0P 5750   8.788   8.634  17.283
    1HEX    C0Q 5751   8.753   8.623  17.435
    1HEX    C0R 5752   8.786   8.479   0.044
    1HEX    O0S 5753   8.927   8.455   0.039
    1HEX    C0T 5754   8.999   8.447   0.154
    1HEX    O0U 5755   8.954   8.456   0.268
    1HEX    C0V 5756   9.148   8.424   0.129
    1HEX    C0W 5757   9.230   8.554   0.120
    1HEX    C0Y 5758   8.843   8.725   0.068
    1HEX    O0Z 5759   8.821   8.721   0.207
    1HEX    C10 5760   8.908   8.779   0.290
    1HEX    O11 5761   9.009   8.840   0.256
    1HEX    C12 5762   8.867   8.761   0.435
    1HEX    C13 5763   8.974   8.812   0.533
    1HEX    C15 5764   8.605   8.661   0.027
    1HEX    O16 5765   8.567   8.641   0.163
    1HEX    C17 5766   8.493   8.535   0.199
    1HEX    O18 5767   8.460   8.442   0.126
    1HEX    C19 5768   8.448   8.543   0.344
    1HEX    C1A 5769   8.366   8.671   0.367
    1HEX    H1C 5770   9.206   8.570  16.635
    1HEX    H1D 5771   8.969   8.475  16.697
    1HEX    H1E 5772   8.962   8.651  16.690
    1HEX    H1F 5773   8.969   8.656  16.945
    1HEX    H1G 5774   8.966   8.481  16.947
    1HEX    H1H 5775   8.541   8.629  16.858
    1HEX    H1I 5776   8.564   8.799  16.873
    1HEX    H1J 5777   8.694   8.847  17.109
    1HEX    H1K 5778   8.587   8.816  17.243
    1HEX    H1M 5779   8.357   9.191  17.112
    1HEX    H1N 5780   8.532   9.192  17.099
    1HEX    H1O 5781   8.536   9.208  17.363
    1HEX    H1P 5782   8.366   9.249  17.350
    1HEX    H1Q 5783   8.635   9.398  17.225
    1HEX    H1R 5784   8.345   8.787  17.014
    1HEX    H1S 5785   8.346   8.708  17.168
    1HEX    H1T 5786   8.369   8.381  16.854
    1HEX    H1U 5787   8.269   8.439  16.723
    1HEX    H1V 5788   8.063   8.410  16.866
    1HEX    H1W 5789   8.163   8.353  16.998
    1HEX    H1X 5790   8.136   8.224  16.693
    1HEX    H1Y 5791   8.571   8.489  17.071
    1HEX    H1Z 5792   8.516   8.543  17.219
    1HEX    H20 5793   8.796   8.738  17.253
    1HEX    H21 5794   8.892   8.602  17.274
    1HEX    H22 5795   8.735   8.405  17.422
    1HEX    H23 5796   8.748   8.463   0.145
    1HEX    H24 5797   9.157   8.368   0.036
    1HEX    H25 5798   9.187   8.360   0.208
    1HEX    H26 5799   9.182   8.627   0.054
    1HEX    H27 5800   9.328   8.533   0.078
    1HEX    H28 5801   9.141   8.701   0.285
    1HEX    H29 5802   8.824   8.827   0.034
    1HEX    H2A 5803   8.949   8.706   0.047
    1HEX    H2B 5804   8.847   8.655   0.452
    1HEX    H2C 5805   8.773   8.814   0.449
    1HEX    H2D 5806   9.006   8.913   0.507
    1HEX    H2E 5807   9.063   8.748   0.527
    1HEX    H2F 5808   8.810   8.900   0.681
    1HEX    H2G 5809   8.534   8.609  17.405
    1HEX    H2H 5810   8.589   8.767   0.009
    1HEX    H2I 5811   8.536   8.541   0.407
    1HEX    H2J 5812   8.389   8.454   0.367
    1HEX    H2K 5813   8.280   8.674   0.300
    1HEX    H2M 5814   8.426   8.759   0.345
    1HEX    H2N 5815   8.225   8.575   0.533
    1STR    S00 5816   9.179   8.575  16.766
    1STR    S0E 5817   8.507   9.422  17.257
    1STR    S0M 5818   8.152   8.190  16.821
    1STR    S0X 5819   9.255   8.630   0.283
    1STR    S14 5820   8.906   8.810   0.701
    1STR    S1B 5821   8.310   8.678   0.539
    1HEX    C01 5822   8.254   8.978   3.830
    1HEX    C02 5823   8.409   8.962   3.845
    1HEX    C03 5824   8.466   8.825   3.814
    1HEX    O04 5825   8.463   8.776   3.701
    1HEX    O05 5826   8.518   8.768   3.923
    1HEX    C06 5827   8.490   8.633   3.947
    1HEX    C07 5828   8.443   8.609   4.094
    1HEX    C08 5829   8.451   8.734   4.188
    1HEX    O09 5830   8.418   8.866   4.146
    1HEX    C0A 5831   8.453   8.968   4.230
    1HEX    O0B 5832   8.485   8.953   4.348
    1HEX    C0C 5833   8.460   9.106   4.164
    1HEX    C0D 5834   8.464   9.222   4.264
    1HEX    C0F 5835   8.294   8.565   4.093
    1HEX    O0G 5836   8.277   8.457   4.001
    1HEX    C0H 5837   8.185   8.464   3.904
    1HEX    O0I 5838   8.089   8.540   3.901
    1HEX    C0J 5839   8.211   8.366   3.792
    1HEX    C0K 5840   8.108   8.253   3.795
    1HEX    C0N 5841   8.526   8.489   4.154
    1HEX    O0O 5842   8.670   8.494   4.155
    1HEX    C0P 5843   8.752   8.590   4.226
    1HEX    C0Q 5844   8.751   8.594   4.383
    1HEX    C0R 5845   8.794   8.455   4.438
    1HEX    O0S 5846   8.934   8.434   4.422
    1HEX    C0T 5847   9.016   8.438   4.530
    1HEX    O0U 5848   8.981   8.455   4.647
    1HEX    C0V 5849   9.163   8.420   4.494
    1HEX    C0W 5850   9.242   8.552   4.482
    1HEX    C0Y 5851   8.851   8.703   4.429
    1HEX    O0Z 5852   8.836   8.714   4.569
    1HEX    C10 5853   8.925   8.776   4.644
    1HEX    O11 5854   9.028   8.831   4.605
    1HEX    C12 5855   8.883   8.771   4.790
    1HEX    C13 5856   8.991   8.820   4.887
    1HEX    C15 5857   8.613   8.636   4.441
    1HEX    O16 5858   8.587   8.608   4.578
    1HEX    C17 5859   8.498   8.514   4.611
    1HEX    O18 5860   8.456   8.425   4.537
    1HEX    C19 5861   8.443   8.536   4.750
    1HEX    C1A 5862   8.359   8.665   4.752
    1HEX    H1D 5863   8.233   8.964   3.724
    1HEX    H1E 5864   8.229   9.081   3.853
    1HEX    H1F 5865   8.443   8.986   3.944
    1HEX    H1G 5866   8.460   9.031   3.779
    1HEX    H1H 5867   8.574   8.570   3.919
    1HEX    H1I 5868   8.411   8.604   3.878
    1HEX    H1J 5869   8.554   8.746   4.217
    1HEX    H1K 5870   8.393   8.717   4.279
    1HEX    H1M 5871   8.373   9.119   4.099
    1HEX    H1N 5872   8.549   9.107   4.102
    1HEX    H1O 5873   8.541   9.206   4.340
    1HEX    H1P 5874   8.368   9.229   4.316
    1HEX    H1Q 5875   8.629   9.357   4.154
    1HEX    H1R 5876   8.230   8.650   4.069
    1HEX    H1S 5877   8.261   8.531   4.192
    1HEX    H1T 5878   8.312   8.327   3.802
    1HEX    H1U 5879   8.207   8.420   3.697
    1HEX    H1V 5880   8.009   8.290   3.769
    1HEX    H1W 5881   8.102   8.211   3.895
    1HEX    H1X 5882   8.149   8.195   3.567
    1HEX    H1Y 5883   8.506   8.403   4.090
    1HEX    H1Z 5884   8.487   8.453   4.249
    1HEX    H20 5885   8.744   8.688   4.181
    1HEX    H21 5886   8.853   8.561   4.198
    1HEX    H22 5887   8.739   8.376   4.387
    1HEX    H23 5888   8.766   8.446   4.543
    1HEX    H24 5889   9.167   8.365   4.400
    1HEX    H25 5890   9.209   8.355   4.569
    1HEX    H26 5891   9.188   8.624   4.421
    1HEX    H27 5892   9.337   8.533   4.433
    1HEX    H28 5893   9.162   8.695   4.652
    1HEX    H29 5894   8.829   8.800   4.384
    1HEX    H2A 5895   8.954   8.679   4.402
    1HEX    H2B 5896   8.857   8.667   4.813
    1HEX    H2C 5897   8.792   8.830   4.800
    1HEX    H2D 5898   9.024   8.921   4.860
    1HEX    H2E 5899   9.079   8.755   4.882
    1HEX    H2F 5900   8.822   8.906   5.032
    1HEX    H2G 5901   8.532   8.593   4.385
    1HEX    H2H 5902   8.601   8.744   4.431
    1HEX    H2I 5903   8.525   8.541   4.821
    1HEX    H2J 5904   8.382   8.449   4.777
    1HEX    H2K 5905   8.281   8.661   4.675
    1HEX    H2M 5906   8.422   8.751   4.728
    1HEX    H2N 5907   8.202   8.583   4.911
    1STR    S00 5908   8.131   8.872   3.920
    1STR    S0E 5909   8.498   9.376   4.175
    1STR    S0M 5910   8.159   8.123   3.678
    1STR    S0X 5911   9.277   8.626   4.644
    1STR    S14 5912   8.922   8.820   5.055
    1STR    S1B 5913   8.284   8.688   4.915
    1HEX    C01 5914   8.998   8.566   8.029
    1HEX    C02 5915   8.936   8.569   8.169
    1HEX    C03 5916   8.785   8.570   8.160
    1HEX    O04 5917   8.723   8.470   8.122
    1HEX    O05 5918   8.732   8.688   8.194
    1HEX    C06 5919   8.591   8.704   8.200
    1HEX    C07 5920   8.540   8.701   8.346
    1HEX    C08 5921   8.590   8.829   8.416
    1HEX    O09 5922   8.524   8.950   8.380
    1HEX    C0A 5923   8.457   9.019   8.475
    1HEX    O0B 5924   8.412   8.971   8.579
    1HEX    C0C 5925   8.449   9.168   8.446
    1HEX    C0D 5926   8.461   9.250   8.575
    1HEX    C0F 5927   8.385   8.700   8.346
    1HEX    O0G 5928   8.338   8.578   8.290
    1HEX    C0H 5929   8.286   8.575   8.166
    1HEX    O0I 5930   8.253   8.672   8.099
    1HEX    C0J 5931   8.276   8.433   8.111
    1HEX    C0K 5932   8.156   8.358   8.169
    1HEX    C0N 5933   8.586   8.571   8.421
    1HEX    O0O 5934   8.722   8.553   8.464
    1HEX    C0P 5935   8.788   8.634   8.563
    1HEX    C0Q 5936   8.753   8.623   8.715
    1HEX    C0R 5937   8.786   8.479   8.764
    1HEX    O0S 5938   8.927   8.455   8.759
    1HEX    C0T 5939   8.999   8.447   8.874
    1HEX    O0U 5940   8.954   8.456   8.988
    1HEX    C0V 5941   9.148   8.424   8.849
    1HEX    C0W 5942   9.230   8.554   8.840
    1HEX    C0Y 5943   8.843   8.725   8.788
    1HEX    O0Z 5944   8.821   8.721   8.928
    1HEX    C10 5945   8.908   8.779   9.010
    1HEX    O11 5946   9.009   8.840   8.976
    1HEX    C12 5947   8.867   8.761   9.155
    1HEX    C13 5948   8.974   8.812   9.253
    1HEX    C15 5949   8.605   8.661   8.747
    1HEX    O16 5950   8.567   8.641   8.883
    1HEX    C17 5951   8.493   8.535   8.919
    1HEX    O18 5952   8.460   8.442   8.846
    1HEX    C19 5953   8.448   8.543   9.064
    1HEX    C1A 5954   8.366   8.671   9.087
    1HEX    H1C 5955   9.206   8.570   7.914
    1HEX    H1D 5956   8.969   8.475   7.977
    1HEX    H1E 5957   8.962   8.651   7.970
    1HEX    H1F 5958   8.969   8.656   8.225
    1HEX    H1G 5959   8.966   8.481   8.227
    1HEX    H1H 5960   8.541   8.629   8.138
    1HEX    H1I 5961   8.564   8.799   8.153
    1HEX    H1J 5962   8.694   8.847   8.389
    1HEX    H1K 5963   8.587   8.816   8.523
    1HEX    H1M 5964   8.357   9.191   8.392
    1HEX    H1N 5965   8.532   9.192   8.379
    1HEX    H1O 5966   8.536   9.207   8.643
    1HEX    H1P 5967   8.366   9.249   8.629
    1HEX    H1Q 5968   8.635   9.398   8.505
    1HEX    H1R 5969   8.345   8.787   8.294
    1HEX    H1S 5970   8.346   8.708   8.448
    1HEX    H1T 5971   8.369   8.381   8.134
    1HEX    H1U 5972   8.269   8.439   8.003
    1HEX    H1V 5973   8.063   8.410   8.146
    1HEX    H1W 5974   8.163   8.353   8.278
    1HEX    H1X 5975   8.136   8.224   7.973
    1HEX    H1Y 5976   8.571   8.489   8.351
    1HEX    H1Z 5977   8.516   8.543   8.499
    1HEX    H20 5978   8.796   8.738   8.533
    1HEX    H21 5979   8.892   8.602   8.554
    1HEX    H22 5980   8.735   8.405   8.702
    1HEX    H23 5981   8.748   8.463   8.865
    1HEX    H24 5982   9.157   8.368   8.756
    1HEX    H25 5983   9.187   8.360   8.928
    1HEX    H26 5984   9.182   8.627   8.774
    1HEX    H27 5985   9.328   8.533   8.798
    1HEX    H28 5986   9.141   8.701   9.005
    1HEX    H29 5987   8.824   8.827   8.754
    1HEX    H2A 5988   8.948   8.706   8.767
    1HEX    H2B 5989   8.847   8.655   9.172
    1HEX    H2C 5990   8.773   8.814   9.169
    1HEX    H2D 5991   9.006   8.913   9.227
    1HEX    H2E 5992   9.063   8.748   9.247
    1HEX    H2F 5993   8.810   8.900   9.401
    1HEX    H2G 5994   8.534   8.609   8.685
    1HEX    H2H 5995   8.589   8.767   8.729
    1HEX    H2I 5996   8.536   8.541   9.128
    1HEX    H2J 5997   8.389   8.454   9.087
    1HEX    H2K 5998   8.280   8.674   9.020
    1HEX    H2M 5999   8.426   8.759   9.065
    1HEX    H2N 6000   8.225   8.575   9.253
    1STR    S00 6001   9.179   8.575   8.045
    1STR    S0E 6002   8.508   9.422   8.537
    1STR    S0M 6003   8.152   8.190   8.101
    1STR    S0X 6004   9.255   8.630   9.003
    1STR    S14 6005   8.906   8.810   9.421
    1STR    S1B 6006   8.310   8.678   9.259
    1HEX    C01 6007   8.998   8.566  12.389
    1HEX    C02 6008   8.936   8.569  12.529
    1HEX    C03 6009   8.785   8.570  12.520
    1HEX    O04 6010   8.723   8.470  12.482
    1HEX    O05 6011   8.732   8.688  12.554
    1HEX    C06 6012   8.591   8.704  12.559
    1HEX    C07 6013   8.540   8.701  12.706
    1HEX    C08 6014   8.590   8.829  12.776
    1HEX    O09 6015   8.524   8.950  12.740
    1HEX    C0A 6016   8.457   9.019  12.835
    1HEX    O0B 6017   8.412   8.971  12.939
    1HEX    C0C 6018   8.449   9.168  12.806
    1HEX    C0D 6019   8.461   9.250  12.935
    1HEX    C0F 6020   8.385   8.700  12.706
    1HEX    O0G 6021   8.338   8.578  12.650
    1HEX    C0H 6022   8.286   8.575  12.526
    1HEX    O0I 6023   8.253   8.672  12.459
    1HEX    C0J 6024   8.276   8.433  12.471
    1HEX    C0K 6025   8.156   8.358  12.529
    1HEX    C0N 6026   8.586   8.571  12.781
    1HEX    O0O 6027   8.722   8.553  12.824
    1HEX    C0P 6028   8.788   8.634  12.923
    1HEX    C0Q 6029   8.753   8.623  13.075
    1HEX    C0R 6030   8.786   8.479  13.124
    1HEX    O0S 6031   8.927   8.455  13.119
    1HEX    C0T 6032   8.999   8.447  13.234
    1HEX    O0U 6033   8.954   8.456  13.348
    1HEX    C0V 6034   9.148   8.424  13.209
    1HEX    C0W 6035   9.230   8.554  13.200
    1HEX    C0Y 6036   8.843   8.725  13.148
    1HEX    O0Z 6037   8.821   8.721  13.287
    1HEX    C10 6038   8.908   8.779  13.370
    1HEX    O11 6039   9.009   8.840  13.336
    1HEX    C12 6040   8.867   8.761  13.515
    1HEX    C13 6041   8.974   8.812  13.613
    1HEX    C15 6042   8.605   8.661  13.107
    1HEX    O16 6043   8.567   8.641  13.243
    1HEX    C17 6044   8.493   8.535  13.279
    1HEX    O18 6045   8.460   8.442  13.206
    1HEX    C19 6046   8.448   8.543  13.424
    1HEX    C1A 6047   8.366   8.671  13.447
    1HEX    H1C 6048   9.206   8.570  12.275
    1HEX    H1D 6049   8.969   8.475  12.337
    1HEX    H1E 6050   8.962   8.651  12.330
    1HEX    H1F 6051   8.969   8.656  12.585
    1HEX    H1G 6052   8.966   8.481  12.587
    1HEX    H1H 6053   8.541   8.629  12.498
    1HEX    H1I 6054   8.564   8.799  12.513
    1HEX    H1J 6055   8.694   8.847  12.749
    1HEX    H1K 6056   8.587   8.816  12.883
    1HEX    H1M 6057   8.357   9.191  12.752
    1HEX    H1N 6058   8.532   9.192  12.739
    1HEX    H1O 6059   8.536   9.207  13.003
    1HEX    H1P 6060   8.366   9.249  12.989
    1HEX    H1Q 6061   8.635   9.398  12.865
    1HEX    H1R 6062   8.345   8.787  12.654
    1HEX    H1S 6063   8.346   8.708  12.808
    1HEX    H1T 6064   8.369   8.381  12.494
    1HEX    H1U 6065   8.269   8.439  12.363
    1HEX    H1V 6066   8.063   8.410  12.506
    1HEX    H1W 6067   8.163   8.353  12.638
    1HEX    H1X 6068   8.136   8.224  12.333
    1HEX    H1Y 6069   8.571   8.489  12.711
    1HEX    H1Z 6070   8.516   8.543  12.859
    1HEX    H20 6071   8.796   8.738  12.893
    1HEX    H21 6072   8.892   8.602  12.914
    1HEX    H22 6073   8.735   8.405  13.062
    1HEX    H23 6074   8.748   8.463  13.225
    1HEX    H24 6075   9.157   8.368  13.116
    1HEX    H25 6076   9.187   8.360  13.288
    1HEX    H26 6077   9.182   8.627  13.134
    1HEX    H27 6078   9.328   8.533  13.158
    1HEX    H28 6079   9.141   8.701  13.365
    1HEX    H29 6080   8.824   8.827  13.114
    1HEX    H2A 6081   8.949   8.706  13.127
    1HEX    H2B 6082   8.847   8.655  13.532
    1HEX    H2C 6083   8.773   8.814  13.529
    1HEX    H2D 6084   9.006   8.913  13.587
    1HEX    H2E 6085   9.063   8.748  13.607
    1HEX    H2F 6086   8.810   8.900  13.761
    1HEX    H2G 6087   8.534   8.609  13.045
    1HEX    H2H 6088   8.589   8.767  13.089
    1HEX    H2I 6089   8.536   8.541  13.488
    1HEX    H2J 6090   8.389   8.454  13.447
    1HEX    H2K 6091   8.280   8.674  13.379
    1HEX    H2M 6092   8.426   8.759  13.425
    1HEX    H2N 6093   8.225   8.575  13.613
    1STR    S00 6094   9.179   8.575  12.406
    1STR    S0E 6095   8.508   9.422  12.897
    1STR    S0M 6096   8.152   8.190  12.461
    1STR    S0X 6097   9.255   8.630  13.363
    1STR    S14 6098   8.906   8.810  13.781
    1STR    S1B 6099   8.310   8.678  13.619
    1HEX    C01 6100   8.998  12.926  16.749
    1HEX    C02 6101   8.936  12.929  16.889
    1HEX    C03 6102   8.785  12.930  16.880
    1HEX    O04 6103   8.723  12.830  16.842
    1HEX    O05 6104   8.732  13.048  16.914
    1HEX    C06 6105   8.591  13.064  16.919
    1HEX    C07 6106   8.540  13.061  17.066
    1HEX    C08 6107   8.590  13.190  17.136
    1HEX    O09 6108   8.524  13.311  17.100
    1HEX    C0A 6109   8.457  13.379  17.195
    1HEX    O0B 6110   8.412  13.331  17.299
    1HEX    C0C 6111   8.449  13.528  17.166
    1HEX    C0D 6112   8.461  13.611  17.295
    1HEX    C0F 6113   8.385  13.061  17.066
    1HEX    O0G 6114   8.338  12.938  17.010
    1HEX    C0H 6115   8.286  12.935  16.886
    1HEX    O0I 6116   8.253  13.032  16.819
    1HEX    C0J 6117   8.276  12.793  16.831
    1HEX    C0K 6118   8.156  12.718  16.889
    1HEX    C0N 6119   8.586  12.931  17.141
    1HEX    O0O 6120   8.722  12.914  17.184
    1HEX    C0P 6121   8.788  12.995  17.283
    1HEX    C0Q 6122   8.753  12.983  17.435
    1HEX    C0R 6123   8.787  12.839   0.044
    1HEX    O0S 6124   8.928  12.815   0.039
    1HEX    C0T 6125   8.999  12.807   0.154
    1HEX    O0U 6126   8.954  12.816   0.268
    1HEX    C0V 6127   9.148  12.784   0.129
    1HEX    C0W 6128   9.230  12.915   0.120
    1HEX    C0Y 6129   8.843  13.086   0.068
    1HEX    O0Z 6130   8.821  13.081   0.208
    1HEX    C10 6131   8.908  13.139   0.290
    1HEX    O11 6132   9.009  13.200   0.256
    1HEX    C12 6133   8.867  13.122   0.435
    1HEX    C13 6134   8.974  13.172   0.533
    1HEX    C15 6135   8.605  13.021   0.027
    1HEX    O16 6136   8.567  13.001   0.163
    1HEX    C17 6137   8.493  12.895   0.199
    1HEX    O18 6138   8.460  12.802   0.126
    1HEX    C19 6139   8.448  12.903   0.344
    1HEX    C1A 6140   8.366  13.031   0.367
    1HEX    H1C 6141   9.206  12.929  16.635
    1HEX    H1D 6142   8.969  12.835  16.697
    1HEX    H1E 6143   8.962  13.011  16.690
    1HEX    H1F 6144   8.969  13.016  16.945
    1HEX    H1G 6145   8.966  12.841  16.947
    1HEX    H1H 6146   8.541  12.989  16.858
    1HEX    H1I 6147   8.564  13.159  16.873
    1HEX    H1J 6148   8.694  13.207  17.109
    1HEX    H1K 6149   8.587  13.176  17.243
    1HEX    H1M 6150   8.358  13.551  17.112
    1HEX    H1N 6151   8.532  13.552  17.099
    1HEX    H1O 6152   8.536  13.568  17.362
    1HEX    H1P 6153   8.366  13.609  17.349
    1HEX    H1Q 6154   8.635  13.758  17.225
    1HEX    H1R 6155   8.345  13.148  17.014
    1HEX    H1S 6156   8.346  13.069  17.168
    1HEX    H1T 6157   8.369  12.741  16.854
    1HEX    H1U 6158   8.269  12.800  16.723
    1HEX    H1V 6159   8.063  12.770  16.866
    1HEX    H1W 6160   8.163  12.713  16.998
    1HEX    H1X 6161   8.136  12.584  16.693
    1HEX    H1Y 6162   8.571  12.849  17.071
    1HEX    H1Z 6163   8.516  12.903  17.219
    1HEX    H20 6164   8.796  13.098  17.253
    1HEX    H21 6165   8.892  12.962  17.274
    1HEX    H22 6166   8.735  12.765  17.422
    1HEX    H23 6167   8.748  12.823   0.145
    1HEX    H24 6168   9.157  12.729   0.036
    1HEX    H25 6169   9.187  12.720   0.208
    1HEX    H26 6170   9.182  12.987   0.054
    1HEX    H27 6171   9.328  12.893   0.078
    1HEX    H28 6172   9.141  13.061   0.285
    1HEX    H29 6173   8.824  13.187   0.034
    1HEX    H2A 6174   8.948  13.066   0.047
    1HEX    H2B 6175   8.847  13.016   0.452
    1HEX    H2C 6176   8.773  13.175   0.449
    1HEX    H2D 6177   9.006  13.273   0.507
    1HEX    H2E 6178   9.063  13.109   0.527
    1HEX    H2F 6179   8.810  13.261   0.681
    1HEX    H2G 6180   8.534  12.969  17.405
    1HEX    H2H 6181   8.589  13.127   0.009
    1HEX    H2I 6182   8.536  12.901   0.407
    1HEX    H2J 6183   8.390  12.814   0.367
    1HEX    H2K 6184   8.280  13.034   0.300
    1HEX    H2M 6185   8.426  13.119   0.345
    1HEX    H2N 6186   8.225  12.935   0.533
    1STR    S00 6187   9.179  12.935  16.765
    1STR    S0E 6188   8.507  13.782  17.257
    1STR    S0M 6189   8.152  12.550  16.821
    1STR    S0X 6190   9.255  12.990   0.283
    1STR    S14 6191   8.906  13.170   0.701
    1STR    S1B 6192   8.310  13.038   0.539
    1HEX    C01 6193   8.998  12.926   3.669
    1HEX    C02 6194   8.936  12.929   3.809
    1HEX    C03 6195   8.785  12.930   3.800
    1HEX    O04 6196   8.723  12.830   3.762
    1HEX    O05 6197   8.732  13.048   3.834
    1HEX    C06 6198   8.591  13.064   3.839
    1HEX    C07 6199   8.540  13.061   3.986
    1HEX    C08 6200   8.590  13.190   4.056
    1HEX    O09 6201   8.524  13.310   4.020
    1HEX    C0A 6202   8.457  13.379   4.115
    1HEX    O0B 6203   8.412  13.331   4.219
    1HEX    C0C 6204   8.449  13.528   4.086
    1HEX    C0D 6205   8.461  13.610   4.215
    1HEX    C0F 6206   8.385  13.061   3.986
    1HEX    O0G 6207   8.338  12.938   3.930
    1HEX    C0H 6208   8.286  12.935   3.806
    1HEX    O0I 6209   8.253  13.032   3.739
    1HEX    C0J 6210   8.276  12.793   3.751
    1HEX    C0K 6211   8.156  12.718   3.809
    1HEX    C0N 6212   8.586  12.931   4.061
    1HEX    O0O 6213   8.722  12.914   4.104
    1HEX    C0P 6214   8.788  12.995   4.203
    1HEX    C0Q 6215   8.753  12.983   4.355
    1HEX    C0R 6216   8.787  12.839   4.404
    1HEX    O0S 6217   8.928  12.815   4.399
    1HEX    C0T 6218   8.999  12.807   4.514
    1HEX    O0U 6219   8.954  12.816   4.628
    1HEX    C0V 6220   9.148  12.784   4.489
    1HEX    C0W 6221   9.230  12.915   4.480
    1HEX    C0Y 6222   8.843  13.086   4.428
    1HEX    O0Z 6223   8.821  13.081   4.568
    1HEX    C10 6224   8.908  13.139   4.650
    1HEX    O11 6225   9.009  13.200   4.616
    1HEX    C12 6226   8.867  13.122   4.795
    1HEX    C13 6227   8.974  13.172   4.893
    1HEX    C15 6228   8.605  13.021   4.387
    1HEX    O16 6229   8.567  13.001   4.523
    1HEX    C17 6230   8.493  12.895   4.559
    1HEX    O18 6231   8.460  12.802   4.486
    1HEX    C19 6232   8.448  12.903   4.704
    1HEX    C1A 6233   8.366  13.031   4.727
    1HEX    H1C 6234   9.206  12.929   3.555
    1HEX    H1D 6235   8.969  12.835   3.617
    1HEX    H1E 6236   8.962  13.011   3.610
    1HEX    H1F 6237   8.969  13.016   3.865
    1HEX    H1G 6238   8.966  12.841   3.867
    1HEX    H1H 6239   8.541  12.989   3.778
    1HEX    H1I 6240   8.564  13.159   3.793
    1HEX    H1J 6241   8.694  13.207   4.029
    1HEX    H1K 6242   8.587  13.176   4.163
    1HEX    H1M 6243   8.358  13.551   4.032
    1HEX    H1N 6244   8.532  13.552   4.019
    1HEX    H1O 6245   8.536  13.568   4.283
    1HEX    H1P 6246   8.366  13.609   4.270
    1HEX    H1Q 6247   8.635  13.758   4.145
    1HEX    H1R 6248   8.345  13.148   3.934
    1HEX    H1S 6249   8.346  13.069   4.088
    1HEX    H1T 6250   8.369  12.741   3.774
    1HEX    H1U 6251   8.269  12.800   3.643
    1HEX    H1V 6252   8.063  12.770   3.786
    1HEX    H1W 6253   8.163  12.713   3.918
    1HEX    H1X 6254   8.136  12.584   3.613
    1HEX    H1Y 6255   8.571  12.849   3.991
    1HEX    H1Z 6256   8.516  12.903   4.139
    1HEX    H20 6257   8.796  13.098   4.173
    1HEX    H21 6258   8.892  12.962   4.194
    1HEX    H22 6259   8.735  12.765   4.342
    1HEX    H23 6260   8.748  12.823   4.505
    1HEX    H24 6261   9.157  12.729   4.396
    1HEX    H25 6262   9.187  12.720   4.568
    1HEX    H26 6263   9.182  12.987   4.414
    1HEX    H27 6264   9.328  12.893   4.438
    1HEX    H28 6265   9.141  13.061   4.645
    1HEX    H29 6266   8.824  13.187   4.394
    1HEX    H2A 6267   8.948  13.066   4.407
    1HEX    H2B 6268   8.847  13.016   4.812
    1HEX    H2C 6269   8.773  13.175   4.809
    1HEX    H2D 6270   9.006  13.273   4.867
    1HEX    H2E 6271   9.063  13.109   4.887
    1HEX    H2F 6272   8.810  13.260   5.041
    1HEX    H2G 6273   8.534  12.969   4.325
    1HEX    H2H 6274   8.589  13.127   4.369
    1HEX    H2I 6275   8.536  12.901   4.767
    1HEX    H2J 6276   8.389  12.814   4.727
    1HEX    H2K 6277   8.280  13.034   4.660
    1HEX    H2M 6278   8.426  13.119   4.705
    1HEX    H2N 6279   8.225  12.935   4.893
    1STR    S00 6280   9.179  12.935   3.685
    1STR    S0E 6281   8.507  13.782   4.177
    1STR    S0M 6282   8.152  12.550   3.741
    1STR    S0X 6283   9.255  12.990   4.643
    1STR    S14 6284   8.906  13.170   5.061
    1STR    S1B 6285   8.310  13.038   4.899
    1HEX    C01 6286   8.939  13.074   9.007
    1HEX    C02 6287   8.948  13.140   8.854
    1HEX    C03 6288   8.910  13.066   8.715
    1HEX    O04 6289   8.967  12.962   8.683
    1HEX    O05 6290   8.818  13.130   8.624
    1HEX    C06 6291   8.777  13.082   8.489
    1HEX    C07 6292   8.621  13.073   8.447
    1HEX    C08 6293   8.540  13.186   8.515
    1HEX    O09 6294   8.546  13.315   8.458
    1HEX    C0A 6295   8.455  13.404   8.502
    1HEX    O0B 6296   8.362  13.380   8.579
    1HEX    C0C 6297   8.479  13.546   8.454
    1HEX    C0D 6298   8.484  13.640   8.575
    1HEX    C0F 6299   8.589  13.083   8.292
    1HEX    O0G 6300   8.538  12.963   8.227
    1HEX    C0H 6301   8.410  12.958   8.176
    1HEX    O0I 6302   8.329  13.050   8.176
    1HEX    C0J 6303   8.371  12.823   8.114
    1HEX    C0K 6304   8.234  12.772   8.167
    1HEX    C0N 6305   8.555  12.940   8.492
    1HEX    O0O 6306   8.519  12.944   8.628
    1HEX    C0P 6307   8.615  12.889   8.713
    1HEX    C0Q 6308   8.594  12.944   8.856
    1HEX    C0R 6309   8.690  12.860   8.945
    1HEX    O0S 6310   8.812  12.820   8.878
    1HEX    C0T 6311   8.900  12.738   8.941
    1HEX    O0U 6312   8.884  12.694   9.054
    1HEX    C0V 6313   9.025  12.702   8.859
    1HEX    C0W 6314   9.151  12.790   8.875
    1HEX    C0Y 6315   8.611  13.101   8.861
    1HEX    O0Z 6316   8.653  13.174   8.977
    1HEX    C10 6317   8.694  13.305   8.960
    1HEX    O11 6318   8.705  13.363   8.852
    1HEX    C12 6319   8.730  13.378   9.088
    1HEX    C13 6320   8.873  13.437   9.092
    1HEX    C15 6321   8.446  12.916   8.887
    1HEX    O16 6322   8.421  12.945   9.022
    1HEX    C17 6323   8.404  12.845   9.109
    1HEX    O18 6324   8.408  12.725   9.084
    1HEX    C19 6325   8.377  12.897   9.249
    1HEX    C1A 6326   8.318  13.039   9.246
    1HEX    H1D 6327   8.920  12.969   9.009
    1HEX    H1E 6328   9.046  13.070   9.016
    1HEX    H1F 6329   8.916  13.243   8.847
    1HEX    H1G 6330   9.055  13.149   8.834
    1HEX    H1H 6331   8.825  12.986   8.467
    1HEX    H1I 6332   8.824  13.151   8.419
    1HEX    H1J 6333   8.573  13.198   8.618
    1HEX    H1K 6334   8.435  13.155   8.521
    1HEX    H1M 6335   8.398  13.573   8.386
    1HEX    H1N 6336   8.572  13.548   8.397
    1HEX    H1O 6337   8.551  13.600   8.651
    1HEX    H1P 6338   8.385  13.645   8.621
    1HEX    H1Q 6339   8.664  13.772   8.496
    1HEX    H1R 6340   8.674  13.119   8.235
    1HEX    H1S 6341   8.514  13.161   8.276
    1HEX    H1T 6342   8.449  12.750   8.136
    1HEX    H1U 6343   8.366  12.834   8.006
    1HEX    H1V 6344   8.152  12.836   8.134
    1HEX    H1W 6345   8.233  12.774   8.276
    1HEX    H1X 6346   8.169  12.628   7.986
    1HEX    H1Y 6347   8.612  12.851   8.464
    1HEX    H1Z 6348   8.458  12.927   8.444
    1HEX    H20 6349   8.715  12.907   8.677
    1HEX    H21 6350   8.604  12.780   8.711
    1HEX    H22 6351   8.641  12.766   8.972
    1HEX    H23 6352   8.709  12.910   9.040
    1HEX    H24 6353   8.997  12.697   8.754
    1HEX    H25 6354   9.051  12.600   8.888
    1HEX    H26 6355   9.145  12.882   8.817
    1HEX    H27 6356   9.236  12.737   8.832
    1HEX    H28 6357   9.109  12.927   9.068
    1HEX    H29 6358   8.521  13.150   8.826
    1HEX    H2A 6359   8.681  13.129   8.787
    1HEX    H2B 6360   8.716  13.304   9.165
    1HEX    H2C 6361   8.657  13.457   9.106
    1HEX    H2D 6362   8.882  13.526   9.029
    1HEX    H2E 6363   8.947  13.367   9.052
    1HEX    H2F 6364   8.903  13.359   9.316
    1HEX    H2G 6365   8.418  12.814   8.859
    1HEX    H2H 6366   8.381  12.980   8.828
    1HEX    H2I 6367   8.471  12.895   9.305
    1HEX    H2J 6368   8.310  12.825   9.296
    1HEX    H2K 6369   8.252  13.052   9.160
    1HEX    H2M 6370   8.398  13.112   9.236
    1HEX    H2N 6371   8.127  12.976   9.369
    1STR    S00 6372   8.943  13.137   9.192
    1STR    S0E 6373   8.537  13.805   8.523
    1STR    S0M 6374   8.204  12.602   8.112
    1STR    S0X 6375   9.200  12.832   9.045
    1STR    S14 6376   8.919  13.481   9.262
    1STR    S1B 6377   8.220  13.068   9.396
    1HEX    C01 6378   8.952  12.963  12.308
    1HEX    C02 6379   8.918  12.950  12.459
    1HEX    C03 6380   8.770  12.938  12.492
    1HEX    O04 6381   8.709  12.832  12.480
    1HEX    O05 6382   8.721  13.054  12.538
    1HEX    C06 6383   8.581  13.068  12.556
    1HEX    C07 6384   8.538  13.063  12.704
    1HEX    C08 6385   8.589  13.190  12.774
    1HEX    O09 6386   8.524  13.312  12.740
    1HEX    C0A 6387   8.458  13.380  12.835
    1HEX    O0B 6388   8.414  13.332  12.940
    1HEX    C0C 6389   8.450  13.529  12.806
    1HEX    C0D 6390   8.462  13.611  12.936
    1HEX    C0F 6391   8.382  13.061  12.709
    1HEX    O0G 6392   8.335  12.939  12.652
    1HEX    C0H 6393   8.282  12.936  12.529
    1HEX    O0I 6394   8.247  13.034  12.463
    1HEX    C0J 6395   8.275  12.796  12.472
    1HEX    C0K 6396   8.156  12.718  12.529
    1HEX    C0N 6397   8.586  12.932  12.777
    1HEX    O0O 6398   8.723  12.916  12.821
    1HEX    C0P 6399   8.788  12.996  12.921
    1HEX    C0Q 6400   8.752  12.983  13.073
    1HEX    C0R 6401   8.787  12.840  13.122
    1HEX    O0S 6402   8.928  12.816  13.119
    1HEX    C0T 6403   8.999  12.808  13.234
    1HEX    O0U 6404   8.953  12.816  13.348
    1HEX    C0V 6405   9.147  12.785  13.210
    1HEX    C0W 6406   9.230  12.915  13.201
    1HEX    C0Y 6407   8.842  13.086  13.147
    1HEX    O0Z 6408   8.820  13.081  13.287
    1HEX    C10 6409   8.907  13.139  13.369
    1HEX    O11 6410   9.009  13.199  13.335
    1HEX    C12 6411   8.867  13.122  13.514
    1HEX    C13 6412   8.974  13.172  13.612
    1HEX    C15 6413   8.604  13.020  13.105
    1HEX    O16 6414   8.566  13.001  13.241
    1HEX    C17 6415   8.493  12.895  13.278
    1HEX    O18 6416   8.460  12.801  13.206
    1HEX    C19 6417   8.448  12.903  13.423
    1HEX    C1A 6418   8.366  13.031  13.446
    1HEX    H1D 6419   9.007  12.874  12.280
    1HEX    H1E 6420   9.020  13.047  12.293
    1HEX    H1F 6421   8.957  13.036  12.513
    1HEX    H1G 6422   8.966  12.862  12.502
    1HEX    H1H 6423   8.529  12.994  12.495
    1HEX    H1I 6424   8.552  13.164  12.512
    1HEX    H1J 6425   8.693  13.206  12.745
    1HEX    H1K 6426   8.589  13.177  12.881
    1HEX    H1M 6427   8.358  13.551  12.752
    1HEX    H1N 6428   8.533  13.553  12.739
    1HEX    H1O 6429   8.537  13.568  13.003
    1HEX    H1P 6430   8.367  13.609  12.990
    1HEX    H1Q 6431   8.635  13.759  12.864
    1HEX    H1R 6432   8.341  13.149  12.658
    1HEX    H1S 6433   8.346  13.069  12.812
    1HEX    H1T 6434   8.369  12.745  12.494
    1HEX    H1U 6435   8.268  12.803  12.363
    1HEX    H1V 6436   8.062  12.769  12.505
    1HEX    H1W 6437   8.163  12.712  12.637
    1HEX    H1X 6438   8.139  12.585  12.331
    1HEX    H1Y 6439   8.572  12.851  12.706
    1HEX    H1Z 6440   8.517  12.902  12.855
    1HEX    H20 6441   8.796  13.100  12.892
    1HEX    H21 6442   8.892  12.963  12.913
    1HEX    H22 6443   8.736  12.766  13.060
    1HEX    H23 6444   8.748  12.824  13.223
    1HEX    H24 6445   9.157  12.728  13.117
    1HEX    H25 6446   9.186  12.721  13.289
    1HEX    H26 6447   9.182  12.987  13.135
    1HEX    H27 6448   9.328  12.893  13.158
    1HEX    H28 6449   9.141  13.061  13.366
    1HEX    H29 6450   8.822  13.188  13.113
    1HEX    H2A 6451   8.947  13.067  13.126
    1HEX    H2B 6452   8.847  13.016  13.531
    1HEX    H2C 6453   8.773  13.175  13.528
    1HEX    H2D 6454   9.005  13.273  13.586
    1HEX    H2E 6455   9.063  13.109  13.606
    1HEX    H2F 6456   8.810  13.260  13.761
    1HEX    H2G 6457   8.533  12.967  13.043
    1HEX    H2H 6458   8.587  13.126  13.086
    1HEX    H2I 6459   8.537  12.902  13.487
    1HEX    H2J 6460   8.390  12.814  13.447
    1HEX    H2K 6461   8.280  13.034  13.379
    1HEX    H2M 6462   8.426  13.119  13.424
    1HEX    H2N 6463   8.225  12.935  13.613
    1STR    S00 6464   8.817  12.977  12.184
    1STR    S0E 6465   8.507  13.783  12.897
    1STR    S0M 6466   8.155  12.550  12.460
    1STR    S0X 6467   9.255  12.990  13.364
    1STR    S14 6468   8.906  13.170  13.780
    1STR    S1B 6469   8.310  13.038  13.619
    1HEX    C01 6470  13.358  17.286  16.749
    1HEX    C02 6471  13.296  17.289  16.889
    1HEX    C03 6472  13.145  17.289  16.880
    1HEX    O04 6473  13.083  17.190  16.842
    1HEX    O05 6474  13.092  17.408  16.914
    1HEX    C06 6475  12.951  17.424  16.919
    1HEX    C07 6476  12.900  17.421  17.066
    1HEX    C08 6477  12.950   0.109  17.136
    1HEX    O09 6478  12.884   0.230  17.100
    1HEX    C0A 6479  12.817   0.298  17.195
    1HEX    O0B 6480  12.772   0.251  17.299
    1HEX    C0C 6481  12.810   0.448  17.166
    1HEX    C0D 6482  12.821   0.530  17.295
    1HEX    C0F 6483  12.745  17.420  17.066
    1HEX    O0G 6484  12.698  17.297  17.010
    1HEX    C0H 6485  12.646  17.294  16.886
    1HEX    O0I 6486  12.613  17.391  16.819
    1HEX    C0J 6487  12.636  17.153  16.831
    1HEX    C0K 6488  12.516  17.078  16.889
    1HEX    C0N 6489  12.946  17.291  17.141
    1HEX    O0O 6490  13.082  17.273  17.184
    1HEX    C0P 6491  13.148  17.354  17.283
    1HEX    C0Q 6492  13.113  17.342  17.435
    1HEX    C0R 6493  13.147  17.199   0.044
    1HEX    O0S 6494  13.288  17.174   0.039
    1HEX    C0T 6495  13.359  17.167   0.154
    1HEX    O0U 6496  13.315  17.175   0.268
    1HEX    C0V 6497  13.508  17.144   0.129
    1HEX    C0W 6498  13.590  17.274   0.120
    1HEX    C0Y 6499  13.203   0.005   0.068
    1HEX    O0Z 6500  13.181   0.001   0.208
    1HEX    C10 6501  13.268   0.059   0.290
    1HEX    O11 6502  13.369   0.120   0.256
    1HEX    C12 6503  13.227   0.041   0.435
    1HEX    C13 6504  13.334   0.092   0.533
    1HEX    C15 6505  12.965  17.380   0.027
    1HEX    O16 6506  12.927  17.360   0.163
    1HEX    C17 6507  12.853  17.254   0.199
    1HEX    O18 6508  12.820  17.161   0.126
    1HEX    C19 6509  12.808  17.262   0.344
    1HEX    C1A 6510  12.726  17.390   0.367
    1HEX    H1C 6511  13.566  17.290  16.634
    1HEX    H1D 6512  13.330  17.195  16.697
    1HEX    H1E 6513  13.322  17.371  16.690
    1HEX    H1F 6514  13.329  17.376  16.945
    1HEX    H1G 6515  13.326  17.201  16.947
    1HEX    H1H 6516  12.901  17.348  16.858
    1HEX    H1I 6517  12.924   0.079  16.873
    1HEX    H1J 6518  13.054   0.126  17.109
    1HEX    H1K 6519  12.947   0.095  17.243
    1HEX    H1M 6520  12.718   0.470  17.112
    1HEX    H1N 6521  12.892   0.472  17.099
    1HEX    H1O 6522  12.896   0.487  17.362
    1HEX    H1P 6523  12.726   0.528  17.349
    1HEX    H1Q 6524  12.995   0.677  17.225
    1HEX    H1R 6525  12.705   0.067  17.014
    1HEX    H1S 6526  12.706  17.428  17.168
    1HEX    H1T 6527  12.729  17.100  16.854
    1HEX    H1U 6528  12.629  17.159  16.723
    1HEX    H1V 6529  12.423  17.129  16.866
    1HEX    H1W 6530  12.523  17.073  16.998
    1HEX    H1X 6531  12.496  16.943  16.693
    1HEX    H1Y 6532  12.932  17.208  17.071
    1HEX    H1Z 6533  12.876  17.262  17.219
    1HEX    H20 6534  13.155   0.018  17.253
    1HEX    H21 6535  13.252  17.321  17.274
    1HEX    H22 6536  13.096  17.125  17.422
    1HEX    H23 6537  13.108  17.183   0.145
    1HEX    H24 6538  13.517  17.088   0.036
    1HEX    H25 6539  13.547  17.080   0.208
    1HEX    H26 6540  13.542  17.347   0.054
    1HEX    H27 6541  13.688  17.253   0.078
    1HEX    H28 6542  13.501  17.421   0.285
    1HEX    H29 6543  13.184   0.107   0.034
    1HEX    H2A 6544  13.308  17.425   0.047
    1HEX    H2B 6545  13.208  17.375   0.452
    1HEX    H2C 6546  13.133   0.094   0.449
    1HEX    H2D 6547  13.365   0.193   0.507
    1HEX    H2E 6548  13.423   0.029   0.527
    1HEX    H2F 6549  13.169   0.180   0.681
    1HEX    H2G 6550  12.894  17.328  17.405
    1HEX    H2H 6551  12.949   0.046   0.009
    1HEX    H2I 6552  12.896  17.261   0.408
    1HEX    H2J 6553  12.750  17.173   0.367
    1HEX    H2K 6554  12.640  17.393   0.300
    1HEX    H2M 6555  12.786   0.038   0.345
    1HEX    H2N 6556  12.585  17.295   0.534
    1STR    S00 6557  13.539  17.295  16.765
    1STR    S0E 6558  12.867   0.701  17.257
    1STR    S0M 6559  12.512  16.909  16.821
    1STR    S0X 6560  13.615  17.350   0.283
    1STR    S14 6561  13.266   0.090   0.701
    1STR    S1B 6562  12.670  17.398   0.539
    1HEX    C01 6563  13.357  17.285   3.674
    1HEX    C02 6564  13.300  17.284   3.817
    1HEX    C03 6565  13.148  17.279   3.813
    1HEX    O04 6566  13.089  17.176   3.782
    1HEX    O05 6567  13.092  17.398   3.842
    1HEX    C06 6568  12.950  17.411   3.844
    1HEX    C07 6569  12.896  17.433   3.988
    1HEX    C08 6570  12.946   0.130   4.038
    1HEX    O09 6571  12.887   0.246   3.983
    1HEX    C0A 6572  12.803   0.318   4.058
    1HEX    O0B 6573  12.733   0.273   4.149
    1HEX    C0C 6574  12.808   0.467   4.028
    1HEX    C0D 6575  12.825   0.547   4.158
    1HEX    C0F 6576  12.741  17.431   3.983
    1HEX    O0G 6577  12.696  17.305   3.932
    1HEX    C0H 6578  12.643  17.296   3.808
    1HEX    O0I 6579  12.607  17.391   3.738
    1HEX    C0J 6580  12.636  17.153   3.757
    1HEX    C0K 6581  12.515  17.079   3.812
    1HEX    C0N 6582  12.940  17.318   4.085
    1HEX    O0O 6583  13.077  17.308   4.124
    1HEX    C0P 6584  13.143  17.400   4.213
    1HEX    C0Q 6585  13.111  17.397   4.366
    1HEX    C0R 6586  13.129  17.250   4.415
    1HEX    O0S 6587  13.266  17.208   4.405
    1HEX    C0T 6588  13.339  17.182   4.516
    1HEX    O0U 6589  13.297  17.184   4.632
    1HEX    C0V 6590  13.485  17.147   4.486
    1HEX    C0W 6591  13.580  17.269   4.481
    1HEX    C0Y 6592  13.217   0.043   4.437
    1HEX    O0Z 6593  13.196   0.032   4.576
    1HEX    C10 6594  13.289   0.074   4.660
    1HEX    O11 6595  13.395   0.128   4.629
    1HEX    C12 6596  13.249   0.047   4.804
    1HEX    C13 6597  13.352   0.100   4.904
    1HEX    C15 6598  12.970   0.018   4.404
    1HEX    O16 6599  12.970   0.153   4.458
    1HEX    C17 6600  12.851   0.218   4.479
    1HEX    O18 6601  12.744   0.179   4.432
    1HEX    C19 6602  12.853   0.332   4.584
    1HEX    C1A 6603  12.925   0.468   4.555
    1HEX    H1C 6604  13.562  17.291   3.553
    1HEX    H1D 6605  13.328  17.194   3.621
    1HEX    H1E 6606  13.319  17.370   3.618
    1HEX    H1F 6607  13.331  17.373   3.872
    1HEX    H1G 6608  13.335  17.198   3.872
    1HEX    H1H 6609  12.903  17.325   3.796
    1HEX    H1I 6610  12.923   0.056   3.781
    1HEX    H1J 6611  13.052   0.140   4.012
    1HEX    H1K 6612  12.941   0.136   4.147
    1HEX    H1M 6613  12.717   0.496   3.976
    1HEX    H1N 6614  12.892   0.485   3.961
    1HEX    H1O 6615  12.898   0.501   4.224
    1HEX    H1P 6616  12.731   0.550   4.214
    1HEX    H1Q 6617  13.007   0.688   4.098
    1HEX    H1R 6618  12.703   0.075   3.923
    1HEX    H1S 6619  12.698   0.007   4.082
    1HEX    H1T 6620  12.729  17.102   3.784
    1HEX    H1U 6621  12.633  17.157   3.648
    1HEX    H1V 6622  12.422  17.130   3.786
    1HEX    H1W 6623  12.519  17.074   3.921
    1HEX    H1X 6624  12.497  16.943   3.616
    1HEX    H1Y 6625  12.919  17.224   4.033
    1HEX    H1Z 6626  12.875  17.312   4.172
    1HEX    H20 6627  13.148   0.061   4.177
    1HEX    H21 6628  13.247  17.367   4.203
    1HEX    H22 6629  13.069  17.181   4.355
    1HEX    H23 6630  13.093  17.239   4.517
    1HEX    H24 6631  13.488  17.095   4.391
    1HEX    H25 6632  13.521  17.077   4.561
    1HEX    H26 6633  13.539  17.348   4.418
    1HEX    H27 6634  13.675  17.240   4.437
    1HEX    H28 6635  13.513  17.425   4.647
    1HEX    H29 6636  13.212   0.148   4.407
    1HEX    H2A 6637  13.318   0.010   4.411
    1HEX    H2B 6638  13.234  17.379   4.815
    1HEX    H2C 6639  13.152   0.094   4.818
    1HEX    H2D 6640  13.383   0.201   4.878
    1HEX    H2E 6641  13.441   0.037   4.903
    1HEX    H2F 6642  13.179   0.188   5.042
    1HEX    H2G 6643  12.923  17.395   4.479
    1HEX    H2H 6644  12.901   0.015   4.320
    1HEX    H2I 6645  12.899   0.286   4.672
    1HEX    H2J 6646  12.749   0.350   4.615
    1HEX    H2K 6647  12.973   0.498   4.648
    1HEX    H2M 6648  13.007   0.453   4.484
    1STR    S00 6649  13.538  17.294   3.685
    1STR    S0E 6650  12.878   0.716   4.120
    1STR    S0M 6651  12.513  16.910   3.745
    1STR    S0X 6652  13.614  17.336   4.646
    1STR    S14 6653  13.276   0.100   5.069
    1STR    S1B 6654  12.824   0.617   4.506
    1HEX    C01 6655  13.363  17.289   8.025
    1HEX    C02 6656  13.297  17.297   8.162
    1HEX    C03 6657  13.146  17.304   8.148
    1HEX    O04 6658  13.082  17.209   8.105
    1HEX    O05 6659  13.096  17.423   8.187
    1HEX    C06 6660  12.956   0.001   8.197
    1HEX    C07 6661  12.909  17.430   8.344
    1HEX    C08 6662  12.951   0.116   8.421
    1HEX    O09 6663  12.888   0.237   8.382
    1HEX    C0A 6664  12.814   0.304   8.472
    1HEX    O0B 6665  12.761   0.255   8.572
    1HEX    C0C 6666  12.809   0.454   8.444
    1HEX    C0D 6667  12.821   0.534   8.575
    1HEX    C0F 6668  12.754  17.418   8.347
    1HEX    O0G 6669  12.715  17.294   8.288
    1HEX    C0H 6670  12.652  17.291   8.170
    1HEX    O0I 6671  12.609  17.388   8.108
    1HEX    C0J 6672  12.641  17.150   8.113
    1HEX    C0K 6673  12.519  17.077   8.169
    1HEX    C0N 6674  12.968  17.304   8.415
    1HEX    O0O 6675  13.105  17.308   8.463
    1HEX    C0P 6676  13.149  17.371   8.586
    1HEX    C0Q 6677  13.115  17.301   8.722
    1HEX    C0R 6678  13.174  17.158   8.715
    1HEX    O0S 6679  13.316  17.171   8.697
    1HEX    C0T 6680  13.402  17.090   8.760
    1HEX    O0U 6681  13.372  16.994   8.829
    1HEX    C0V 6682  13.549  17.124   8.733
    1HEX    C0W 6683  13.590  17.269   8.766
    1HEX    C0Y 6684  13.183  17.373   8.844
    1HEX    O0Z 6685  13.141  17.309   8.965
    1HEX    C10 6686  13.215  17.218   9.031
    1HEX    O11 6687  13.338  17.217   9.035
    1HEX    C12 6688  13.130  17.117   9.109
    1HEX    C13 6689  13.162  16.965   9.086
    1HEX    C15 6690  12.960  17.303   8.741
    1HEX    O16 6691  12.908  17.288   8.872
    1HEX    C17 6692  12.805  17.204   8.897
    1HEX    O18 6693  12.758  17.123   8.818
    1HEX    C19 6694  12.746  17.222   9.036
    1HEX    C1A 6695  12.719  17.369   9.069
    1HEX    H1C 6696  13.574  17.288   7.916
    1HEX    H1D 6697  13.335  17.197   7.974
    1HEX    H1E 6698  13.330  17.373   7.962
    1HEX    H1F 6699  13.331  17.384   8.218
    1HEX    H1G 6700  13.321  17.209   8.222
    1HEX    H1H 6701  12.904  17.369   8.133
    1HEX    H1I 6702  12.929   0.098   8.156
    1HEX    H1J 6703  13.058   0.132   8.406
    1HEX    H1K 6704  12.936   0.099   8.527
    1HEX    H1M 6705  12.717   0.478   8.391
    1HEX    H1N 6706  12.892   0.478   8.378
    1HEX    H1O 6707  12.895   0.489   8.641
    1HEX    H1P 6708  12.726   0.531   8.629
    1HEX    H1Q 6709  12.995   0.680   8.505
    1HEX    H1R 6710  12.708   0.064   8.298
    1HEX    H1S 6711  12.717  17.421   8.450
    1HEX    H1T 6712  12.733  17.096   8.135
    1HEX    H1U 6713  12.634  17.158   8.004
    1HEX    H1V 6714  12.427  17.131   8.146
    1HEX    H1W 6715  12.525  17.070   8.278
    1HEX    H1X 6716  12.496  16.946   7.971
    1HEX    H1Y 6717  12.966  17.223   8.342
    1HEX    H1Z 6718  12.897  17.266   8.487
    1HEX    H20 6719  13.126   0.037   8.592
    1HEX    H21 6720  13.258  17.372   8.576
    1HEX    H22 6721  13.133  17.102   8.631
    1HEX    H23 6722  13.149  17.100   8.804
    1HEX    H24 6723  13.565  17.104   8.627
    1HEX    H25 6724  13.611  17.053   8.788
    1HEX    H26 6725  13.515  17.340   8.733
    1HEX    H27 6726  13.682  17.293   8.712
    1HEX    H28 6727  13.502  17.266   8.989
    1HEX    H29 6728  13.153   0.037   8.848
    1HEX    H2A 6729  13.292  17.374   8.836
    1HEX    H2B 6730  13.026  17.138   9.088
    1HEX    H2C 6731  13.145  17.143   9.214
    1HEX    H2D 6732  13.186  16.921   9.183
    1HEX    H2E 6733  13.253  16.955   9.029
    1HEX    H2G 6734  12.917  17.226   8.679
    1HEX    H2H 6735  12.921  17.399   8.706
    1HEX    H2I 6736  12.814  17.178   9.109
    1HEX    H2J 6737  12.655  17.163   9.041
    1HEX    H2K 6738  12.641  17.409   9.005
    1HEX    H2M 6739  12.808  17.430   9.052
    1HEX    H2N 6740  12.560  17.309   9.236
    1STR    S00 6741  13.543  17.296   8.046
    1STR    S0E 6742  12.869   0.705   8.540
    1STR    S0M 6743  12.512  16.910   8.098
    1STR    S0X 6744  13.626  17.294   8.942
    1STR    S14 6745  13.029  16.856   9.013
    1STR    S1B 6746  12.671  17.383   9.244
    1HEX    C01 6747  13.432  17.299  12.345
    1HEX    C02 6748  13.360  17.303  12.479
    1HEX    C03 6749  13.209  17.301  12.462
    1HEX    O04 6750  13.155  17.216  12.392
    1HEX    O05 6751  13.146  17.396  12.536
    1HEX    C06 6752  13.004  17.392  12.550
    1HEX    C07 6753  12.955  17.326  12.684
    1HEX    C08 6754  12.911  17.436  12.785
    1HEX    O09 6755  12.870  17.380  12.911
    1HEX    C0A 6756  12.766  17.292  12.930
    1HEX    O0B 6757  12.653  17.302  12.882
    1HEX    C0C 6758  12.806  17.179  13.026
    1HEX    C0D 6759  12.787  17.024  13.008
    1HEX    C0F 6760  12.821  17.252  12.647
    1HEX    O0G 6761  12.806  17.183  12.524
    1HEX    C0H 6762  12.693  17.206  12.453
    1HEX    O0I 6763  12.633  17.313  12.445
    1HEX    C0J 6764  12.635  17.081  12.390
    1HEX    C0K 6765  12.518  17.030  12.476
    1HEX    C0N 6766  13.065  17.230  12.749
    1HEX    O0O 6767  13.088  17.227  12.892
    1HEX    C0P 6768  13.184  17.316  12.954
    1HEX    C0Q 6769  13.199  17.297  13.111
    1HEX    C0R 6770  13.265  17.159  13.141
    1HEX    O0S 6771  13.407  17.161  13.137
    1HEX    C0T 6772  13.476  17.149  13.252
    1HEX    O0U 6773  13.429  17.136  13.365
    1HEX    C0V 6774  13.626  17.153  13.231
    1HEX    C0W 6775  13.676  17.297  13.208
    1HEX    C0Y 6776  13.283  17.414  13.168
    1HEX    O0Z 6777  13.285  17.406  13.310
    1HEX    C10 6778  13.302   0.075  13.383
    1HEX    O11 6779  13.347   0.182  13.344
    1HEX    C12 6780  13.250   0.057  13.525
    1HEX    C13 6781  13.351   0.101  13.631
    1HEX    C15 6782  13.060  17.294  13.179
    1HEX    O16 6783  13.040  17.309  13.320
    1HEX    C17 6784  12.936  17.243  13.378
    1HEX    O18 6785  12.873  17.149  13.329
    1HEX    C19 6786  12.888  17.302  13.509
    1HEX    C1A 6787  12.776  17.403  13.481
    1HEX    H1C 6788  13.650  17.294  12.249
    1HEX    H1D 6789  13.405  17.209  12.289
    1HEX    H1E 6790  13.404  17.384  12.283
    1HEX    H1F 6791  13.388  17.392  12.536
    1HEX    H1G 6792  13.387  17.216  12.539
    1HEX    H1H 6793  12.963  17.342  12.462
    1HEX    H1I 6794  12.966   0.053  12.540
    1HEX    H1J 6795  12.832   0.061  12.746
    1HEX    H1K 6796  12.995   0.063  12.803
    1HEX    H1M 6797  12.774  17.214  13.123
    1HEX    H1N 6798  12.911  17.187  13.015
    1HEX    H1O 6799  12.777  16.985  13.110
    1HEX    H1P 6800  12.693  17.005  12.958
    1HEX    H1R 6801  12.739  17.324  12.656
    1HEX    H1S 6802  12.801  17.174  12.720
    1HEX    H1T 6803  12.715  17.007  12.384
    1HEX    H1U 6804  12.602  17.103  12.289
    1HEX    H1V 6805  12.430  17.094  12.465
    1HEX    H1W 6806  12.544  17.032  12.582
    1HEX    H1X 6807  12.446  16.884  12.302
    1HEX    H1Y 6808  13.163  17.240  12.704
    1HEX    H1Z 6809  13.037  17.129  12.721
    1HEX    H20 6810  13.154  17.419  12.933
    1HEX    H21 6811  13.281  17.302  12.907
    1HEX    H22 6812  13.228  17.085  13.070
    1HEX    H23 6813  13.230  17.122  13.238
    1HEX    H24 6814  13.649  17.090  13.146
    1HEX    H25 6815  13.674  17.108  13.318
    1HEX    H26 6816  13.618  17.345  13.130
    1HEX    H27 6817  13.780  17.295  13.175
    1HEX    H28 6818  13.533  17.385  13.376
    1HEX    H29 6819  13.239   0.070  13.139
    1HEX    H2A 6820  13.385  17.414  13.131
    1HEX    H2B 6821  13.224  17.392  13.539
    1HEX    H2C 6822  13.158   0.114  13.532
    1HEX    H2D 6823  13.386   0.203  13.611
    1HEX    H2E 6824  13.439   0.037  13.629
    1HEX    H2F 6825  13.178   0.187  13.771
    1HEX    H2G 6826  13.030  17.192  13.162
    1HEX    H2H 6827  12.992  17.364  13.130
    1HEX    H2I 6828  12.971  17.346  13.565
    1HEX    H2J 6829  12.850  17.219  13.568
    1HEX    H2K 6830  12.707  17.364  13.405
    1HEX    H2M 6831  12.817   0.056  13.442
    1HEX    H2N 6832  12.609  17.323  13.632
    1STR    S00 6833  13.611  17.300  12.377
    1STR    S0E 6834  12.921  16.916  12.930
    1STR    S0M 6835  12.478  16.859  12.429
    1STR    S0X 6836  13.666  17.395  13.361
    1STR    S14 6837  13.271   0.093  13.794
    1STR    S1B 6838  12.680  17.436  13.632
    1HEX    C01 6839  13.267   3.934  16.887
    1HEX    C02 6840  13.193   3.971  17.018
    1HEX    C03 6841  13.058   4.042  16.998
    1HEX    O04 6842  12.955   3.977  16.985
    1HEX    O05 6843  13.066   4.179  16.989
    1HEX    C06 6844  12.952   4.259  16.953
    1HEX    C07 6845  12.868   4.325  17.068
    1HEX    C08 6846  12.911   4.470  17.102
    1HEX    O09 6847  12.845   4.586  17.052
    1HEX    C0A 6848  12.778   4.664  17.141
    1HEX    O0B 6849  12.708   4.622  17.234
    1HEX    C0C 6850  12.808   4.813  17.129
    1HEX    C0D 6851  12.824   4.878  17.268
    1HEX    C0F 6852  12.718   4.330  17.027
    1HEX    O0G 6853  12.673   4.203  16.982
    1HEX    C0H 6854  12.628   4.188  16.856
    1HEX    O0I 6855  12.596   4.279  16.780
    1HEX    C0J 6856  12.624   4.043  16.813
    1HEX    C0K 6857  12.505   3.970  16.874
    1HEX    C0N 6858  12.885   4.241  17.198
    1HEX    O0O 6859  13.021   4.232  17.243
    1HEX    C0P 6860  13.089   4.344  17.303
    1HEX    C0Q 6861  13.150   4.302  17.437
    1HEX    C0R 6862  13.246   4.182  17.404
    1HEX    O0S 6863  13.299   4.179  17.268
    1HEX    C0T 6864  13.395   4.264  17.221
    1HEX    O0U 6865  13.455   4.345  17.291
    1HEX    C0V 6866  13.430   4.251  17.071
    1HEX    C0W 6867  13.340   4.330  16.969
    1HEX    C0Y 6868  13.230   4.424   0.058
    1HEX    O0Z 6869  13.155   4.530   0.120
    1HEX    C10 6870  13.222   4.644   0.158
    1HEX    O11 6871  13.339   4.669   0.130
    1HEX    C12 6872  13.142   4.738   0.251
    1HEX    C13 6873  13.198   4.882   0.277
    1HEX    C15 6874  13.021   4.264   0.078
    1HEX    O16 6875  13.017   4.223   0.214
    1HEX    C17 6876  12.902   4.157   0.251
    1HEX    O18 6877  12.833   4.086   0.178
    1HEX    C19 6878  12.852   4.189   0.391
    1HEX    C1A 6879  12.751   4.306   0.382
    1HEX    H1C 6880  13.485   3.990  16.810
    1HEX    H1D 6881  13.225   3.844  16.843
    1HEX    H1E 6882  13.256   4.011  16.812
    1HEX    H1F 6883  13.253   4.034  17.082
    1HEX    H1G 6884  13.176   3.880  17.076
    1HEX    H1H 6885  12.889   4.196  16.891
    1HEX    H1I 6886  12.982   4.338  16.884
    1HEX    H1J 6887  13.018   4.483  17.086
    1HEX    H1K 6888  12.893   4.479  17.208
    1HEX    H1M 6889  12.728   4.860  17.073
    1HEX    H1N 6890  12.900   4.824  17.071
    1HEX    H1O 6891  12.897   4.825  17.329
    1HEX    H1P 6892  12.729   4.874  17.323
    1HEX    H1Q 6893  13.003   5.030  17.221
    1HEX    H1R 6894  12.705   4.407  16.950
    1HEX    H1S 6895  12.656   4.363  17.111
    1HEX    H1T 6896  12.718   3.995  16.841
    1HEX    H1U 6897  12.619   4.041  16.704
    1HEX    H1V 6898  12.412   4.023  16.854
    1HEX    H1W 6899  12.516   3.965  16.983
    1HEX    H1X 6900  12.476   3.838  16.678
    1HEX    H1Y 6901  12.851   4.139  17.176
    1HEX    H1Z 6902  12.819   4.275  17.278
    1HEX    H20 6903  13.030   4.429  17.331
    1HEX    H21 6904  13.164   4.381  17.233
    1HEX    H22 6905  13.190   4.090  17.415
    1HEX    H23 6906  13.327   4.174   0.036
    1HEX    H24 6907  13.431   4.145  17.049
    1HEX    H25 6908  13.534   4.281  17.059
    1HEX    H26 6909  13.238   4.333  17.006
    1HEX    H27 6910  13.372   4.434  16.965
    1HEX    H29 6911  13.289   4.469  17.419
    1HEX    H2A 6912  13.304   4.388   0.130
    1HEX    H2B 6913  13.143   4.685   0.347
    1HEX    H2C 6914  13.037   4.740   0.220
    1HEX    H2D 6915  13.307   4.883   0.273
    1HEX    H2E 6916  13.174   4.910   0.380
    1HEX    H2G 6917  12.970   4.186   0.020
    1HEX    H2H 6918  12.953   4.349   0.076
    1HEX    H2I 6919  12.935   4.211   0.457
    1HEX    H2J 6920  12.802   4.100   0.428
    1HEX    H2K 6921  12.675   4.286   0.307
    1HEX    H2M 6922  12.802   4.397   0.352
    1HEX    H2N 6923  12.592   4.225   0.540
    1STR    S00 6924  13.445   3.912  16.912
    1STR    S0E 6925  12.875   5.052  17.253
    1STR    S0M 6926  12.497   3.802  16.805
    1STR    S0X 6927  13.339   4.261  16.795
    1STR    S14 6928  13.132   5.020   0.171
    1STR    S1B 6929  12.672   4.332   0.543
    1HEX    C01 6930  13.343   4.211   3.671
    1HEX    C02 6931  13.277   4.218   3.809
    1HEX    C03 6932  13.126   4.201   3.799
    1HEX    O04 6933  13.077   4.096   3.756
    1HEX    O05 6934  13.057   4.308   3.842
    1HEX    C06 6935  12.915   4.299   3.859
    1HEX    C07 6936  12.877   4.287   4.010
    1HEX    C08 6937  12.880   4.431   4.071
    1HEX    O09 6938  12.753   4.500   4.074
    1HEX    C0A 6939  12.691   4.523   4.193
    1HEX    O0B 6940  12.729   4.480   4.302
    1HEX    C0C 6941  12.570   4.617   4.184
    1HEX    C0D 6942  12.466   4.598   4.299
    1HEX    C0F 6943  12.733   4.229   4.022
    1HEX    O0G 6944  12.733   4.087   4.009
    1HEX    C0H 6945  12.703   4.026   3.894
    1HEX    O0I 6946  12.650   4.080   3.797
    1HEX    C0J 6947  12.745   3.878   3.890
    1HEX    C0K 6948  12.682   3.790   4.001
    1HEX    C0N 6949  12.969   4.184   4.084
    1HEX    O0O 6950  13.108   4.211   4.105
    1HEX    C0P 6951  13.156   4.302   4.204
    1HEX    C0Q 6952  13.125   4.277   4.355
    1HEX    C0R 6953  13.157   4.129   4.393
    1HEX    O0S 6954  13.298   4.104   4.392
    1HEX    C0T 6955  13.365   4.088   4.508
    1HEX    O0U 6956  13.316   4.089   4.621
    1HEX    C0V 6957  13.514   4.064   4.487
    1HEX    C0W 6958  13.596   4.194   4.480
    1HEX    C0Y 6959  13.218   4.373   4.433
    1HEX    O0Z 6960  13.193   4.363   4.572
    1HEX    C10 6961  13.275   4.422   4.657
    1HEX    O11 6962  13.376   4.486   4.627
    1HEX    C12 6963  13.231   4.402   4.801
    1HEX    C13 6964  13.335   4.452   4.902
    1HEX    C15 6965  12.979   4.315   4.392
    1HEX    O16 6966  12.940   4.283   4.525
    1HEX    C17 6967  12.857   4.180   4.549
    1HEX    O18 6968  12.821   4.095   4.468
    1HEX    C19 6969  12.804   4.183   4.691
    1HEX    C1A 6970  12.720   4.310   4.713
    1HEX    H1C 6971  13.554   4.211   3.562
    1HEX    H1D 6972  13.318   4.117   3.621
    1HEX    H1E 6973  13.307   4.291   3.607
    1HEX    H1F 6974  13.300   4.312   3.859
    1HEX    H1G 6975  13.314   4.138   3.873
    1HEX    H1H 6976  12.875   4.216   3.801
    1HEX    H1I 6977  12.870   4.387   3.815
    1HEX    H1J 6978  12.951   4.494   4.016
    1HEX    H1K 6979  12.922   4.430   4.170
    1HEX    H1M 6980  12.524   4.608   4.086
    1HEX    H1N 6981  12.611   4.718   4.190
    1HEX    H1O 6982  12.509   4.542   4.383
    1HEX    H1P 6983  12.438   4.694   4.341
    1HEX    H1R 6984  12.664   4.277   3.951
    1HEX    H1S 6985  12.692   4.251   4.121
    1HEX    H1T 6986  12.854   3.875   3.893
    1HEX    H1U 6987  12.717   3.839   3.792
    1HEX    H1V 6988  12.615   3.716   3.957
    1HEX    H1W 6989  12.621   3.852   4.066
    1HEX    H1Y 6990  12.973   4.096   4.020
    1HEX    H1Z 6991  12.924   4.143   4.174
    1HEX    H20 6992  13.135   4.404   4.174
    1HEX    H21 6993  13.264   4.294   4.192
    1HEX    H22 6994  13.108   4.060   4.324
    1HEX    H23 6995  13.115   4.106   4.491
    1HEX    H24 6996  13.525   4.008   4.395
    1HEX    H25 6997  13.551   4.000   4.567
    1HEX    H26 6998  13.550   4.266   4.413
    1HEX    H27 6999  13.696   4.173   4.440
    1HEX    H28 7000  13.504   4.340   4.644
    1HEX    H29 7001  13.202   4.477   4.403
    1HEX    H2A 7002  13.323   4.351   4.413
    1HEX    H2B 7003  13.211   4.296   4.815
    1HEX    H2C 7004  13.136   4.454   4.812
    1HEX    H2D 7005  13.367   4.553   4.877
    1HEX    H2E 7006  13.424   4.389   4.898
    1HEX    H2F 7007  13.166   4.539   5.045
    1HEX    H2G 7008  12.904   4.276   4.325
    1HEX    H2H 7009  12.968   4.423   4.386
    1HEX    H2I 7010  12.890   4.181   4.759
    1HEX    H2J 7011  12.746   4.093   4.710
    1HEX    H2K 7012  12.632   4.310   4.649
    1HEX    H2M 7013  12.778   4.398   4.687
    1HEX    H2N 7014  12.583   4.220   4.886
    1STR    S00 7015  13.523   4.224   3.691
    1STR    S0E 7016  12.312   4.514   4.246
    1STR    S0M 7017  12.802   3.700   4.109
    1STR    S0X 7018  13.618   4.270   4.644
    1STR    S14 7019  13.262   4.449   5.068
    1STR    S1B 7020  12.671   4.321   4.888
    1HEX    C01 7021  13.353   4.210   8.032
    1HEX    C02 7022  13.290   4.217   8.172
    1HEX    C03 7023  13.139   4.219   8.162
    1HEX    O04 7024  13.077   4.123   8.116
    1HEX    O05 7025  13.085   4.335   8.207
    1HEX    C06 7026  12.943   4.350   8.211
    1HEX    C07 7027  12.888   4.339   8.356
    1HEX    C08 7028  12.918   4.471   8.432
    1HEX    O09 7029  12.810   4.566   8.432
    1HEX    C0A 7030  12.731   4.580   8.543
    1HEX    O0B 7031  12.745   4.518   8.648
    1HEX    C0C 7032  12.621   4.684   8.526
    1HEX    C0D 7033  12.495   4.658   8.614
    1HEX    C0F 7034  12.733   4.321   8.349
    1HEX    O0G 7035  12.699   4.200   8.283
    1HEX    C0H 7036  12.643   4.202   8.161
    1HEX    O0I 7037  12.606   4.301   8.099
    1HEX    C0J 7038  12.631   4.062   8.102
    1HEX    C0K 7039  12.513   3.987   8.164
    1HEX    C0N 7040  12.943   4.210   8.428
    1HEX    O0O 7041  13.082   4.198   8.464
    1HEX    C0P 7042  13.147   4.283   8.559
    1HEX    C0Q 7043  13.117   4.268   8.712
    1HEX    C0R 7044  13.151   4.123   8.757
    1HEX    O0S 7045  13.292   4.098   8.754
    1HEX    C0T 7046  13.361   4.088   8.870
    1HEX    O0U 7047  13.315   4.094   8.984
    1HEX    C0V 7048  13.510   4.065   8.847
    1HEX    C0W 7049  13.593   4.195   8.839
    1HEX    C0Y 7050  13.210   4.368   8.785
    1HEX    O0Z 7051  13.188   4.362   8.925
    1HEX    C10 7052  13.272   4.421   9.008
    1HEX    O11 7053  13.373   4.483   8.976
    1HEX    C12 7054  13.229   4.402   9.153
    1HEX    C13 7055  13.334   4.452   9.253
    1HEX    C15 7056  12.971   4.307   8.751
    1HEX    O16 7057  12.935   4.280   8.885
    1HEX    C17 7058  12.856   4.176   8.915
    1HEX    O18 7059  12.823   4.086   8.839
    1HEX    C19 7060  12.806   4.182   9.059
    1HEX    C1A 7061  12.724   4.310   9.080
    1HEX    H1C 7062  13.562   4.208   7.918
    1HEX    H1D 7063  13.324   4.118   7.981
    1HEX    H1E 7064  13.319   4.293   7.970
    1HEX    H1F 7065  13.324   4.305   8.226
    1HEX    H1G 7066  13.319   4.130   8.231
    1HEX    H1H 7067  12.896   4.277   8.145
    1HEX    H1I 7068  12.917   4.446   8.168
    1HEX    H1J 7069  13.006   4.520   8.389
    1HEX    H1K 7070  12.945   4.451   8.534
    1HEX    H1M 7071  12.595   4.693   8.421
    1HEX    H1N 7072  12.667   4.779   8.554
    1HEX    H1O 7073  12.523   4.633   8.716
    1HEX    H1P 7074  12.437   4.750   8.620
    1HEX    H1R 7075  12.686   4.407   8.300
    1HEX    H1S 7076  12.691   4.318   8.449
    1HEX    H1T 7077  12.725   4.010   8.121
    1HEX    H1U 7078  12.620   4.072   7.994
    1HEX    H1V 7079  12.420   4.040   8.145
    1HEX    H1W 7080  12.525   3.981   8.272
    1HEX    H1X 7081  12.489   3.857   7.966
    1HEX    H1Y 7082  12.930   4.128   8.357
    1HEX    H1Z 7083  12.878   4.177   8.508
    1HEX    H20 7084  13.146   4.387   8.527
    1HEX    H21 7085  13.252   4.256   8.547
    1HEX    H22 7086  13.100   4.051   8.693
    1HEX    H23 7087  13.111   4.104   8.857
    1HEX    H24 7088  13.521   4.009   8.754
    1HEX    H25 7089  13.548   4.000   8.926
    1HEX    H26 7090  13.545   4.267   8.773
    1HEX    H27 7091  13.691   4.174   8.798
    1HEX    H28 7092  13.503   4.341   9.004
    1HEX    H29 7093  13.193   4.471   8.752
    1HEX    H2A 7094  13.315   4.347   8.764
    1HEX    H2B 7095  13.209   4.296   9.168
    1HEX    H2C 7096  13.135   4.455   9.165
    1HEX    H2D 7097  13.366   4.553   9.228
    1HEX    H2E 7098  13.423   4.389   9.248
    1HEX    H2F 7099  13.168   4.539   9.399
    1HEX    H2G 7100  12.896   4.265   8.686
    1HEX    H2H 7101  12.959   4.415   8.742
    1HEX    H2I 7102  12.893   4.180   9.125
    1HEX    H2J 7103  12.747   4.093   9.079
    1HEX    H2K 7104  12.637   4.312   9.014
    1HEX    H2M 7105  12.784   4.398   9.054
    1HEX    H2N 7106  12.586   4.220   9.251
    1STR    S00 7107  13.534   4.217   8.048
    1STR    S0E 7108  12.384   4.529   8.547
    1STR    S0M 7109  12.507   3.820   8.093
    1STR    S0X 7110  13.617   4.270   9.003
    1STR    S14 7111  13.264   4.449   9.420
    1STR    S1B 7112  12.671   4.322   9.253
    1HEX    C01 7113  13.415   4.272  12.315
    1HEX    C02 7114  13.385   4.354  12.440
    1HEX    C03 7115  13.239   4.393  12.453
    1HEX    O04 7116  13.165   4.407  12.355
    1HEX    O05 7117  13.205   4.409  12.580
    1HEX    C06 7118  13.076   4.455  12.615
    1HEX    C07 7119  13.033   4.391  12.749
    1HEX    C08 7120  12.902   4.468  12.795
    1HEX    O09 7121  12.923   4.612  12.790
    1HEX    C0A 7122  12.868   4.701  12.879
    1HEX    O0B 7123  12.794   4.669  12.973
    1HEX    C0C 7124  12.902   4.849  12.850
    1HEX    C0D 7125  12.886   4.949  12.971
    1HEX    C0F 7126  13.026   4.232  12.728
    1HEX    O0G 7127  13.144   4.159  12.782
    1HEX    C0H 7128  13.256   4.126  12.709
    1HEX    O0I 7129  13.255   4.122  12.586
    1HEX    C0J 7130  13.380   4.069  12.788
    1HEX    C0K 7131  13.478   4.155  12.882
    1HEX    C0N 7132  13.137   4.401  12.861
    1HEX    O0O 7133  13.141   4.508  12.951
    1HEX    C0P 7134  13.224   4.470  13.061
    1HEX    C0Q 7135  13.154   4.383  13.172
    1HEX    C0R 7136  13.174   4.228  13.161
    1HEX    O0S 7137  13.309   4.185  13.178
    1HEX    C0T 7138  13.333   4.075  13.255
    1HEX    O0U 7139  13.247   4.004  13.306
    1HEX    C0V 7140  13.481   4.043  13.273
    1HEX    C0W 7141  13.563   4.159  13.331
    1HEX    C0Y 7142  13.224   4.430  13.301
    1HEX    O0Z 7143  13.176   4.372  13.421
    1HEX    C10 7144  13.242   4.404  13.532
    1HEX    O11 7145  13.349   4.465  13.534
    1HEX    C12 7146  13.170   4.363  13.659
    1HEX    C13 7147  13.244   4.412  13.785
    1HEX    C15 7148  13.002   4.415  13.175
    1HEX    O16 7149  12.935   4.364  13.289
    1HEX    C17 7150  12.865   4.249  13.285
    1HEX    O18 7151  12.848   4.177  13.187
    1HEX    C19 7152  12.804   4.214  13.421
    1HEX    C1A 7153  12.709   4.326  13.466
    1HEX    H1C 7154  13.593   4.158  12.206
    1HEX    H1D 7155  13.345   4.189  12.305
    1HEX    H1E 7156  13.404   4.335  12.226
    1HEX    H1F 7157  13.446   4.445  12.445
    1HEX    H1G 7158  13.412   4.296  12.528
    1HEX    H1H 7159  13.002   4.432  12.538
    1HEX    H1I 7160  13.081   4.564  12.620
    1HEX    H1J 7161  12.870   4.438  12.894
    1HEX    H1K 7162  12.818   4.445  12.730
    1HEX    H1M 7163  12.839   4.883  12.768
    1HEX    H1N 7164  13.004   4.852  12.813
    1HEX    H1O 7165  12.886   4.893  13.064
    1HEX    H1P 7166  12.788   4.998  12.967
    1HEX    H1R 7167  13.009   4.206  12.624
    1HEX    H1S 7168  12.939   4.194  12.781
    1HEX    H1T 7169  13.439   4.012  12.716
    1HEX    H1U 7170  13.333   3.992  12.850
    1HEX    H1V 7171  13.494   4.091  12.969
    1HEX    H1W 7172  13.425   4.241  12.923
    1HEX    H1Y 7173  13.236   4.380  12.822
    1HEX    H1Z 7174  13.108   4.321  12.927
    1HEX    H20 7175  13.257   4.566  13.101
    1HEX    H21 7176  13.317   4.422  13.028
    1HEX    H22 7177  13.133   4.181  13.072
    1HEX    H23 7178  13.113   4.184  13.240
    1HEX    H24 7179  13.521   4.014  13.176
    1HEX    H25 7180  13.490   3.955  13.337
    1HEX    H26 7181  13.548   4.249  13.272
    1HEX    H27 7182  13.668   4.133  13.324
    1HEX    H28 7183  13.454   4.304  13.487
    1HEX    H29 7184  13.214   4.538  13.312
    1HEX    H2A 7185  13.331   4.409  13.292
    1HEX    H2B 7186  13.156   4.255  13.660
    1HEX    H2C 7187  13.070   4.408  13.653
    1HEX    H2D 7188  13.295   4.507  13.766
    1HEX    H2E 7189  13.323   4.342  13.812
    1HEX    H2G 7190  12.953   4.376  13.085
    1HEX    H2H 7191  12.985   4.522  13.171
    1HEX    H2I 7192  12.887   4.203  13.491
    1HEX    H2J 7193  12.754   4.118  13.415
    1HEX    H2K 7194  12.620   4.328  13.403
    1HEX    H2M 7195  12.758   4.423  13.456
    1HEX    H2N 7196  12.584   4.196  13.622
    1STR    S00 7197  13.586   4.211  12.328
    1STR    S0E 7198  13.018   5.079  12.986
    1STR    S0M 7199  13.656   4.205  12.834
    1STR    S0X 7200  13.523   4.190  13.505
    1STR    S14 7201  13.129   4.442  13.923
    1STR    S1B 7202  12.664   4.302  13.640
    1HEX    C01 7203  13.304   8.600  16.779
    1HEX    C02 7204  13.252   8.629  16.921
    1HEX    C03 7205  13.099   8.638  16.928
    1HEX    O04 7206  13.029   8.567  16.858
    1HEX    O05 7207  13.054   8.726  17.023
    1HEX    C06 7208  12.919   8.720  17.071
    1HEX    C07 7209  12.907   8.668  17.220
    1HEX    C08 7210  12.921   8.795  17.327
    1HEX    O09 7211  12.844   8.789   0.015
    1HEX    C0A 7212  12.842   8.865   0.143
    1HEX    O0B 7213  12.735   8.877   0.200
    1HEX    C0C 7214  12.968   8.924   0.223
    1HEX    C0D 7215  12.952   8.973   0.379
    1HEX    C0F 7216  12.765   8.597  17.236
    1HEX    O0G 7217  12.770   8.451  17.236
    1HEX    C0H 7218  12.752   8.377  17.123
    1HEX    O0I 7219  12.704   8.423  17.020
    1HEX    C0J 7220  12.807   8.231  17.125
    1HEX    C0K 7221  12.825   8.154  17.260
    1HEX    C0N 7222  13.008   8.545  17.223
    1HEX    O0O 7223  13.148   8.559  17.215
    1HEX    C0P 7224  13.214   8.623  17.321
    1HEX    C0Q 7225  13.186   8.580   0.028
    1HEX    C0R 7226  13.223   8.432   0.050
    1HEX    O0S 7227  13.363   8.415   0.045
    1HEX    C0T 7228  13.433   8.404   0.160
    1HEX    O0U 7229  13.386   8.395   0.273
    1HEX    C0V 7230  13.582   8.402   0.136
    1HEX    C0W 7231  13.644   8.543   0.122
    1HEX    C0Y 7232  13.275   8.679   0.104
    1HEX    O0Z 7233  13.255   8.655   0.240
    1HEX    C10 7234  13.307   8.733   0.329
    1HEX    O11 7235  13.367   8.839   0.307
    1HEX    C12 7236  13.286   8.674   0.465
    1HEX    C13 7237  13.372   8.741   0.570
    1HEX    C15 7238  13.042   8.601   0.083
    1HEX    O16 7239  13.004   8.550   0.211
    1HEX    C17 7240  12.880   8.498   0.227
    1HEX    O18 7241  12.807   8.456   0.137
    1HEX    C19 7242  12.832   8.500   0.371
    1HEX    C1A 7243  12.749   8.627   0.397
    1HEX    H1C 7244  13.507   8.567  16.655
    1HEX    H1D 7245  13.265   8.505  16.741
    1HEX    H1E 7246  13.273   8.678  16.709
    1HEX    H1F 7247  13.295   8.720  16.960
    1HEX    H1G 7248  13.282   8.548  16.987
    1HEX    H1H 7249  12.861   8.654  17.005
    1HEX    H1I 7250  12.873   8.817  17.057
    1HEX    H1J 7251  12.885   8.885  17.276
    1HEX    H1K 7252  13.024   8.820  17.345
    1HEX    H1M 7253  12.989   9.014   0.166
    1HEX    H1N 7254  13.059   8.866   0.215
    1HEX    H1O 7255  13.011   9.064   0.389
    1HEX    H1P 7256  12.849   9.007   0.394
    1HEX    H1R 7257  12.694   8.633  17.161
    1HEX    H1S 7258  12.720   8.625  17.331
    1HEX    H1T 7259  12.904   8.237  17.075
    1HEX    H1U 7260  12.744   8.174  17.057
    1HEX    H1V 7261  12.727   8.137  17.306
    1HEX    H1W 7262  12.883   8.213  17.331
    1HEX    H1Y 7263  12.989   8.489  17.132
    1HEX    H1Z 7264  12.988   8.468  17.297
    1HEX    H20 7265  13.206   8.731  17.304
    1HEX    H21 7266  13.319   8.602  17.299
    1HEX    H22 7267  13.175   8.369  17.415
    1HEX    H23 7268  13.182   8.397   0.146
    1HEX    H24 7269  13.599   8.345   0.045
    1HEX    H25 7270  13.629   8.347   0.218
    1HEX    H26 7271  13.590   8.602   0.048
    1HEX    H27 7272  13.746   8.534   0.086
    1HEX    H28 7273  13.521   8.673   0.282
    1HEX    H29 7274  13.250   8.783   0.081
    1HEX    H2A 7275  13.381   8.668   0.079
    1HEX    H2B 7276  13.310   8.567   0.459
    1HEX    H2C 7277  13.180   8.679   0.488
    1HEX    H2D 7278  13.355   8.848   0.568
    1HEX    H2E 7279  13.478   8.724   0.549
    1HEX    H2F 7280  13.226   8.758   0.753
    1HEX    H2G 7281  12.962   8.579   0.016
    1HEX    H2H 7282  13.036   8.706   0.095
    1HEX    H2I 7283  12.918   8.495   0.438
    1HEX    H2J 7284  12.771   8.411   0.387
    1HEX    H2K 7285  12.668   8.637   0.324
    1HEX    H2M 7286  12.811   8.715   0.385
    1HEX    H2N 7287  12.576   8.545   0.539
    1STR    S00 7288  13.486   8.592  16.785
    1STR    S0E 7289  12.999   8.872   0.537
    1STR    S0M 7290  12.907   7.987  17.236
    1STR    S0X 7291  13.649   8.632   0.280
    1STR    S14 7292  13.325   8.670   0.731
    1STR    S1B 7293  12.681   8.624   0.565
    1HEX    C01 7294  13.279   8.501   3.626
    1HEX    C02 7295  13.289   8.555   3.770
    1HEX    C03 7296  13.149   8.555   3.828
    1HEX    O04 7297  13.089   8.448   3.843
    1HEX    O05 7298  13.098   8.678   3.846
    1HEX    C06 7299  12.957   8.694   3.851
    1HEX    C07 7300  12.899   8.700   3.994
    1HEX    C08 7301  12.948   8.830   4.062
    1HEX    O09 7302  12.883   8.950   4.024
    1HEX    C0A 7303  12.815   9.020   4.117
    1HEX    O0B 7304  12.768   8.973   4.221
    1HEX    C0C 7305  12.808   9.169   4.086
    1HEX    C0D 7306  12.821   9.252   4.215
    1HEX    C0F 7307  12.744   8.704   3.984
    1HEX    O0G 7308  12.697   8.581   3.928
    1HEX    C0H 7309  12.646   8.577   3.804
    1HEX    O0I 7310  12.611   8.674   3.737
    1HEX    C0J 7311  12.638   8.435   3.749
    1HEX    C0K 7312  12.518   8.360   3.807
    1HEX    C0N 7313  12.934   8.572   4.077
    1HEX    O0O 7314  13.068   8.547   4.121
    1HEX    C0P 7315  13.142   8.631   4.211
    1HEX    C0Q 7316  13.112   8.623   4.364
    1HEX    C0R 7317  13.145   8.480   4.413
    1HEX    O0S 7318  13.286   8.455   4.406
    1HEX    C0T 7319  13.360   8.448   4.519
    1HEX    O0U 7320  13.317   8.458   4.634
    1HEX    C0V 7321  13.508   8.424   4.492
    1HEX    C0W 7322  13.590   8.554   4.481
    1HEX    C0Y 7323  13.205   8.727   4.432
    1HEX    O0Z 7324  13.183   8.724   4.571
    1HEX    C10 7325  13.270   8.781   4.653
    1HEX    O11 7326  13.372   8.841   4.619
    1HEX    C12 7327  13.229   8.764   4.798
    1HEX    C13 7328  13.336   8.814   4.896
    1HEX    C15 7329  12.966   8.664   4.398
    1HEX    O16 7330  12.928   8.643   4.534
    1HEX    C17 7331  12.854   8.536   4.568
    1HEX    O18 7332  12.822   8.443   4.494
    1HEX    C19 7333  12.806   8.544   4.711
    1HEX    C1A 7334  12.723   8.671   4.732
    1HEX    H1D 7335  13.337   8.409   3.615
    1HEX    H1E 7336  13.177   8.471   3.603
    1HEX    H1F 7337  13.331   8.655   3.775
    1HEX    H1G 7338  13.351   8.490   3.832
    1HEX    H1H 7339  12.911   8.615   3.792
    1HEX    H1I 7340  12.933   8.786   3.797
    1HEX    H1J 7341  13.052   8.846   4.036
    1HEX    H1K 7342  12.944   8.818   4.170
    1HEX    H1M 7343  12.716   9.192   4.032
    1HEX    H1N 7344  12.891   9.192   4.019
    1HEX    H1O 7345  12.895   9.209   4.282
    1HEX    H1P 7346  12.726   9.252   4.269
    1HEX    H1Q 7347  12.996   9.397   4.144
    1HEX    H1R 7348  12.710   8.791   3.926
    1HEX    H1S 7349  12.699   8.717   4.082
    1HEX    H1T 7350  12.731   8.384   3.773
    1HEX    H1U 7351  12.631   8.441   3.641
    1HEX    H1V 7352  12.424   8.411   3.783
    1HEX    H1W 7353  12.525   8.355   3.916
    1HEX    H1X 7354  12.500   8.224   3.611
    1HEX    H1Y 7355  12.913   8.487   4.012
    1HEX    H1Z 7356  12.860   8.553   4.154
    1HEX    H20 7357  13.150   8.733   4.177
    1HEX    H21 7358  13.244   8.595   4.198
    1HEX    H22 7359  13.093   8.406   4.352
    1HEX    H23 7360  13.109   8.465   4.515
    1HEX    H24 7361  13.515   8.368   4.399
    1HEX    H25 7362  13.548   8.360   4.570
    1HEX    H26 7363  13.542   8.626   4.415
    1HEX    H27 7364  13.688   8.532   4.438
    1HEX    H28 7365  13.503   8.700   4.647
    1HEX    H29 7366  13.187   8.828   4.396
    1HEX    H2A 7367  13.310   8.705   4.410
    1HEX    H2B 7368  13.209   8.658   4.815
    1HEX    H2C 7369  13.135   8.817   4.812
    1HEX    H2D 7370  13.368   8.915   4.871
    1HEX    H2E 7371  13.425   8.750   4.891
    1HEX    H2F 7372  13.170   8.901   5.043
    1HEX    H2G 7373  12.893   8.613   4.337
    1HEX    H2H 7374  12.950   8.770   4.380
    1HEX    H2I 7375  12.893   8.542   4.777
    1HEX    H2J 7376  12.747   8.454   4.733
    1HEX    H2K 7377  12.638   8.673   4.663
    1HEX    H2M 7378  12.784   8.760   4.710
    1HEX    H2N 7379  12.581   8.576   4.897
    1STR    S00 7380  13.333   8.623   3.502
    1STR    S0E 7381  12.869   9.423   4.176
    1STR    S0M 7382  12.516   8.191   3.740
    1STR    S0X 7383  13.618   8.630   4.644
    1STR    S14 7384  13.267   8.812   5.064
    1STR    S1B 7385  12.665   8.680   4.903
    1HEX    C01 7386  13.358   8.566   8.030
    1HEX    C02 7387  13.296   8.569   8.169
    1HEX    C03 7388  13.145   8.570   8.160
    1HEX    O04 7389  13.083   8.470   8.122
    1HEX    O05 7390  13.092   8.688   8.194
    1HEX    C06 7391  12.951   8.704   8.200
    1HEX    C07 7392  12.900   8.701   8.346
    1HEX    C08 7393  12.950   8.829   8.416
    1HEX    O09 7394  12.884   8.950   8.380
    1HEX    C0A 7395  12.817   9.019   8.475
    1HEX    O0B 7396  12.772   8.971   8.579
    1HEX    C0C 7397  12.809   9.168   8.446
    1HEX    C0D 7398  12.821   9.250   8.575
    1HEX    C0F 7399  12.745   8.700   8.346
    1HEX    O0G 7400  12.698   8.578   8.290
    1HEX    C0H 7401  12.646   8.575   8.166
    1HEX    O0I 7402  12.613   8.672   8.099
    1HEX    C0J 7403  12.636   8.433   8.111
    1HEX    C0K 7404  12.516   8.358   8.169
    1HEX    C0N 7405  12.946   8.571   8.421
    1HEX    O0O 7406  13.082   8.553   8.464
    1HEX    C0P 7407  13.148   8.634   8.563
    1HEX    C0Q 7408  13.113   8.623   8.715
    1HEX    C0R 7409  13.146   8.479   8.764
    1HEX    O0S 7410  13.287   8.455   8.759
    1HEX    C0T 7411  13.359   8.447   8.874
    1HEX    O0U 7412  13.314   8.456   8.988
    1HEX    C0V 7413  13.508   8.424   8.849
    1HEX    C0W 7414  13.590   8.554   8.840
    1HEX    C0Y 7415  13.203   8.725   8.788
    1HEX    O0Z 7416  13.181   8.721   8.927
    1HEX    C10 7417  13.268   8.779   9.010
    1HEX    O11 7418  13.369   8.840   8.976
    1HEX    C12 7419  13.227   8.761   9.155
    1HEX    C13 7420  13.334   8.812   9.253
    1HEX    C15 7421  12.965   8.661   8.747
    1HEX    O16 7422  12.927   8.641   8.883
    1HEX    C17 7423  12.853   8.535   8.919
    1HEX    O18 7424  12.820   8.442   8.846
    1HEX    C19 7425  12.808   8.543   9.064
    1HEX    C1A 7426  12.726   8.671   9.087
    1HEX    H1C 7427  13.566   8.569   7.915
    1HEX    H1D 7428  13.329   8.475   7.977
    1HEX    H1E 7429  13.322   8.651   7.971
    1HEX    H1F 7430  13.329   8.656   8.225
    1HEX    H1G 7431  13.326   8.481   8.227
    1HEX    H1H 7432  12.901   8.629   8.138
    1HEX    H1I 7433  12.924   8.799   8.153
    1HEX    H1J 7434  13.054   8.847   8.389
    1HEX    H1K 7435  12.947   8.816   8.523
    1HEX    H1M 7436  12.717   9.191   8.392
    1HEX    H1N 7437  12.892   9.192   8.379
    1HEX    H1O 7438  12.896   9.207   8.642
    1HEX    H1P 7439  12.726   9.249   8.629
    1HEX    H1Q 7440  12.995   9.398   8.505
    1HEX    H1R 7441  12.705   8.787   8.294
    1HEX    H1S 7442  12.706   8.708   8.448
    1HEX    H1T 7443  12.729   8.381   8.134
    1HEX    H1U 7444  12.629   8.439   8.003
    1HEX    H1V 7445  12.423   8.410   8.146
    1HEX    H1W 7446  12.523   8.353   8.278
    1HEX    H1X 7447  12.496   8.224   7.973
    1HEX    H1Y 7448  12.931   8.489   8.351
    1HEX    H1Z 7449  12.876   8.543   8.499
    1HEX    H20 7450  13.156   8.738   8.533
    1HEX    H21 7451  13.252   8.602   8.554
    1HEX    H22 7452  13.095   8.405   8.702
    1HEX    H23 7453  13.108   8.463   8.865
    1HEX    H24 7454  13.517   8.368   8.756
    1HEX    H25 7455  13.547   8.360   8.928
    1HEX    H26 7456  13.542   8.627   8.774
    1HEX    H27 7457  13.688   8.533   8.798
    1HEX    H28 7458  13.501   8.701   9.005
    1HEX    H29 7459  13.184   8.827   8.754
    1HEX    H2A 7460  13.309   8.706   8.767
    1HEX    H2B 7461  13.207   8.655   9.172
    1HEX    H2C 7462  13.133   8.814   9.169
    1HEX    H2D 7463  13.366   8.913   9.227
    1HEX    H2E 7464  13.423   8.748   9.247
    1HEX    H2F 7465  13.170   8.900   9.401
    1HEX    H2G 7466  12.894   8.609   8.685
    1HEX    H2H 7467  12.949   8.767   8.729
    1HEX    H2I 7468  12.896   8.541   9.127
    1HEX    H2J 7469  12.749   8.454   9.087
    1HEX    H2K 7470  12.640   8.674   9.020
    1HEX    H2M 7471  12.786   8.759   9.065
    1HEX    H2N 7472  12.585   8.575   9.253
    1STR    S00 7473  13.539   8.574   8.046
    1STR    S0E 7474  12.868   9.422   8.537
    1STR    S0M 7475  12.512   8.190   8.101
    1STR    S0X 7476  13.615   8.630   9.003
    1STR    S14 7477  13.266   8.810   9.421
    1STR    S1B 7478  12.670   8.678   9.259
    1HEX    C01 7479  13.350   8.568  12.386
    1HEX    C02 7480  13.286   8.569  12.525
    1HEX    C03 7481  13.135   8.552  12.515
    1HEX    O04 7482  13.085   8.445  12.481
    1HEX    O05 7483  13.068   8.663  12.549
    1HEX    C06 7484  12.928   8.657  12.570
    1HEX    C07 7485  12.896   8.655  12.722
    1HEX    C08 7486  12.928   8.795  12.779
    1HEX    O09 7487  12.846   8.906  12.742
    1HEX    C0A 7488  12.807   8.990  12.840
    1HEX    O0B 7489  12.780   8.956  12.956
    1HEX    C0C 7490  12.807   9.137  12.799
    1HEX    C0D 7491  12.819   9.230  12.922
    1HEX    C0F 7492  12.746   8.618  12.744
    1HEX    O0G 7493  12.730   8.475  12.743
    1HEX    C0H 7494  12.696   8.409  12.631
    1HEX    O0I 7495  12.646   8.462  12.532
    1HEX    C0J 7496  12.733   8.260  12.630
    1HEX    C0K 7497  12.738   8.184  12.765
    1HEX    C0N 7498  12.979   8.544  12.797
    1HEX    O0O 7499  13.118   8.566  12.825
    1HEX    C0P 7500  13.164   8.653  12.929
    1HEX    C0Q 7501  13.123   8.633  13.078
    1HEX    C0R 7502  13.153   8.486  13.121
    1HEX    O0S 7503  13.293   8.460  13.118
    1HEX    C0T 7504  13.363   8.448  13.234
    1HEX    O0U 7505  13.316   8.454  13.347
    1HEX    C0V 7506  13.511   8.424  13.210
    1HEX    C0W 7507  13.594   8.553  13.201
    1HEX    C0Y 7508  13.213   8.731  13.158
    1HEX    O0Z 7509  13.188   8.722  13.297
    1HEX    C10 7510  13.271   8.781  13.381
    1HEX    O11 7511  13.371   8.846  13.349
    1HEX    C12 7512  13.229   8.762  13.526
    1HEX    C13 7513  13.335   8.812  13.625
    1HEX    C15 7514  12.975   8.673  13.109
    1HEX    O16 7515  12.934   8.647  13.243
    1HEX    C17 7516  12.855   8.542  13.271
    1HEX    O18 7517  12.820   8.455  13.192
    1HEX    C19 7518  12.808   8.543  13.416
    1HEX    C1A 7519  12.726   8.670  13.443
    1HEX    H1C 7520  13.560   8.572  12.275
    1HEX    H1D 7521  13.324   8.476  12.333
    1HEX    H1E 7522  13.313   8.651  12.326
    1HEX    H1F 7523  13.308   8.661  12.579
    1HEX    H1G 7524  13.324   8.487  12.586
    1HEX    H1H 7525  12.883   8.573  12.517
    1HEX    H1I 7526  12.883   8.746  12.524
    1HEX    H1J 7527  13.028   8.824  12.746
    1HEX    H1K 7528  12.933   8.788  12.886
    1HEX    H1M 7529  12.718   9.160  12.741
    1HEX    H1N 7530  12.893   9.152  12.734
    1HEX    H1O 7531  12.894   9.193  12.992
    1HEX    H1P 7532  12.724   9.232  12.977
    1HEX    H1Q 7533  12.994   9.378  12.854
    1HEX    H1R 7534  12.681   8.668  12.671
    1HEX    H1S 7535  12.713   8.654  12.841
    1HEX    H1T 7536  12.831   8.257  12.582
    1HEX    H1U 7537  12.666   8.210  12.560
    1HEX    H1V 7538  12.654   8.114  12.771
    1HEX    H1W 7539  12.730   8.249  12.852
    1HEX    H1Y 7540  12.979   8.456  12.733
    1HEX    H1Z 7541  12.929   8.505  12.886
    1HEX    H20 7542  13.155   8.758  12.901
    1HEX    H21 7543  13.272   8.637  12.924
    1HEX    H22 7544  13.103   8.416  13.054
    1HEX    H23 7545  13.112   8.466  13.220
    1HEX    H24 7546  13.521   8.367  13.118
    1HEX    H25 7547  13.549   8.360  13.290
    1HEX    H26 7548  13.547   8.625  13.133
    1HEX    H27 7549  13.692   8.531  13.160
    1HEX    H28 7550  13.502   8.699  13.365
    1HEX    H29 7551  13.197   8.834  13.127
    1HEX    H2A 7552  13.318   8.710  13.139
    1HEX    H2B 7553  13.210   8.655  13.541
    1HEX    H2C 7554  13.134   8.814  13.539
    1HEX    H2D 7555  13.366   8.913  13.599
    1HEX    H2E 7556  13.423   8.749  13.620
    1HEX    H2F 7557  13.168   8.901  13.770
    1HEX    H2G 7558  12.902   8.630  13.042
    1HEX    H2H 7559  12.964   8.781  13.098
    1HEX    H2I 7560  12.896   8.539  13.480
    1HEX    H2J 7561  12.750   8.453  13.435
    1HEX    H2K 7562  12.639   8.674  13.377
    1HEX    H2M 7563  12.785   8.759  13.422
    1HEX    H2N 7564  12.587   8.572  13.610
    1STR    S00 7565  13.530   8.580  12.405
    1STR    S0E 7566  12.863   9.399  12.872
    1STR    S0M 7567  12.893   8.086  12.776
    1STR    S0X 7568  13.618   8.631  13.363
    1STR    S14 7569  13.264   8.810  13.792
    1STR    S1B 7570  12.673   8.674  13.616
    1HEX    C01 7571  13.358  12.926  16.749
    1HEX    C02 7572  13.296  12.929  16.889
    1HEX    C03 7573  13.145  12.930  16.880
    1HEX    O04 7574  13.083  12.830  16.842
    1HEX    O05 7575  13.092  13.048  16.914
    1HEX    C06 7576  12.951  13.064  16.919
    1HEX    C07 7577  12.900  13.061  17.066
    1HEX    C08 7578  12.950  13.190  17.136
    1HEX    O09 7579  12.884  13.310  17.100
    1HEX    C0A 7580  12.817  13.379  17.195
    1HEX    O0B 7581  12.772  13.331  17.299
    1HEX    C0C 7582  12.809  13.528  17.166
    1HEX    C0D 7583  12.821  13.610  17.295
    1HEX    C0F 7584  12.745  13.061  17.066
    1HEX    O0G 7585  12.698  12.938  17.010
    1HEX    C0H 7586  12.646  12.935  16.886
    1HEX    O0I 7587  12.613  13.032  16.819
    1HEX    C0J 7588  12.636  12.793  16.831
    1HEX    C0K 7589  12.516  12.718  16.889
    1HEX    C0N 7590  12.946  12.931  17.141
    1HEX    O0O 7591  13.082  12.914  17.184
    1HEX    C0P 7592  13.148  12.995  17.283
    1HEX    C0Q 7593  13.113  12.983  17.435
    1HEX    C0R 7594  13.147  12.839   0.044
    1HEX    O0S 7595  13.288  12.815   0.039
    1HEX    C0T 7596  13.359  12.807   0.154
    1HEX    O0U 7597  13.315  12.816   0.268
    1HEX    C0V 7598  13.508  12.784   0.129
    1HEX    C0W 7599  13.590  12.915   0.120
    1HEX    C0Y 7600  13.203  13.086   0.068
    1HEX    O0Z 7601  13.181  13.081   0.208
    1HEX    C10 7602  13.268  13.139   0.290
    1HEX    O11 7603  13.369  13.200   0.256
    1HEX    C12 7604  13.227  13.122   0.435
    1HEX    C13 7605  13.334  13.172   0.533
    1HEX    C15 7606  12.965  13.021   0.027
    1HEX    O16 7607  12.927  13.001   0.163
    1HEX    C17 7608  12.853  12.895   0.199
    1HEX    O18 7609  12.820  12.802   0.126
    1HEX    C19 7610  12.808  12.903   0.344
    1HEX    C1A 7611  12.726  13.031   0.367
    1HEX    H1C 7612  13.566  12.929  16.635
    1HEX    H1D 7613  13.329  12.835  16.697
    1HEX    H1E 7614  13.322  13.011  16.690
    1HEX    H1F 7615  13.329  13.016  16.945
    1HEX    H1G 7616  13.326  12.841  16.947
    1HEX    H1H 7617  12.901  12.989  16.858
    1HEX    H1I 7618  12.924  13.159  16.873
    1HEX    H1J 7619  13.054  13.207  17.109
    1HEX    H1K 7620  12.947  13.176  17.243
    1HEX    H1M 7621  12.718  13.551  17.112
    1HEX    H1N 7622  12.892  13.552  17.099
    1HEX    H1O 7623  12.896  13.568  17.363
    1HEX    H1P 7624  12.726  13.609  17.350
    1HEX    H1Q 7625  12.995  13.758  17.225
    1HEX    H1R 7626  12.705  13.148  17.014
    1HEX    H1S 7627  12.706  13.069  17.168
    1HEX    H1T 7628  12.729  12.741  16.854
    1HEX    H1U 7629  12.629  12.800  16.723
    1HEX    H1V 7630  12.423  12.770  16.866
    1HEX    H1W 7631  12.523  12.713  16.998
    1HEX    H1X 7632  12.496  12.584  16.693
    1HEX    H1Y 7633  12.931  12.849  17.071
    1HEX    H1Z 7634  12.876  12.903  17.219
    1HEX    H20 7635  13.156  13.098  17.253
    1HEX    H21 7636  13.252  12.962  17.274
    1HEX    H22 7637  13.095  12.765  17.422
    1HEX    H23 7638  13.108  12.823   0.145
    1HEX    H24 7639  13.517  12.729   0.036
    1HEX    H25 7640  13.547  12.720   0.208
    1HEX    H26 7641  13.542  12.987   0.054
    1HEX    H27 7642  13.688  12.893   0.078
    1HEX    H28 7643  13.501  13.061   0.285
    1HEX    H29 7644  13.184  13.187   0.034
    1HEX    H2A 7645  13.308  13.066   0.047
    1HEX    H2B 7646  13.207  13.016   0.452
    1HEX    H2C 7647  13.133  13.175   0.449
    1HEX    H2D 7648  13.366  13.273   0.507
    1HEX    H2E 7649  13.423  13.109   0.527
    1HEX    H2F 7650  13.170  13.261   0.681
    1HEX    H2G 7651  12.894  12.969  17.405
    1HEX    H2H 7652  12.949  13.127   0.009
    1HEX    H2I 7653  12.896  12.901   0.408
    1HEX    H2J 7654  12.749  12.814   0.367
    1HEX    H2K 7655  12.640  13.034   0.300
    1HEX    H2M 7656  12.786  13.119   0.345
    1HEX    H2N 7657  12.585  12.935   0.533
    1STR    S00 7658  13.539  12.935  16.765
    1STR    S0E 7659  12.867  13.782  17.257
    1STR    S0M 7660  12.512  12.550  16.821
    1STR    S0X 7661  13.615  12.990   0.283
    1STR    S14 7662  13.266  13.170   0.701
    1STR    S1B 7663  12.670  13.038   0.539
    1HEX    C01 7664  13.358  12.926   3.669
    1HEX    C02 7665  13.296  12.929   3.809
    1HEX    C03 7666  13.145  12.930   3.800
    1HEX    O04 7667  13.083  12.830   3.762
    1HEX    O05 7668  13.092  13.048   3.834
    1HEX    C06 7669  12.951  13.064   3.839
    1HEX    C07 7670  12.900  13.061   3.986
    1HEX    C08 7671  12.950  13.190   4.056
    1HEX    O09 7672  12.884  13.310   4.020
    1HEX    C0A 7673  12.817  13.379   4.115
    1HEX    O0B 7674  12.772  13.331   4.219
    1HEX    C0C 7675  12.809  13.528   4.086
    1HEX    C0D 7676  12.821  13.610   4.215
    1HEX    C0F 7677  12.745  13.061   3.986
    1HEX    O0G 7678  12.698  12.938   3.930
    1HEX    C0H 7679  12.646  12.935   3.806
    1HEX    O0I 7680  12.613  13.032   3.739
    1HEX    C0J 7681  12.636  12.793   3.751
    1HEX    C0K 7682  12.516  12.718   3.809
    1HEX    C0N 7683  12.946  12.931   4.061
    1HEX    O0O 7684  13.082  12.914   4.104
    1HEX    C0P 7685  13.148  12.995   4.203
    1HEX    C0Q 7686  13.113  12.983   4.355
    1HEX    C0R 7687  13.147  12.839   4.404
    1HEX    O0S 7688  13.288  12.815   4.399
    1HEX    C0T 7689  13.359  12.807   4.514
    1HEX    O0U 7690  13.315  12.816   4.628
    1HEX    C0V 7691  13.508  12.785   4.489
    1HEX    C0W 7692  13.590  12.915   4.480
    1HEX    C0Y 7693  13.203  13.086   4.428
    1HEX    O0Z 7694  13.181  13.081   4.568
    1HEX    C10 7695  13.268  13.139   4.650
    1HEX    O11 7696  13.369  13.200   4.616
    1HEX    C12 7697  13.227  13.122   4.795
    1HEX    C13 7698  13.334  13.172   4.893
    1HEX    C15 7699  12.965  13.021   4.387
    1HEX    O16 7700  12.927  13.001   4.523
    1HEX    C17 7701  12.853  12.895   4.559
    1HEX    O18 7702  12.820  12.802   4.486
    1HEX    C19 7703  12.808  12.903   4.704
    1HEX    C1A 7704  12.726  13.031   4.727
    1HEX    H1C 7705  13.566  12.929   3.555
    1HEX    H1D 7706  13.329  12.835   3.617
    1HEX    H1E 7707  13.322  13.011   3.610
    1HEX    H1F 7708  13.329  13.016   3.865
    1HEX    H1G 7709  13.326  12.841   3.867
    1HEX    H1H 7710  12.901  12.989   3.778
    1HEX    H1I 7711  12.924  13.159   3.793
    1HEX    H1J 7712  13.054  13.207   4.029
    1HEX    H1K 7713  12.947  13.176   4.163
    1HEX    H1M 7714  12.718  13.551   4.032
    1HEX    H1N 7715  12.892  13.552   4.019
    1HEX    H1O 7716  12.896  13.568   4.283
    1HEX    H1P 7717  12.726  13.609   4.270
    1HEX    H1Q 7718  12.995  13.758   4.145
    1HEX    H1R 7719  12.705  13.148   3.934
    1HEX    H1S 7720  12.706  13.069   4.088
    1HEX    H1T 7721  12.729  12.741   3.774
    1HEX    H1U 7722  12.629  12.800   3.643
    1HEX    H1V 7723  12.423  12.770   3.786
    1HEX    H1W 7724  12.523  12.713   3.918
    1HEX    H1X 7725  12.496  12.584   3.613
    1HEX    H1Y 7726  12.931  12.849   3.991
    1HEX    H1Z 7727  12.876  12.903   4.139
    1HEX    H20 7728  13.156  13.098   4.173
    1HEX    H21 7729  13.252  12.962   4.194
    1HEX    H22 7730  13.096  12.765   4.342
    1HEX    H23 7731  13.108  12.823   4.505
    1HEX    H24 7732  13.517  12.729   4.396
    1HEX    H25 7733  13.547  12.720   4.568
    1HEX    H26 7734  13.542  12.987   4.414
    1HEX    H27 7735  13.688  12.893   4.438
    1HEX    H28 7736  13.501  13.061   4.645
    1HEX    H29 7737  13.184  13.187   4.394
    1HEX    H2A 7738  13.308  13.066   4.407
    1HEX    H2B 7739  13.207  13.016   4.812
    1HEX    H2C 7740  13.133  13.175   4.809
    1HEX    H2D 7741  13.366  13.273   4.867
    1HEX    H2E 7742  13.423  13.109   4.887
    1HEX    H2F 7743  13.170  13.260   5.041
    1HEX    H2G 7744  12.894  12.969   4.325
    1HEX    H2H 7745  12.949  13.127   4.369
    1HEX    H2I 7746  12.896  12.901   4.767
    1HEX    H2J 7747  12.749  12.814   4.727
    1HEX    H2K 7748  12.640  13.034   4.659
    1HEX    H2M 7749  12.786  13.119   4.705
    1HEX    H2N 7750  12.585  12.935   4.893
    1STR    S00 7751  13.539  12.935   3.685
    1STR    S0E 7752  12.867  13.782   4.177
    1STR    S0M 7753  12.512  12.550   3.741
    1STR    S0X 7754  13.615  12.990   4.644
    1STR    S14 7755  13.266  13.170   5.061
    1STR    S1B 7756  12.670  13.038   4.899
    1HEX    C01 7757  13.350  12.931   8.037
    1HEX    C02 7758  13.292  12.938   8.178
    1HEX    C03 7759  13.140  12.940   8.174
    1HEX    O04 7760  13.076  12.840   8.140
    1HEX    O05 7761  13.088  13.060   8.207
    1HEX    C06 7762  12.947  13.078   8.208
    1HEX    C07 7763  12.889  13.086   8.351
    1HEX    C08 7764  12.928  13.219   8.416
    1HEX    O09 7765  12.856  13.335   8.378
    1HEX    C0A 7766  12.795  13.405   8.475
    1HEX    O0B 7767  12.746  13.357   8.578
    1HEX    C0C 7768  12.801  13.555   8.453
    1HEX    C0D 7769  12.829  13.629   8.585
    1HEX    C0F 7770  12.734  13.075   8.343
    1HEX    O0G 7771  12.697  12.947   8.289
    1HEX    C0H 7772  12.644  12.937   8.166
    1HEX    O0I 7773  12.605  13.030   8.096
    1HEX    C0J 7774  12.639  12.794   8.115
    1HEX    C0K 7775  12.518  12.718   8.171
    1HEX    C0N 7776  12.937  12.970   8.444
    1HEX    O0O 7777  13.074  12.966   8.490
    1HEX    C0P 7778  13.135  13.060   8.582
    1HEX    C0Q 7779  13.108  13.055   8.737
    1HEX    C0R 7780  13.248  13.077   8.802
    1HEX    O0S 7781  13.297  13.207   8.757
    1HEX    C0T 7782  13.350  13.301   8.841
    1HEX    O0U 7783  13.382  13.280   8.958
    1HEX    C0V 7784  13.379  13.437   8.772
    1HEX    C0W 7785  13.346  13.570   8.852
    1HEX    C0Y 7786  13.020  13.173   8.790
    1HEX    O0Z 7787  13.010  13.158   8.932
    1HEX    C10 7788  13.065  13.243   9.020
    1HEX    O11 7789  13.094  13.360   8.998
    1HEX    C12 7790  13.089  13.176   9.156
    1HEX    C13 7791  13.228  13.205   9.216
    1HEX    C15 7792  13.038  12.919   8.770
    1HEX    O16 7793  12.994  12.903   8.905
    1HEX    C17 7794  12.870  12.852   8.929
    1HEX    O18 7795  12.798  12.796   8.847
    1HEX    C19 7796  12.820  12.877   9.071
    1HEX    C1A 7797  12.742  13.009   9.076
    1HEX    H1C 7798  13.555  12.930   7.916
    1HEX    H1D 7799  13.320  12.838   7.987
    1HEX    H1E 7800  13.312  13.014   7.976
    1HEX    H1F 7801  13.326  13.027   8.231
    1HEX    H1G 7802  13.323  12.852   8.237
    1HEX    H1H 7803  12.899  13.000   8.149
    1HEX    H1I 7804  12.924  13.170   8.154
    1HEX    H1J 7805  13.031  13.241   8.389
    1HEX    H1K 7806  12.926  13.208   8.524
    1HEX    H1M 7807  12.709  13.589   8.406
    1HEX    H1N 7808  12.882  13.573   8.382
    1HEX    H1O 7809  12.900  13.573   8.647
    1HEX    H1P 7810  12.737  13.636   8.644
    1HEX    H1Q 7811  13.014  13.754   8.505
    1HEX    H1R 7812  12.693  13.157   8.284
    1HEX    H1S 7813  12.689  13.085   8.441
    1HEX    H1T 7814  12.732  12.743   8.142
    1HEX    H1U 7815  12.635  12.797   8.006
    1HEX    H1V 7816  12.425  12.770   8.146
    1HEX    H1W 7817  12.523  12.713   8.280
    1HEX    H1X 7818  12.498  12.585   7.974
    1HEX    H1Y 7819  12.925  12.877   8.387
    1HEX    H1Z 7820  12.867  12.959   8.526
    1HEX    H20 7821  13.140  13.162   8.547
    1HEX    H21 7822  13.239  13.030   8.567
    1HEX    H22 7823  13.318  12.998   8.774
    1HEX    H23 7824  13.243  13.071   8.911
    1HEX    H24 7825  13.333  13.437   8.674
    1HEX    H25 7826  13.487  13.434   8.753
    1HEX    H26 7827  13.440  13.619   8.875
    1HEX    H27 7828  13.303  13.545   8.950
    1HEX    H29 7829  12.919  13.170   8.749
    1HEX    H2A 7830  13.061  13.270   8.765
    1HEX    H2B 7831  13.077  13.068   9.145
    1HEX    H2C 7832  13.010  13.209   9.223
    1HEX    H2D 7833  13.258  13.309   9.197
    1HEX    H2E 7834  13.304  13.142   9.170
    1HEX    H2F 7835  13.147  13.279   9.427
    1HEX    H2G 7836  13.094  12.832   8.737
    1HEX    H2H 7837  12.948  12.918   8.709
    1HEX    H2I 7838  12.905  12.878   9.139
    1HEX    H2J 7839  12.756  12.794   9.100
    1HEX    H2K 7840  12.655  13.006   9.010
    1HEX    H2M 7841  12.803  13.092   9.041
    1HEX    H2N 7842  12.593  12.951   9.253
    1STR    S00 7843  13.531  12.940   8.047
    1STR    S0E 7844  12.896  13.794   8.553
    1STR    S0M 7845  12.515  12.550   8.102
    1STR    S0X 7846  13.240  13.700   8.768
    1STR    S14 7847  13.225  13.175   9.395
    1STR    S1B 7848  12.689  13.044   9.246
    1HEX    C01 7849  13.347  12.935  12.397
    1HEX    C02 7850  13.285  12.947  12.537
    1HEX    C03 7851  13.135  12.969  12.529
    1HEX    O04 7852  13.061  12.882  12.482
    1HEX    O05 7853  13.097  13.090  12.574
    1HEX    C06 7854  12.959  13.126  12.576
    1HEX    C07 7855  12.897  13.117  12.718
    1HEX    C08 7856  12.940  13.241  12.806
    1HEX    O09 7857  12.905  13.379  12.779
    1HEX    C0A 7858  12.931  13.474  12.880
    1HEX    O0B 7859  12.947  13.443  12.998
    1HEX    C0C 7860  12.941  13.623  12.836
    1HEX    C0D 7861  12.909  13.734  12.945
    1HEX    C0F 7862  12.742  13.111  12.702
    1HEX    O0G 7863  12.702  12.983  12.651
    1HEX    C0H 7864  12.651  12.967  12.528
    1HEX    O0I 7865  12.613  13.058  12.454
    1HEX    C0J 7866  12.649  12.821  12.482
    1HEX    C0K 7867  12.528  12.744  12.536
    1HEX    C0N 7868  12.935  12.980  12.786
    1HEX    O0O 7869  13.069  12.945  12.826
    1HEX    C0P 7870  13.145  13.013  12.927
    1HEX    C0Q 7871  13.114  12.993  13.078
    1HEX    C0R 7872  13.147  12.847  13.120
    1HEX    O0S 7873  13.288  12.822  13.116
    1HEX    C0T 7874  13.359  12.809  13.231
    1HEX    O0U 7875  13.313  12.814  13.345
    1HEX    C0V 7876  13.507  12.786  13.206
    1HEX    C0W 7877  13.591  12.915  13.200
    1HEX    C0Y 7878  13.206  13.092  13.153
    1HEX    O0Z 7879  13.185  13.084  13.292
    1HEX    C10 7880  13.272  13.140  13.375
    1HEX    O11 7881  13.374  13.200  13.342
    1HEX    C12 7882  13.230  13.122  13.520
    1HEX    C13 7883  13.336  13.173  13.618
    1HEX    C15 7884  12.967  13.029  13.114
    1HEX    O16 7885  12.930  13.005  13.250
    1HEX    C17 7886  12.855  12.899  13.283
    1HEX    O18 7887  12.821  12.808  13.208
    1HEX    C19 7888  12.809  12.904  13.428
    1HEX    C1A 7889  12.726  13.031  13.451
    1HEX    H1C 7890  13.554  12.925  12.281
    1HEX    H1D 7891  13.312  12.844  12.348
    1HEX    H1E 7892  13.316  13.019  12.335
    1HEX    H1F 7893  13.329  13.030  12.592
    1HEX    H1G 7894  13.304  12.857  12.596
    1HEX    H1H 7895  12.904  13.062  12.506
    1HEX    H1I 7896  12.948  13.226  12.536
    1HEX    H1J 7897  13.048  13.246  12.802
    1HEX    H1K 7898  12.911  13.218  12.908
    1HEX    H1M 7899  12.871  13.634  12.754
    1HEX    H1N 7900  13.040  13.639  12.793
    1HEX    H1O 7901  12.868  13.682  13.031
    1HEX    H1P 7902  12.828  13.798  12.911
    1HEX    H1R 7903  12.705  13.193  12.640
    1HEX    H1S 7904  12.693  13.124  12.799
    1HEX    H1T 7905  12.742  12.773  12.512
    1HEX    H1U 7906  12.648  12.820  12.373
    1HEX    H1V 7907  12.434  12.793  12.508
    1HEX    H1W 7908  12.531  12.740  12.645
    1HEX    H1X 7909  12.509  12.604  12.342
    1HEX    H1Y 7910  12.918  12.902  12.710
    1HEX    H1Z 7911  12.862  12.950  12.860
    1HEX    H20 7912  13.159  13.117  12.903
    1HEX    H21 7913  13.246  12.973  12.912
    1HEX    H22 7914  13.096  12.776  13.055
    1HEX    H23 7915  13.109  12.826  13.220
    1HEX    H24 7916  13.517  12.731  13.112
    1HEX    H25 7917  13.546  12.720  13.284
    1HEX    H26 7918  13.543  12.989  13.135
    1HEX    H27 7919  13.689  12.894  13.158
    1HEX    H28 7920  13.504  13.062  13.366
    1HEX    H29 7921  13.187  13.195  13.122
    1HEX    H2A 7922  13.311  13.073  13.130
    1HEX    H2B 7923  13.210  13.016  13.536
    1HEX    H2C 7924  13.136  13.175  13.533
    1HEX    H2D 7925  13.368  13.274  13.592
    1HEX    H2E 7926  13.425  13.110  13.613
    1HEX    H2F 7927  13.169  13.261  13.764
    1HEX    H2G 7928  12.896  12.976  13.052
    1HEX    H2H 7929  12.950  13.135  13.098
    1HEX    H2I 7930  12.897  12.902  13.492
    1HEX    H2J 7931  12.751  12.815  13.449
    1HEX    H2K 7932  12.641  13.035  13.383
    1HEX    H2M 7933  12.786  13.120  13.431
    1HEX    H2N 7934  12.583  12.933  13.614
    1STR    S00 7935  13.528  12.932  12.412
    1STR    S0E 7936  13.040  13.845  13.022
    1STR    S0M 7937  12.529  12.574  12.471
    1STR    S0X 7938  13.616  12.988  13.365
    1STR    S14 7939  13.266  13.172  13.786
    1STR    S1B 7940  12.667  13.036  13.623
  17.44000  17.44000  17.44000
