My System
 7612
    1STR   BCK1    1   0.874   4.267   4.401
    1STR    O03    2   0.844   4.285   4.284
    1STR    N04    3   0.994   4.220   4.441
    1STR    C05    4   1.092   4.152   4.366
    1STR    C06    5   1.231   4.181   4.379
    1STR    C07    6   1.332   4.101   4.316
    1STR    N08    7   1.471   4.126   4.334
    1STR    C09    8   1.577   4.046   4.309
    1STR    O0A    9   1.569   3.932   4.265
    1STR    O0B   10   1.698   4.105   4.337
    1STR    C0C   11   1.822   4.035   4.306
    1STR    C0D   12   1.857   4.056   4.158
    1STR    C0E   13   1.940   4.079   4.398
    1STR    O0F   14   2.062   4.006   4.367
    1STR    C0G   15   2.176   4.034   4.450
    1STR    C0H   16   2.160   3.964   4.585
    1STR    C0I   17   2.308   3.989   4.380
    1STR    O0J   18   2.425   4.030   4.454
    1STR    C0K   19   2.554   3.997   4.398
    1STR    C0M   20   2.582   4.083   4.274
    1STR    C0N   21   2.667   4.020   4.503
    1STR    O0O   22   2.795   3.971   4.458
    1STR    C0P   23   2.910   4.044   4.468
    1STR    O0Q   24   2.918   4.161   4.504
    1STR    N0R   25   3.014   3.969   4.430
    1STR    C0S   26   3.151   3.992   4.409
    1STR    C0T   27   3.218   3.894   4.333
    1STR    C0U   28   3.351   3.911   4.294
    1STR    C0V   29   3.424   4.026   4.332
    1STR    C0W   30   3.558   4.047   4.264
    1STR    C0X   31   3.366   4.121   4.420
    1STR    N0Y   32   3.433   4.237   4.460
    1STR   BCK2   33   3.558   4.271   4.500
    1STR    O10   34   3.582   4.390   4.518
    1STR    C13   35   3.227   4.105   4.453
    1STR    C14   36   1.287   3.994   4.236
    1STR    C15   37   1.151   3.963   4.223
    1STR    C16   38   1.053   4.039   4.289
    1STR    C17   39   0.909   3.991   4.279
    1STR    H1B   40   1.009   4.225   4.540
    1STR    H1C   41   1.261   4.265   4.440
    1STR    H1D   42   1.498   4.215   4.373
    1STR    H1E   43   1.807   3.928   4.323
    1STR    H1F   44   1.874   4.161   4.135
    1STR    H1G   45   1.947   4.001   4.131
    1STR    H1H   46   1.777   4.020   4.093
    1STR    H1I   47   1.911   4.061   4.501
    1STR    H1J   48   1.958   4.186   4.387
    1STR    H1K   49   2.184   4.142   4.465
    1STR    H1M   50   2.147   3.856   4.572
    1STR    H1N   51   2.075   4.001   4.641
    1STR    H1O   52   2.248   3.979   4.647
    1STR    H1P   53   2.308   3.880   4.368
    1STR    H1Q   54   2.310   4.031   4.280
    1STR    H1R   55   2.555   3.891   4.371
    1STR    H1S   56   2.681   4.062   4.234
    1STR    H1T   57   2.578   4.189   4.298
    1STR    H1U   58   2.511   4.064   4.193
    1STR    H1V   59   2.643   3.967   4.595
    1STR    H1W   60   2.673   4.126   4.530
    1STR    H1X   61   2.980   3.877   4.407
    1STR    H1Y   62   3.166   3.806   4.299
    1STR    H1Z   63   3.397   3.837   4.230
    1STR    H20   64   3.579   4.153   4.250
    1STR    H21   65   3.639   4.002   4.322
    1STR    H22   66   3.559   4.002   4.165
    1STR    H23   67   3.375   4.319   4.463
    1STR    H27   68   3.177   4.179   4.513
    1STR    H28   69   1.355   3.929   4.182
    1STR    H29   70   1.122   3.878   4.164
    1STR    H2A   71   0.859   4.000   4.375
    1STR    H2B   72   0.904   3.886   4.250
    1STR    H2C   73   0.855   4.049   4.205
    1STR   BCK1   74   0.880   4.369   8.743
    1STR    O03   75   0.822   4.467   8.789
    1STR    N04   76   1.002   4.371   8.685
    1STR    C05   77   1.089   4.477   8.648
    1STR    C06   78   1.232   4.459   8.652
    1STR    C07   79   1.326   4.558   8.607
    1STR    N08   80   1.467   4.535   8.606
    1STR    C09   81   1.570   4.615   8.568
    1STR    O0A   82   1.557   4.730   8.529
    1STR    O0B   83   1.694   4.554   8.576
    1STR    C0C   84   1.815   4.629   8.545
    1STR    C0D   85   1.852   4.719   8.665
    1STR    C0E   86   1.937   4.539   8.504
    1STR    O0F   87   2.059   4.614   8.479
    1STR    C0G   88   2.176   4.539   8.438
    1STR    C0H   89   2.161   4.501   8.290
    1STR    C0I   90   2.309   4.619   8.460
    1STR    O0J   91   2.428   4.538   8.439
    1STR    C0K   92   2.558   4.599   8.463
    1STR    C0M   93   2.577   4.626   8.613
    1STR    C0N   94   2.676   4.509   8.414
    1STR    O0O   95   2.805   4.571   8.428
    1STR    C0P   96   2.911   4.511   8.492
    1STR    O0Q   97   2.907   4.408   8.557
    1STR    N0R   98   3.021   4.585   8.472
    1STR    C0S   99   3.157   4.582   8.511
    1STR    C0T  100   3.234   4.684   8.452
    1STR    C0U  101   3.368   4.704   8.488
    1STR    C0V  102   3.430   4.623   8.585
    1STR    C0W  103   3.569   4.665   8.630
    1STR    C0X  104   3.360   4.512   8.641
    1STR    N0Y  105   3.424   4.431   8.737
    1STR   BCK2  106   3.547   4.374   8.728
    1STR    O10  107   3.615   4.375   8.626
    1STR    C13  108   3.221   4.495   8.605
    1STR    C14  109   1.271   4.679   8.561
    1STR    C15  110   1.132   4.699   8.554
    1STR    C16  111   1.041   4.599   8.593
    1STR    C17  112   0.895   4.628   8.565
    1STR    H1B  113   1.036   4.278   8.666
    1STR    H1C  114   1.270   4.366   8.690
    1STR    H1D  115   1.499   4.445   8.638
    1STR    H1E  116   1.794   4.694   8.459
    1STR    H1F  117   1.874   4.660   8.753
    1STR    H1G  118   1.940   4.779   8.643
    1STR    H1H  119   1.771   4.788   8.689
    1STR    H1I  120   1.909   4.483   8.415
    1STR    H1J  121   1.956   4.466   8.583
    1STR    H1K  122   2.183   4.449   8.499
    1STR    H1M  123   2.148   4.589   8.227
    1STR    H1N  124   2.076   4.435   8.273
    1STR    H1O  125   2.250   4.448   8.255
    1STR    H1P  126   2.312   4.706   8.394
    1STR    H1Q  127   2.308   4.658   8.562
    1STR    H1R  128   2.562   4.694   8.409
    1STR    H1S  129   2.675   4.668   8.633
    1STR    H1T  130   2.570   4.533   8.670
    1STR    H1U  131   2.504   4.695   8.654
    1STR    H1V  132   2.662   4.488   8.307
    1STR    H1W  133   2.673   4.412   8.463
    1STR    H1X  134   2.996   4.661   8.412
    1STR    H1Y  135   3.192   4.750   8.378
    1STR    H1Z  136   3.423   4.785   8.443
    1STR    H20  137   3.585   4.643   8.735
    1STR    H21  138   3.645   4.614   8.571
    1STR    H22  139   3.584   4.772   8.617
    1STR    H23  140   3.375   4.412   8.822
    1STR    H27  141   3.163   4.416   8.650
    1STR    H28  142   1.331   4.761   8.526
    1STR    H29  143   1.095   4.793   8.514
    1STR    H2A  144   0.841   4.537   8.537
    1STR    H2B  145   0.883   4.698   8.482
    1STR    H2C  146   0.847   4.672   8.652
    1STR   BCK1  147   0.872  12.974  13.153
    1STR    O03  148   0.859  12.945  13.035
    1STR    N04  149   0.987  13.036  13.187
    1STR    C05  150   1.084  13.007  13.286
    1STR    C06  151   1.223  13.028  13.257
    1STR    C07  152   1.329  12.994  13.348
    1STR    N08  153   1.466  13.018  13.318
    1STR    C09  154   1.577  12.985  13.388
    1STR    O0A  155   1.576  12.921  13.492
    1STR    O0B  156   1.695  13.029  13.332
    1STR    C0C  157   1.822  12.996  13.396
    1STR    C0D  158   1.860  12.851  13.362
    1STR    C0E  159   1.938  13.093  13.360
    1STR    O0F  160   2.060  13.057  13.430
    1STR    C0G  161   2.175  13.142  13.409
    1STR    C0H  162   2.158  13.270  13.493
    1STR    C0I  163   2.307  13.069  13.448
    1STR    O0J  164   2.423  13.145  13.411
    1STR    C0K  165   2.552  13.089  13.442
    1STR    C0M  166   2.581  12.970  13.349
    1STR    C0N  167   2.664  13.196  13.425
    1STR    O0O  168   2.789  13.152  13.479
    1STR    C0P  169   2.904  13.145  13.406
    1STR    O0Q  170   2.917  13.168  13.286
    1STR    N0R  171   3.002  13.105  13.488
    1STR    C0S  172   3.134  13.062  13.474
    1STR    C0T  173   3.180  12.986  13.582
    1STR    C0U  174   3.306  12.924  13.578
    1STR    C0V  175   3.392  12.941  13.468
    1STR    C0W  176   3.512  12.850  13.470
    1STR    C0X  177   3.358  13.032  13.363
    1STR    N0Y  178   3.445  13.081  13.262
    1STR   BCK2  179   3.574  13.079  13.221
    1STR    O10  180   3.611  13.167  13.144
    1STR    C13  181   3.225  13.087  13.366
    1STR    C14  182   1.289  12.937  13.471
    1STR    C15  183   1.154  12.920  13.503
    1STR    C16  184   1.052  12.956  13.415
    1STR    C17  185   0.911  12.944  13.467
    1STR    H1B  186   1.024  13.080  13.104
    1STR    H1C  187   1.250  13.070  13.161
    1STR    H1D  188   1.488  13.067  13.233
    1STR    H1E  189   1.808  13.003  13.504
    1STR    H1F  190   1.877  12.838  13.255
    1STR    H1G  191   1.952  12.822  13.414
    1STR    H1H  192   1.782  12.781  13.393
    1STR    H1I  193   1.908  13.195  13.387
    1STR    H1J  194   1.956  13.093  13.253
    1STR    H1K  195   2.182  13.167  13.303
    1STR    H1M  196   2.145  13.247  13.599
    1STR    H1N  197   2.073  13.330  13.461
    1STR    H1O  198   2.247  13.334  13.484
    1STR    H1P  199   2.307  13.048  13.555
    1STR    H1Q  200   2.308  12.972  13.398
    1STR    H1R  201   2.553  13.055  13.546
    1STR    H1S  202   2.681  12.929  13.367
    1STR    H1T  203   2.578  13.001  13.244
    1STR    H1U  204   2.511  12.888  13.362
    1STR    H1V  205   2.636  13.285  13.480
    1STR    H1W  206   2.674  13.227  13.321
    1STR    H1X  207   2.963  13.096  13.580
    1STR    H1Y  208   3.118  12.968  13.668
    1STR    H1Z  209   3.335  12.861  13.660
    1STR    H20  210   3.526  12.806  13.371
    1STR    H21  211   3.600  12.903  13.505
    1STR    H22  212   3.497  12.765  13.536
    1STR    H23  213   3.400  13.149  13.202
    1STR    H27  214   3.191  13.151  13.286
    1STR    H28  215   1.359  12.907  13.546
    1STR    H29  216   1.130  12.878  13.600
    1STR    H2A  217   0.860  13.039  13.457
    1STR    H2B  218   0.909  12.919  13.573
    1STR    H2C  219   0.856  12.866  13.414
    1STR   BCK1  220   5.233   4.273   4.354
    1STR    O03  221   5.184   4.364   4.288
    1STR    N04  222   5.358   4.223   4.337
    1STR    C05  223   5.449   4.238   4.229
    1STR    C06  224   5.591   4.245   4.253
    1STR    C07  225   5.688   4.241   4.147
    1STR    N08  226   5.828   4.242   4.173
    1STR    C09  227   5.932   4.214   4.090
    1STR    O0A  228   5.920   4.182   3.972
    1STR    O0B  229   6.056   4.225   4.150
    1STR    C0C  230   6.178   4.205   4.073
    1STR    C0D  231   6.212   4.335   3.998
    1STR    C0E  232   6.299   4.159   4.161
    1STR    O0F  233   6.420   4.140   4.084
    1STR    C0G  234   6.536   4.092   4.156
    1STR    C0H  235   6.520   3.942   4.182
    1STR    C0I  236   6.669   4.120   4.079
    1STR    O0J  237   6.786   4.089   4.159
    1STR    C0K  238   6.916   4.114   4.102
    1STR    C0M  239   6.941   4.265   4.089
    1STR    C0N  240   7.029   4.051   4.190
    1STR    O0O  241   7.160   4.063   4.131
    1STR    C0P  242   7.270   4.103   4.202
    1STR    O0Q  243   7.271   4.144   4.318
    1STR    N0R  244   7.377   4.093   4.123
    1STR    C0S  245   7.513   4.130   4.130
    1STR    C0T  246   7.577   4.128   4.005
    1STR    C0U  247   7.710   4.170   3.991
    1STR    C0V  248   7.786   4.211   4.102
    1STR    C0W  249   7.925   4.262   4.070
    1STR    C0X  250   7.731   4.201   4.234
    1STR    N0Y  251   7.811   4.207   4.351
    1STR   BCK2  252   7.929   4.265   4.384
    1STR    O10  253   7.979   4.362   4.329
    1STR    C13  254   7.592   4.164   4.244
    1STR    C14  255   5.637   4.236   4.016
    1STR    C15  256   5.499   4.229   3.990
    1STR    C16  257   5.405   4.226   4.095
    1STR    C17  258   5.260   4.204   4.056
    1STR    H1B  259   5.385   4.160   4.410
    1STR    H1C  260   5.625   4.251   4.355
    1STR    H1D  261   5.859   4.264   4.266
    1STR    H1E  262   6.160   4.126   4.000
    1STR    H1F  263   6.232   4.417   4.066
    1STR    H1G  264   6.301   4.321   3.936
    1STR    H1H  265   6.131   4.364   3.931
    1STR    H1I  266   6.271   4.065   4.209
    1STR    H1J  267   6.317   4.232   4.240
    1STR    H1K  268   6.543   4.146   4.251
    1STR    H1M  269   6.507   3.887   4.089
    1STR    H1N  270   6.435   3.919   4.246
    1STR    H1O  271   6.609   3.902   4.232
    1STR    H1P  272   6.671   4.062   3.986
    1STR    H1Q  273   6.670   4.225   4.050
    1STR    H1R  274   6.921   4.068   4.003
    1STR    H1S  275   7.041   4.285   4.050
    1STR    H1T  276   6.935   4.313   4.187
    1STR    H1U  277   6.870   4.314   4.023
    1STR    H1V  278   7.009   3.944   4.202
    1STR    H1W  279   7.027   4.093   4.291
    1STR    H1X  280   7.347   4.054   4.036
    1STR    H1Y  281   7.525   4.097   3.916
    1STR    H1Z  282   7.753   4.171   3.892
    1STR    H20  283   7.930   4.368   4.096
    1STR    H21  284   8.002   4.207   4.123
    1STR    H22  285   7.947   4.257   3.963
    1STR    H23  286   7.776   4.151   4.427
    1STR    H27  287   7.544   4.161   4.341
    1STR    H28  288   5.701   4.236   3.929
    1STR    H29  289   5.466   4.221   3.888
    1STR    H2A  290   5.209   4.141   4.128
    1STR    H2B  291   5.253   4.154   3.959
    1STR    H2C  292   5.208   4.299   4.048
    1STR   BCK1  293   5.241   8.709   4.466
    1STR    O03  294   5.193   8.753   4.570
    1STR    N04  295   5.358   8.750   4.412
    1STR    C05  296   5.448   8.853   4.450
    1STR    C06  297   5.590   8.836   4.434
    1STR    C07  298   5.686   8.938   4.467
    1STR    N08  299   5.826   8.922   4.444
    1STR    C09  300   5.931   9.000   4.481
    1STR    O0A  301   5.921   9.100   4.551
    1STR    O0B  302   6.053   8.956   4.434
    1STR    C0C  303   6.176   9.025   4.471
    1STR    C0D  304   6.216   8.983   4.614
    1STR    C0E  305   6.296   9.001   4.373
    1STR    O0F  306   6.419   9.066   4.416
    1STR    C0G  307   6.535   9.053   4.330
    1STR    C0H  308   6.520   9.146   4.209
    1STR    C0I  309   6.668   9.084   4.407
    1STR    O0J  310   6.787   9.053   4.331
    1STR    C0K  311   6.915   9.072   4.396
    1STR    C0M  312   6.935   8.968   4.507
    1STR    C0N  313   7.035   9.061   4.296
    1STR    O0O  314   7.161   9.096   4.356
    1STR    C0P  315   7.270   9.012   4.357
    1STR    O0Q  316   7.271   8.895   4.320
    1STR    N0R  317   7.375   9.080   4.404
    1STR    C0S  318   7.511   9.053   4.431
    1STR    C0T  319   7.585   9.167   4.465
    1STR    C0U  320   7.720   9.158   4.502
    1STR    C0V  321   7.786   9.034   4.506
    1STR    C0W  322   7.927   9.034   4.562
    1STR    C0X  323   7.717   8.915   4.468
    1STR    N0Y  324   7.782   8.791   4.483
    1STR   BCK2  325   7.908   8.756   4.448
    1STR    O10  326   7.972   8.813   4.360
    1STR    C13  327   7.578   8.926   4.431
    1STR    C14  328   5.633   9.059   4.519
    1STR    C15  329   5.495   9.079   4.532
    1STR    C16  330   5.402   8.981   4.494
    1STR    C17  331   5.256   9.022   4.496
    1STR    H1B  332   5.385   8.695   4.332
    1STR    H1C  333   5.626   8.742   4.396
    1STR    H1D  334   5.855   8.841   4.393
    1STR    H1E  335   6.156   9.132   4.472
    1STR    H1F  336   6.236   8.876   4.620
    1STR    H1G  337   6.305   9.036   4.647
    1STR    H1H  338   6.137   9.006   4.686
    1STR    H1I  339   6.267   9.038   4.275
    1STR    H1J  340   6.314   8.894   4.363
    1STR    H1K  341   6.542   8.949   4.296
    1STR    H1M  342   6.507   9.250   4.241
    1STR    H1N  343   6.434   9.120   4.147
    1STR    H1O  344   6.608   9.142   4.146
    1STR    H1P  345   6.669   9.190   4.436
    1STR    H1Q  346   6.667   9.027   4.500
    1STR    H1R  347   6.917   9.173   4.438
    1STR    H1S  348   7.033   8.980   4.553
    1STR    H1T  349   6.931   8.867   4.466
    1STR    H1U  350   6.862   8.977   4.586
    1STR    H1V  351   7.019   9.130   4.213
    1STR    H1W  352   7.038   8.962   4.250
    1STR    H1X  353   7.345   9.174   4.423
    1STR    H1Y  354   7.540   9.265   4.466
    1STR    H1Z  355   7.772   9.248   4.531
    1STR    H20  356   7.938   8.958   4.640
    1STR    H21  357   8.000   9.015   4.484
    1STR    H22  358   7.954   9.130   4.606
    1STR    H23  359   7.729   8.717   4.528
    1STR    H27  360   7.522   8.838   4.405
    1STR    H28  361   5.696   9.142   4.547
    1STR    H29  362   5.460   9.175   4.569
    1STR    H2A  363   5.200   8.972   4.417
    1STR    H2B  364   5.245   9.129   4.480
    1STR    H2C  365   5.211   8.999   4.593
    1STR   BCK1  366   9.576   4.293   4.433
    1STR    O03  367   9.534   4.385   4.365
    1STR    N04  368   9.708   4.264   4.425
    1STR    C05  369   9.803   4.164   4.458
    1STR    C06  370   9.943   4.199   4.459
    1STR    C07  371  10.048   4.103   4.475
    1STR    N08  372  10.186   4.139   4.473
    1STR    C09  373  10.297   4.062   4.486
    1STR    O0A  374  10.295   3.940   4.501
    1STR    O0B  375  10.416   4.131   4.481
    1STR    C0C  376  10.542   4.059   4.489
    1STR    C0D  377  10.577   3.998   4.352
    1STR    C0E  378  10.659   4.146   4.543
    1STR    O0F  379  10.780   4.068   4.556
    1STR    C0G  380  10.895   4.135   4.611
    1STR    C0H  381  10.879   4.147   4.763
    1STR    C0I  382  11.027   4.058   4.576
    1STR    O0J  383  11.144   4.133   4.616
    1STR    C0K  384  11.272   4.074   4.589
    1STR    C0M  385  11.302   4.079   4.438
    1STR    C0N  386  11.384   4.149   4.666
    1STR    O0O  387  11.510   4.079   4.660
    1STR    C0P  388  11.626   4.140   4.624
    1STR    O0Q  389  11.638   4.256   4.584
    1STR    N0R  390  11.727   4.053   4.636
    1STR    C0S  391  11.863   4.054   4.601
    1STR    C0T  392  11.922   3.927   4.586
    1STR    C0U  393  12.053   3.913   4.538
    1STR    C0V  394  12.130   4.026   4.506
    1STR    C0W  395  12.259   4.001   4.429
    1STR    C0X  396  12.081   4.156   4.535
    1STR    N0Y  397  12.156   4.272   4.512
    1STR   BCK2  398  12.284   4.308   4.533
    1STR    O10  399  12.322   4.418   4.493
    1STR    C13  400  11.944   4.168   4.577
    1STR    C14  401  10.008   3.968   4.490
    1STR    C15  402   9.874   3.931   4.490
    1STR    C16  403   9.771   4.025   4.473
    1STR    C17  404   9.632   3.968   4.466
    1STR    H1B  405   9.749   4.341   4.374
    1STR    H1C  406   9.970   4.302   4.446
    1STR    H1D  407  10.209   4.236   4.460
    1STR    H1E  408  10.529   3.977   4.560
    1STR    H1F  409  10.593   4.075   4.276
    1STR    H1G  410  10.668   3.938   4.359
    1STR    H1H  411  10.498   3.932   4.317
    1STR    H1I  412  10.630   4.187   4.639
    1STR    H1J  413  10.677   4.230   4.476
    1STR    H1K  414  10.903   4.234   4.566
    1STR    H1M  415  10.866   4.050   4.809
    1STR    H1N  416  10.794   4.209   4.791
    1STR    H1O  417  10.967   4.193   4.808
    1STR    H1P  418  11.026   3.960   4.624
    1STR    H1Q  419  11.028   4.040   4.469
    1STR    H1R  420  11.271   3.970   4.623
    1STR    H1S  421  11.401   4.040   4.416
    1STR    H1T  422  11.299   4.182   4.402
    1STR    H1U  423  11.231   4.021   4.379
    1STR    H1V  424  11.357   4.155   4.772
    1STR    H1W  425  11.393   4.252   4.631
    1STR    H1X  426  11.690   3.966   4.672
    1STR    H1Y  427  11.865   3.837   4.606
    1STR    H1Z  428  12.092   3.814   4.520
    1STR    H20  429  12.288   4.088   4.371
    1STR    H21  430  12.340   3.974   4.496
    1STR    H22  431  12.246   3.919   4.358
    1STR    H23  432  12.105   4.350   4.473
    1STR    H27  433  11.901   4.266   4.591
    1STR    H28  434  10.078   3.887   4.501
    1STR    H29  435   9.850   3.827   4.502
    1STR    H2A  436   9.583   3.982   4.562
    1STR    H2B  437   9.633   3.861   4.447
    1STR    H2C  438   9.575   4.013   4.385
    1STR   BCK1  439   9.600   4.337   8.706
    1STR    O03  440   9.542   4.445   8.711
    1STR    N04  441   9.724   4.317   8.655
    1STR    C05  442   9.811   4.400   8.580
    1STR    C06  443   9.953   4.387   8.595
    1STR    C07  444  10.047   4.459   8.513
    1STR    N08  445  10.188   4.440   8.525
    1STR    C09  446  10.291   4.488   8.451
    1STR    O0A  447  10.277   4.564   8.355
    1STR    O0B  448  10.416   4.444   8.491
    1STR    C0C  449  10.537   4.492   8.426
    1STR    C0D  450  10.572   4.632   8.480
    1STR    C0E  451  10.659   4.395   8.441
    1STR    O0F  452  10.781   4.445   8.379
    1STR    C0G  453  10.897   4.359   8.385
    1STR    C0H  454  10.882   4.248   8.281
    1STR    C0I  455  11.031   4.438   8.361
    1STR    O0J  456  11.149   4.358   8.387
    1STR    C0K  457  11.279   4.420   8.374
    1STR    C0M  458  11.299   4.523   8.486
    1STR    C0N  459  11.394   4.315   8.380
    1STR    O0O  460  11.525   4.372   8.360
    1STR    C0P  461  11.632   4.348   8.443
    1STR    O0Q  462  11.628   4.290   8.550
    1STR    N0R  463  11.742   4.400   8.387
    1STR    C0S  464  11.878   4.415   8.423
    1STR    C0T  465  11.953   4.487   8.328
    1STR    C0U  466  12.086   4.523   8.353
    1STR    C0V  467  12.150   4.487   8.473
    1STR    C0W  468  12.287   4.549   8.498
    1STR    C0X  469  12.084   4.402   8.566
    1STR    N0Y  470  12.151   4.358   8.683
    1STR   BCK2  471  12.277   4.310   8.696
    1STR    O10  472  12.352   4.289   8.601
    1STR    C13  473  11.945   4.371   8.542
    1STR    C14  474   9.992   4.547   8.417
    1STR    C15  475   9.854   4.559   8.400
    1STR    C16  476   9.763   4.485   8.477
    1STR    C17  477   9.616   4.497   8.438
    1STR    H1B  478   9.757   4.224   8.674
    1STR    H1C  479   9.991   4.321   8.671
    1STR    H1D  480  10.221   4.380   8.599
    1STR    H1E  481  10.516   4.502   8.319
    1STR    H1F  482  10.593   4.629   8.587
    1STR    H1G  483  10.660   4.672   8.430
    1STR    H1H  484  10.490   4.703   8.463
    1STR    H1I  485  10.631   4.300   8.396
    1STR    H1J  486  10.677   4.376   8.546
    1STR    H1K  487  10.904   4.316   8.485
    1STR    H1M  488  10.869   4.289   8.181
    1STR    H1N  489  10.797   4.183   8.302
    1STR    H1O  490  10.970   4.184   8.279
    1STR    H1P  491  11.033   4.476   8.259
    1STR    H1Q  492  11.030   4.525   8.426
    1STR    H1R  493  11.284   4.470   8.276
    1STR    H1S  494  11.398   4.568   8.479
    1STR    H1T  495  11.292   4.475   8.583
    1STR    H1U  496  11.227   4.605   8.482
    1STR    H1V  497  11.379   4.241   8.302
    1STR    H1W  498  11.390   4.260   8.474
    1STR    H1X  499  11.717   4.438   8.298
    1STR    H1Y  500  11.909   4.520   8.235
    1STR    H1Z  501  12.139   4.583   8.280
    1STR    H20  502  12.306   4.562   8.604
    1STR    H21  503  12.366   4.488   8.454
    1STR    H22  504  12.293   4.648   8.452
    1STR    H23  505  12.098   4.358   8.769
    1STR    H27  506  11.890   4.313   8.613
    1STR    H28  507  10.054   4.606   8.351
    1STR    H29  508   9.817   4.626   8.323
    1STR    H2A  509   9.564   4.402   8.450
    1STR    H2B  510   9.605   4.526   8.334
    1STR    H2C  511   9.567   4.573   8.499
    1STR   BCK1  512  13.957   4.264  13.197
    1STR    O03  513  13.936   4.194  13.295
    1STR    N04  514  14.064   4.346  13.183
    1STR    C05  515  14.165   4.379  13.278
    1STR    C06  516  14.305   4.381  13.245
    1STR    C07  517  14.407   4.416  13.341
    1STR    N08  518  14.546   4.422  13.307
    1STR    C09  519  14.655   4.438  13.387
    1STR    O0A  520  14.650   4.443  13.509
    1STR    O0B  521  14.775   4.447  13.319
    1STR    C0C  522  14.900   4.457  13.392
    1STR    C0D  523  14.940   4.317  13.443
    1STR    C0E  524  15.017   4.521  13.311
    1STR    O0F  525  15.139   4.528  13.389
    1STR    C0G  526  15.254   4.588  13.325
    1STR    C0H  527  15.238   4.741  13.326
    1STR    C0I  528  15.386   4.546  13.397
    1STR    O0J  529  15.504   4.589  13.324
    1STR    C0K  530  15.632   4.554  13.379
    1STR    C0M  531  15.657   4.403  13.366
    1STR    C0N  532  15.747   4.631  13.308
    1STR    O0O  533  15.872   4.616  13.377
    1STR    C0P  534  15.985   4.565  13.319
    1STR    O0Q  535  15.996   4.521  13.205
    1STR    N0R  536  16.083   4.572  13.410
    1STR    C0S  537  16.217   4.532  13.421
    1STR    C0T  538  16.271   4.554  13.548
    1STR    C0U  539  16.402   4.517  13.579
    1STR    C0V  540  16.486   4.459  13.482
    1STR    C0W  541  16.624   4.424  13.531
    1STR    C0X  542  16.439   4.439  13.349
    1STR    N0Y  543  16.521   4.405  13.238
    1STR   BCK2  544  16.642   4.352  13.207
    1STR    O10  545  16.685   4.375  13.095
    1STR    C13  546  16.302   4.475  13.321
    1STR    C14  547  14.362   4.448  13.471
    1STR    C15  548  14.226   4.452  13.503
    1STR    C16  549  14.127   4.423  13.408
    1STR    C17  550  13.983   4.447  13.447
    1STR    H1B  551  14.070   4.391  13.093
    1STR    H1C  552  14.335   4.355  13.145
    1STR    H1D  553  14.571   4.413  13.211
    1STR    H1E  554  14.884   4.521  13.479
    1STR    H1F  555  14.958   4.248  13.361
    1STR    H1G  556  15.031   4.322  13.503
    1STR    H1H  557  14.862   4.274  13.507
    1STR    H1I  558  14.987   4.620  13.280
    1STR    H1J  559  15.035   4.463  13.221
    1STR    H1K  560  15.260   4.552  13.222
    1STR    H1M  561  15.226   4.778  13.428
    1STR    H1N  562  15.152   4.774  13.268
    1STR    H1O  563  15.326   4.789  13.284
    1STR    H1P  564  15.388   4.587  13.498
    1STR    H1Q  565  15.386   4.438  13.407
    1STR    H1R  566  15.634   4.583  13.485
    1STR    H1S  567  15.756   4.377  13.403
    1STR    H1T  568  15.653   4.373  13.261
    1STR    H1U  569  15.586   4.343  13.421
    1STR    H1V  570  15.724   4.738  13.308
    1STR    H1W  571  15.755   4.602  13.203
    1STR    H1X  572  16.044   4.615  13.491
    1STR    H1Y  573  16.213   4.600  13.626
    1STR    H1Z  574  16.439   4.535  13.678
    1STR    H20  575  16.633   4.316  13.535
    1STR    H21  576  16.700   4.468  13.466
    1STR    H22  577  16.643   4.460  13.632
    1STR    H23  578  16.481   4.433  13.151
    1STR    H27  579  16.261   4.461  13.222
    1STR    H28  580  14.430   4.473  13.551
    1STR    H29  581  14.197   4.480  13.603
    1STR    H2A  582  13.927   4.491  13.364
    1STR    H2B  583  13.976   4.517  13.531
    1STR    H2C  584  13.935   4.354  13.477
    1STR   BCK1  585  17.407   0.883   4.213
    1STR    O03  586  17.373   0.896   4.096
    1STR    N04  587   0.030   0.981   4.285
    1STR    C05  588   0.116   1.085   4.239
    1STR    C06  589   0.098   1.226   4.263
    1STR    C07  590   0.197   1.325   4.226
    1STR    N08  591   0.184   1.466   4.254
    1STR    C09  592   0.258   1.573   4.211
    1STR    O0A  593   0.351   1.563   4.131
    1STR    O0B  594   0.222   1.697   4.264
    1STR    C0C  595   0.288   1.821   4.220
    1STR    C0D  596   0.233   1.859   4.081
    1STR    C0E  597   0.276   1.944   4.318
    1STR    O0F  598   0.334   2.068   4.267
    1STR    C0G  599   0.330   2.187   4.352
    1STR    C0H  600   0.437   2.172   4.461
    1STR    C0I  601   0.351   2.321   4.272
    1STR    O0J  602   0.322   2.445   4.345
    1STR    C0K  603   0.328   2.571   4.272
    1STR    C0M  604   0.215   2.577   4.169
    1STR    C0N  605   0.316   2.700   4.362
    1STR    O0O  606   0.329   2.824   4.288
    1STR    C0P  607   0.242   2.931   4.299
    1STR    O0Q  608   0.136   2.931   4.360
    1STR    N0R  609   0.293   3.038   4.234
    1STR    C0S  610   0.257   3.174   4.211
    1STR    C0T  611   0.367   3.257   4.183
    1STR    C0U  612   0.349   3.393   4.152
    1STR    C0V  613   0.221   3.452   4.148
    1STR    C0W  614   0.217   3.600   4.119
    1STR    C0X  615   0.105   3.373   4.175
    1STR    N0Y  616  17.413   3.426   4.185
    1STR   BCK2  617  17.332   3.529   4.148
    1STR    O10  618  17.219   3.529   4.197
    1STR    C13  619   0.127   3.234   4.209
    1STR    C14  620   0.314   1.276   4.165
    1STR    C15  621   0.335   1.138   4.144
    1STR    C16  622   0.239   1.043   4.182
    1STR    C17  623   0.275   0.896   4.170
    1STR    H1B  624   0.035   0.962   4.383
    1STR    H1C  625   0.007   1.259   4.311
    1STR    H1D  626   0.108   1.495   4.313
    1STR    H1E  627   0.394   1.799   4.209
    1STR    H1F  628   0.126   1.880   4.085
    1STR    H1G  629   0.283   1.948   4.042
    1STR    H1H  630   0.249   1.779   4.008
    1STR    H1I  631   0.325   1.917   4.411
    1STR    H1J  632   0.171   1.962   4.341
    1STR    H1K  633   0.231   2.193   4.398
    1STR    H1M  634   0.536   2.159   4.418
    1STR    H1N  635   0.418   2.088   4.527
    1STR    H1O  636   0.441   2.261   4.524
    1STR    H1P  637   0.454   2.325   4.234
    1STR    H1Q  638   0.288   2.316   4.183
    1STR    H1R  639   0.425   2.577   4.221
    1STR    H1S  640   0.215   2.673   4.117
    1STR    H1T  641   0.118   2.567   4.219
    1STR    H1U  642   0.223   2.500   4.093
    1STR    H1V  643   0.395   2.699   4.437
    1STR    H1W  644   0.222   2.699   4.419
    1STR    H1X  645   0.382   3.012   4.198
    1STR    H1Y  646   0.467   3.219   4.185
    1STR    H1Z  647   0.437   3.453   4.133
    1STR    H20  648   0.178   3.617   4.019
    1STR    H21  649   0.155   3.653   4.192
    1STR    H22  650   0.316   3.645   4.122
    1STR    H23  651  17.354   3.367   4.241
    1STR    H27  652   0.043   3.171   4.232
    1STR    H28  653   0.395   1.340   4.134
    1STR    H29  654   0.428   1.106   4.099
    1STR    H2A  655   0.253   0.844   4.263
    1STR    H2B  656   0.381   0.882   4.150
    1STR    H2C  657   0.217   0.850   4.090
    1STR   BCK1  658  17.356   5.228  17.350
    1STR    O03  659  17.438   5.167  17.418
    1STR    N04  660  17.332   5.356  17.381
    1STR    C05  661  17.231   5.452  17.358
    1STR    C06  662  17.266   5.592  17.355
    1STR    C07  663  17.167   5.696  17.352
    1STR    N08  664  17.204   5.834  17.351
    1STR    C09  665  17.126   5.945  17.346
    1STR    O0A  666  17.003   5.943  17.343
    1STR    O0B  667  17.196   6.063  17.345
    1STR    C0C  668  17.124   6.190  17.344
    1STR    C0D  669  17.079   6.224   0.048
    1STR    C0E  670  17.206   6.307  17.282
    1STR    O0F  671  17.128   6.429  17.277
    1STR    C0G  672  17.189   6.544  17.214
    1STR    C0H  673  17.185   6.525  17.062
    1STR    C0I  674  17.117   6.676  17.255
    1STR    O0J  675  17.185   6.794  17.206
    1STR    C0K  676  17.128   6.922  17.241
    1STR    C0M  677  17.149   6.950  17.391
    1STR    C0N  678  17.190   7.038  17.157
    1STR    O0O  679  17.114   7.160  17.165
    1STR    C0P  680  17.171   7.283  17.185
    1STR    O0Q  681  17.290   7.304  17.206
    1STR    N0R  682  17.075   7.377  17.183
    1STR    C0S  683  17.072   7.512  17.220
    1STR    C0T  684  16.957   7.552  17.290
    1STR    C0U  685  16.946   7.682  17.342
    1STR    C0V  686  17.046   7.778  17.321
    1STR    C0W  687  17.039   7.903  17.407
    1STR    C0X  688  17.155   7.748  17.234
    1STR    N0Y  689  17.251   7.842  17.189
    1STR   BCK2  690  17.249   7.966  17.134
    1STR    O10  691  17.344   7.997  17.063
    1STR    C13  692  17.170   7.612  17.191
    1STR    C14  693  17.033   5.655  17.353
    1STR    C15  694  16.997   5.520  17.356
    1STR    C16  695  17.093   5.418  17.359
    1STR    C17  696  17.041   5.277  17.374
    1STR    H1B  697  17.405   5.387   0.004
    1STR    H1C  698  17.370   5.619  17.357
    1STR    H1D  699  17.302   5.857  17.354
    1STR    H1E  700  17.035   6.178  17.283
    1STR    H1F  701  17.164   6.239   0.114
    1STR    H1G  702  17.020   6.316   0.048
    1STR    H1H  703  17.017   6.146   0.090
    1STR    H1I  704  17.236   6.277  17.182
    1STR    H1J  705  17.297   6.324  17.339
    1STR    H1K  706  17.293   6.551  17.248
    1STR    H1M  707  17.083   6.511  17.027
    1STR    H1N  708  17.244   6.440  17.028
    1STR    H1O  709  17.225   6.613  17.011
    1STR    H1P  710  17.014   6.674  17.218
    1STR    H1Q  711  17.111   6.678  17.364
    1STR    H1R  712  17.021   6.920  17.219
    1STR    H1S  713  17.113   7.050  17.417
    1STR    H1T  714  17.255   6.946  17.416
    1STR    H1U  715  17.097   6.879   0.015
    1STR    H1V  716  17.192   7.009  17.052
    1STR    H1W  717  17.295   7.054  17.185
    1STR    H1X  718  16.987   7.334  17.161
    1STR    H1Y  719  16.878   7.482  17.310
    1STR    H1Z  720  16.860   7.706  17.403
    1STR    H20  721  17.138   7.930   0.003
    1STR    H21  722  16.994   7.987  17.355
    1STR    H22  723  16.976   7.886   0.054
    1STR    H23  724  17.342   7.802  17.172
    1STR    H27  725  17.256   7.583  17.133
    1STR    H28  726  16.950   5.724  17.354
    1STR    H29  727  16.892   5.495  17.358
    1STR    H2A  728  17.036   5.230  17.276
    1STR    H2B  729  16.940   5.276  17.414
    1STR    H2C  730  17.103   5.217   0.001
    1STR   BCK1  731  17.419   5.236  13.063
    1STR    O03  732   0.076   5.163  13.080
    1STR    N04  733  17.408   5.364  13.110
    1STR    C05  734   0.048   5.449  13.193
    1STR    C06  735   0.035   5.593  13.184
    1STR    C07  736   0.109   5.687  13.265
    1STR    N08  737   0.090   5.829  13.258
    1STR    C09  738   0.148   5.931  13.328
    1STR    O0A  739   0.234   5.915  13.414
    1STR    O0B  740   0.101   6.059  13.295
    1STR    C0C  741   0.158   6.179  13.356
    1STR    C0D  742   0.293   6.212  13.289
    1STR    C0E  743   0.063   6.305  13.353
    1STR    O0F  744   0.120   6.429  13.405
    1STR    C0G  745   0.034   6.547  13.409
    1STR    C0H  746  17.376   6.531  13.526
    1STR    C0I  747   0.111   6.684  13.422
    1STR    O0J  748   0.027   6.802  13.401
    1STR    C0K  749   0.087   6.935  13.404
    1STR    C0M  750   0.185   6.950  13.287
    1STR    C0N  751  17.419   7.051  13.395
    1STR    O0O  752   0.033   7.186  13.393
    1STR    C0P  753  17.419   7.289  13.314
    1STR    O0Q  754  17.336   7.274  13.226
    1STR    N0R  755   0.033   7.407  13.349
    1STR    C0S  756   0.029   7.543  13.306
    1STR    C0T  757   0.109   7.628  13.385
    1STR    C0U  758   0.128   7.762  13.351
    1STR    C0V  759   0.066   7.819  13.239
    1STR    C0W  760   0.112   7.959  13.201
    1STR    C0X  761  17.413   7.743  13.162
    1STR    N0Y  762  17.350   7.803  13.048
    1STR   BCK2  763  17.291   7.926  13.032
    1STR    O10  764  17.267   8.003  13.124
    1STR    C13  765  17.399   7.603  13.195
    1STR    C14  766   0.203   5.630  13.355
    1STR    C15  767   0.216   5.491  13.368
    1STR    C16  768   0.138   5.401  13.293
    1STR    C17  769   0.154   5.255  13.332
    1STR    H1B  770  17.324   5.407  13.074
    1STR    H1C  771  17.405   5.633  13.113
    1STR    H1D  772   0.023   5.863  13.192
    1STR    H1E  773   0.178   6.157  13.462
    1STR    H1F  774   0.280   6.233  13.183
    1STR    H1G  775   0.339   6.299  13.335
    1STR    H1H  776   0.363   6.129  13.299
    1STR    H1I  777  17.414   6.280  13.409
    1STR    H1J  778   0.032   6.322  13.250
    1STR    H1K  779  17.419   6.551  13.315
    1STR    H1M  780  17.429   6.517  13.621
    1STR    H1N  781  17.309   6.446  13.513
    1STR    H1O  782  17.313   6.619  13.537
    1STR    H1P  783   0.159   6.690  13.520
    1STR    H1Q  784   0.192   6.683  13.350
    1STR    H1R  785   0.141   6.947  13.498
    1STR    H1S  786   0.228   7.050  13.286
    1STR    H1T  787   0.134   6.936  13.192
    1STR    H1U  788   0.268   6.880  13.292
    1STR    H1V  789  17.353   7.044  13.481
    1STR    H1W  790  17.355   7.035  13.308
    1STR    H1X  791   0.094   7.390  13.427
    1STR    H1Y  792   0.162   7.590  13.471
    1STR    H1Z  793   0.196   7.822  13.411
    1STR    H20  794   0.114   7.972  13.092
    1STR    H21  795   0.046   8.034  13.244
    1STR    H22  796   0.212   7.979  13.237
    1STR    H23  797  17.348   7.747  12.965
    1STR    H27  798  17.335   7.540  13.136
    1STR    H28  799   0.266   5.690  13.418
    1STR    H29  800   0.286   5.454  13.441
    1STR    H2A  801   0.059   5.203  13.328
    1STR    H2B  802   0.191   5.245  13.434
    1STR    H2C  803   0.226   5.206  13.267
    1STR   BCK1  804  17.326   9.591  12.941
    1STR    O03  805  17.220   9.604  12.881
    1STR    N04  806  17.416   9.692  12.955
    1STR    C05  807  17.434   9.802  12.868
    1STR    C06  808  17.436   9.941  12.907
    1STR    C07  809   0.024  10.047  12.813
    1STR    N08  810   0.032  10.185  12.849
    1STR    C09  811   0.039  10.296  12.770
    1STR    O0A  812   0.027  10.293  12.648
    1STR    O0B  813   0.059  10.416  12.837
    1STR    C0C  814   0.062  10.542  12.762
    1STR    C0D  815  17.358  10.583  12.725
    1STR    C0E  816   0.135  10.661  12.834
    1STR    O0F  817   0.132  10.784  12.757
    1STR    C0G  818   0.198  10.901  12.813
    1STR    C0H  819   0.350  10.886  12.794
    1STR    C0I  820   0.148  11.033  12.745
    1STR    O0J  821   0.191  11.155  12.811
    1STR    C0K  822   0.139  11.280  12.759
    1STR    C0M  823  17.429  11.293  12.790
    1STR    C0N  824   0.210  11.408  12.816
    1STR    O0O  825   0.168  11.526  12.744
    1STR    C0P  826   0.125  11.641  12.804
    1STR    O0Q  827   0.104  11.657  12.924
    1STR    N0R  828   0.115  11.736  12.710
    1STR    C0S  829   0.091  11.875  12.705
    1STR    C0T  830   0.167  11.941  12.606
    1STR    C0U  831   0.154  12.079  12.585
    1STR    C0V  832   0.063  12.155  12.659
    1STR    C0W  833   0.071  12.305  12.636
    1STR    C0X  834  17.416  12.093  12.753
    1STR    N0Y  835  17.320  12.164  12.830
    1STR   BCK2  836  17.238  12.272  12.821
    1STR    O10  837  17.173  12.304  12.919
    1STR    C13  838  17.436  11.952  12.779
    1STR    C14  839   0.048  10.007  12.679
    1STR    C15  840   0.050   9.872  12.641
    1STR    C16  841   0.027   9.770  12.734
    1STR    C17  842   0.047   9.626  12.688
    1STR    H1B  843   0.051   9.674  13.020
    1STR    H1C  844  17.417   9.966  13.010
    1STR    H1D  845   0.035  10.208  12.947
    1STR    H1E  846   0.117  10.525  12.669
    1STR    H1F  847  17.298  10.602  12.814
    1STR    H1G  848  17.358  10.674  12.664
    1STR    H1H  849  17.309  10.506  12.666
    1STR    H1I  850   0.238  10.632  12.854
    1STR    H1J  851   0.088  10.679  12.931
    1STR    H1K  852   0.174  10.908  12.919
    1STR    H1M  853   0.376  10.873  12.689
    1STR    H1N  854   0.390  10.801  12.849
    1STR    H1O  855   0.402  10.975  12.830
    1STR    H1P  856   0.179  11.035  12.640
    1STR    H1Q  857   0.039  11.029  12.744
    1STR    H1R  858   0.154  11.281  12.651
    1STR    H1S  859  17.391  11.389  12.757
    1STR    H1T  860  17.413  11.287  12.898
    1STR    H1U  861  17.369  11.216  12.742
    1STR    H1V  862   0.318  11.398  12.803
    1STR    H1W  863   0.194  11.418  12.923
    1STR    H1X  864   0.143  11.695  12.623
    1STR    H1Y  865   0.239  11.887  12.547
    1STR    H1Z  866   0.217  12.126  12.511
    1STR    H20  867   0.005  12.334  12.555
    1STR    H21  868   0.047  12.361  12.726
    1STR    H22  869   0.172  12.335  12.607
    1STR    H23  870  17.302  12.122  12.920
    1STR    H27  871  17.377  11.902  12.854
    1STR    H28  872   0.070  10.077  12.601
    1STR    H29  873   0.072   9.848  12.538
    1STR    H2A  874   0.108   9.572  12.761
    1STR    H2B  875   0.100   9.621  12.593
    1STR    H2C  876  17.391   9.576  12.677
    1STR   BCK1  877  17.318  13.956   4.317
    1STR    O03  878  17.363  13.893   4.412
    1STR    N04  879  17.276  14.085   4.321
    1STR    C05  880  17.250  14.175   4.428
    1STR    C06  881  17.269  14.315   4.409
    1STR    C07  882  17.226  14.414   4.504
    1STR    N08  883  17.240  14.554   4.480
    1STR    C09  884  17.182  14.659   4.542
    1STR    O0A  885  17.101  14.649   4.634
    1STR    O0B  886  17.220  14.782   4.491
    1STR    C0C  887  17.171  14.905   4.551
    1STR    C0D  888  17.256  14.939   4.676
    1STR    C0E  889  17.169  15.025   4.452
    1STR    O0F  890  17.119  15.148   4.511
    1STR    C0G  891  17.108  15.263   4.424
    1STR    C0H  892  16.984  15.245   4.334
    1STR    C0I  893  17.097  15.397   4.504
    1STR    O0J  894  17.101  15.514   4.418
    1STR    C0K  895  17.095  15.645   4.480
    1STR    C0M  896  17.225  15.672   4.557
    1STR    C0N  897  17.073  15.759   4.374
    1STR    O0O  898  17.049  15.889   4.431
    1STR    C0P  899  17.097  16.005   4.374
    1STR    O0Q  900  17.173  16.011   4.278
    1STR    N0R  901  17.049  16.111   4.441
    1STR    C0S  902  17.076  16.250   4.439
    1STR    C0T  903  17.050  16.315   4.562
    1STR    C0U  904  17.080  16.451   4.580
    1STR    C0V  905  17.133  16.528   4.475
    1STR    C0W  906  17.181  16.668   4.508
    1STR    C0X  907  17.150  16.471   4.346
    1STR    N0Y  908  17.198  16.551   4.241
    1STR   BCK2  909  17.123  16.635   4.166
    1STR    O10  910  17.092  16.598   4.053
    1STR    C13  911  17.126  16.330   4.331
    1STR    C14  912  17.168  14.365   4.623
    1STR    C15  913  17.150  14.228   4.645
    1STR    C16  914  17.188  14.132   4.549
    1STR    C17  915  17.152  13.988   4.580
    1STR    H1B  916  17.258  14.120   4.229
    1STR    H1C  917  17.315  14.349   4.317
    1STR    H1D  918  17.301  14.583   4.405
    1STR    H1E  919  17.068  14.889   4.584
    1STR    H1F  920  17.360  14.956   4.650
    1STR    H1G  921  17.218  15.029   4.725
    1STR    H1H  922  17.252  14.858   4.749
    1STR    H1I  923  17.107  14.997   4.367
    1STR    H1J  924  17.270  15.042   4.413
    1STR    H1K  925  17.198  15.270   4.362
    1STR    H1M  926  16.894  15.231   4.393
    1STR    H1N  927  16.994  15.160   4.267
    1STR    H1O  928  16.969  15.333   4.271
    1STR    H1P  929  17.005  15.398   4.563
    1STR    H1Q  930  17.179  15.400   4.575
    1STR    H1R  931  17.010  15.647   4.549
    1STR    H1S  932  17.225  15.772   4.600
    1STR    H1T  933  17.311  15.665   4.491
    1STR    H1U  934  17.240  15.602   4.640
    1STR    H1V  935  16.987  15.734   4.312
    1STR    H1W  936  17.158  15.762   4.305
    1STR    H1X  937  16.986  16.080   4.512
    1STR    H1Y  938  17.010  16.260   4.646
    1STR    H1Z  939  17.065  16.495   4.678
    1STR    H20  940  17.290  16.670   4.506
    1STR    H21  941  17.144  16.742   4.437
    1STR    H22  942  17.149  16.700   4.607
    1STR    H23  943  17.266  16.503   4.184
    1STR    H27  944  17.144  16.282   4.236
    1STR    H28  945  17.135  14.431   4.702
    1STR    H29  946  17.103  14.196   4.737
    1STR    H2A  947  17.117  13.935   4.492
    1STR    H2B  948  17.072  13.982   4.654
    1STR    H2C  949  17.239  13.936   4.621
    1STR   BCK1  950   4.367   5.244   4.249
    1STR    O03  951   4.455   5.183   4.190
    1STR    N04  952   4.382   5.364   4.313
    1STR    C05  953   4.494   5.451   4.332
    1STR    C06  954   4.475   5.594   4.342
    1STR    C07  955   4.583   5.688   4.360
    1STR    N08  956   4.563   5.829   4.375
    1STR    C09  957   4.652   5.933   4.379
    1STR    O0A  958   4.773   5.919   4.362
    1STR    O0B  959   4.595   6.059   4.402
    1STR    C0C  960   4.677   6.181   4.398
    1STR    C0D  961   4.706   6.216   4.251
    1STR    C0E  962   4.615   6.305   4.473
    1STR    O0F  963   4.691   6.430   4.460
    1STR    C0G  964   4.641   6.548   4.530
    1STR    C0H  965   4.674   6.533   4.680
    1STR    C0I  966   4.700   6.684   4.475
    1STR    O0J  967   4.633   6.805   4.522
    1STR    C0K  968   4.673   6.934   4.468
    1STR    C0M  969   4.639   6.941   4.319
    1STR    C0N  970   4.604   7.058   4.539
    1STR    O0O  971   4.642   7.187   4.484
    1STR    C0P  972   4.552   7.289   4.455
    1STR    O0Q  973   4.430   7.278   4.456
    1STR    N0R  974   4.618   7.403   4.429
    1STR    C0S  975   4.590   7.539   4.397
    1STR    C0T  976   4.697   7.625   4.426
    1STR    C0U  977   4.694   7.760   4.388
    1STR    C0V  978   4.585   7.815   4.319
    1STR    C0W  979   4.602   7.957   4.268
    1STR    C0X  980   4.469   7.735   4.293
    1STR    N0Y  981   4.363   7.789   4.215
    1STR   BCK2  982   4.300   7.910   4.216
    1STR    O10  983   4.311   7.993   4.306
    1STR    C13  984   4.475   7.596   4.332
    1STR    C14  985   4.713   5.632   4.367
    1STR    C15  986   4.733   5.494   4.363
    1STR    C16  987   4.626   5.403   4.351
    1STR    C17  988   4.662   5.256   4.368
    1STR    H1B  989   4.294   5.397   4.349
    1STR    H1C  990   4.375   5.633   4.335
    1STR    H1D  991   4.468   5.861   4.386
    1STR    H1E  992   4.772   6.158   4.447
    1STR    H1F  993   4.614   6.238   4.197
    1STR    H1G  994   4.770   6.304   4.245
    1STR    H1H  995   4.758   6.135   4.200
    1STR    H1I  996   4.605   6.279   4.578
    1STR    H1J  997   4.514   6.322   4.436
    1STR    H1K  998   4.533   6.553   4.517
    1STR    H1M  999   4.781   6.520   4.696
    1STR    H1N 1000   4.623   6.448   4.725
    1STR    H1O 1001   4.644   6.622   4.735
    1STR    H1P 1002   4.807   6.690   4.499
    1STR    H1Q 1003   4.694   6.678   4.366
    1STR    H1R 1004   4.781   6.944   4.481
    1STR    H1S 1005   4.666   7.038   4.278
    1STR    H1T 1006   4.531   6.928   4.304
    1STR    H1U 1007   4.691   6.867   4.259
    1STR    H1V 1008   4.633   7.059   4.644
    1STR    H1W 1009   4.496   7.047   4.538
    1STR    H1X 1010   4.716   7.384   4.442
    1STR    H1Y 1011   4.785   7.590   4.476
    1STR    H1Z 1012   4.780   7.822   4.410
    1STR    H20 1013   4.556   7.970   4.170
    1STR    H21 1014   4.558   8.028   4.338
    1STR    H22 1015   4.707   7.983   4.257
    1STR    H23 1016   4.328   7.729   4.142
    1STR    H27 1017   4.391   7.531   4.310
    1STR    H28 1018   4.801   5.693   4.378
    1STR    H29 1019   4.834   5.456   4.372
    1STR    H2A 1020   4.582   5.201   4.416
    1STR    H2B 1021   4.751   5.244   4.430
    1STR    H2C 1022   4.685   5.211   4.271
    1STR   BCK1 1023   4.252   5.234  13.010
    1STR    O03 1024   4.145   5.224  13.070
    1STR    N04 1025   4.292   5.348  12.949
    1STR    C05 1026   4.209   5.454  12.908
    1STR    C06 1027   4.241   5.592  12.932
    1STR    C07 1028   4.161   5.698  12.879
    1STR    N08 1029   4.197   5.836  12.897
    1STR    C09 1030   4.141   5.947  12.843
    1STR    O0A 1031   4.044   5.946  12.768
    1STR    O0B 1032   4.203   6.065  12.878
    1STR    C0C 1033   4.146   6.192  12.835
    1STR    C0D 1034   4.029   6.229  12.929
    1STR    C0E 1035   4.248   6.309  12.824
    1STR    O0F 1036   4.186   6.431  12.778
    1STR    C0G 1037   4.271   6.546  12.757
    1STR    C0H 1038   4.348   6.526  12.626
    1STR    C0I 1039   4.188   6.678  12.753
    1STR    O0J 1040   4.272   6.797  12.750
    1STR    C0K 1041   4.206   6.926  12.748
    1STR    C0M 1042   4.140   6.952  12.884
    1STR    C0N 1043   4.306   7.042  12.715
    1STR    O0O 1044   4.241   7.164  12.672
    1STR    C0P 1045   4.258   7.285  12.734
    1STR    O0Q 1046   4.320   7.303  12.838
    1STR    N0R 1047   4.191   7.379  12.666
    1STR    C0S 1048   4.144   7.507  12.700
    1STR    C0T 1049   4.007   7.527  12.673
    1STR    C0U 1050   3.941   7.644  12.713
    1STR    C0V 1051   4.012   7.747  12.776
    1STR    C0W 1052   3.931   7.853  12.851
    1STR    C0X 1053   4.153   7.743  12.783
    1STR    N0Y 1054   4.223   7.854  12.833
    1STR   BCK2 1055   4.213   7.986  12.804
    1STR    O10 1056   4.261   8.068  12.882
    1STR    C13 1057   4.218   7.618  12.753
    1STR    C14 1058   4.047   5.661  12.805
    1STR    C15 1059   4.017   5.527  12.777
    1STR    C16 1060   4.099   5.424  12.824
    1STR    C17 1061   4.069   5.283  12.775
    1STR    H1B 1062   4.386   5.346  12.915
    1STR    H1C 1063   4.327   5.614  12.993
    1STR    H1D 1064   4.275   5.857  12.956
    1STR    H1E 1065   4.105   6.178  12.734
    1STR    H1F 1066   4.064   6.245  13.031
    1STR    H1G 1067   3.980   6.320  12.895
    1STR    H1H 1068   3.954   6.150  12.931
    1STR    H1I 1069   4.327   6.278  12.756
    1STR    H1J 1070   4.295   6.326  12.921
    1STR    H1K 1071   4.341   6.553  12.840
    1STR    H1M 1072   4.280   6.512  12.542
    1STR    H1N 1073   4.415   6.441  12.629
    1STR    H1O 1074   4.409   6.614  12.604
    1STR    H1P 1075   4.122   6.677  12.667
    1STR    H1Q 1076   4.124   6.680  12.841
    1STR    H1R 1077   4.129   6.924  12.670
    1STR    H1S 1078   4.096   7.052  12.887
    1STR    H1T 1079   4.214   6.947  12.964
    1STR    H1U 1080   4.061   6.882  12.907
    1STR    H1V 1081   4.369   7.010  12.631
    1STR    H1W 1082   4.374   7.060  12.798
    1STR    H1X 1083   4.152   7.338  12.583
    1STR    H1Y 1084   3.949   7.449  12.627
    1STR    H1Z 1085   3.834   7.651  12.701
    1STR    H20 1086   3.969   7.860  12.953
    1STR    H21 1087   3.935   7.951  12.807
    1STR    H22 1088   3.826   7.825  12.858
    1STR    H23 1089   4.289   7.837  12.907
    1STR    H27 1090   4.324   7.606  12.770
    1STR    H28 1091   3.978   5.732  12.763
    1STR    H29 1092   3.931   5.504  12.715
    1STR    H2A 1093   4.160   5.232  12.746
    1STR    H2B 1094   4.004   5.284  12.687
    1STR    H2C 1095   4.019   5.225  12.852
    1STR   BCK1 1096   4.283   9.587  13.080
    1STR    O03 1097   4.369   9.516  13.130
    1STR    N04 1098   4.259   9.717  13.115
    1STR    C05 1099   4.306   9.805  13.218
    1STR    C06 1100   4.302   9.949  13.201
    1STR    C07 1101   4.339  10.044  13.303
    1STR    N08 1102   4.330  10.186  13.285
    1STR    C09 1103   4.345  10.289  13.374
    1STR    O0A 1104   4.371  10.274  13.493
    1STR    O0B 1105   4.326  10.417  13.320
    1STR    C0C 1106   4.344  10.538  13.401
    1STR    C0D 1107   4.494  10.570  13.414
    1STR    C0E 1108   4.266  10.664  13.346
    1STR    O0F 1109   4.286  10.787  13.421
    1STR    C0G 1110   4.211  10.905  13.379
    1STR    C0H 1111   4.065  10.888  13.424
    1STR    C0I 1112   4.267  11.041  13.433
    1STR    O0J 1113   4.204  11.158  13.372
    1STR    C0K 1114   4.249  11.292  13.409
    1STR    C0M 1115   4.393  11.313  13.360
    1STR    C0N 1116   4.157  11.405  13.348
    1STR    O0O 1117   4.195  11.540  13.384
    1STR    C0P 1118   4.183  11.647  13.297
    1STR    O0Q 1119   4.157  11.638  13.177
    1STR    N0R 1120   4.207  11.763  13.361
    1STR    C0S 1121   4.220  11.899  13.324
    1STR    C0T 1122   4.262  11.983  13.430
    1STR    C0U 1123   4.291  12.119  13.409
    1STR    C0V 1124   4.274  12.177  13.282
    1STR    C0W 1125   4.323  12.320  13.263
    1STR    C0X 1126   4.221  12.101  13.175
    1STR    N0Y 1127   4.206  12.164  13.049
    1STR   BCK2 1128   4.116  12.260  13.017
    1STR    O10 1129   4.001  12.226  12.991
    1STR    C13 1130   4.198  11.961  13.196
    1STR    C14 1131   4.386   9.989  13.424
    1STR    C15 1132   4.390   9.851  13.445
    1STR    C16 1133   4.348   9.759  13.347
    1STR    C17 1134   4.344   9.614  13.392
    1STR    H1B 1135   4.194   9.760  13.051
    1STR    H1C 1136   4.268   9.987  13.106
    1STR    H1D 1137   4.307  10.220  13.194
    1STR    H1E 1138   4.305  10.517  13.501
    1STR    H1F 1139   4.540  10.590  13.318
    1STR    H1G 1140   4.509  10.657  13.478
    1STR    H1H 1141   4.548  10.487  13.461
    1STR    H1I 1142   4.161  10.638  13.344
    1STR    H1J 1143   4.296  10.681  13.243
    1STR    H1K 1144   4.215  10.910  13.270
    1STR    H1M 1145   4.058  10.874  13.532
    1STR    H1N 1146   4.016  10.803  13.376
    1STR    H1O 1147   4.006  10.976  13.398
    1STR    H1P 1148   4.257  11.046  13.541
    1STR    H1Q 1149   4.374  11.043  13.413
    1STR    H1R 1150   4.247  11.300  13.518
    1STR    H1S 1151   4.427  11.414  13.384
    1STR    H1T 1152   4.399  11.301  13.252
    1STR    H1U 1153   4.464  11.245  13.406
    1STR    H1V 1154   4.055  11.390  13.384
    1STR    H1W 1155   4.153  11.394  13.240
    1STR    H1X 1156   4.221  11.743  13.458
    1STR    H1Y 1157   4.278  11.943  13.529
    1STR    H1Z 1158   4.329  12.177  13.492
    1STR    H20 1159   4.395  12.324  13.181
    1STR    H21 1160   4.241  12.388  13.239
    1STR    H22 1161   4.374  12.358  13.352
    1STR    H23 1162   4.249  12.120  12.970
    1STR    H27 1163   4.163  11.900  13.115
    1STR    H28 1164   4.420  10.051  13.506
    1STR    H29 1165   4.424   9.815  13.541
    1STR    H2A 1166   4.257   9.562  13.352
    1STR    H2B 1167   4.339   9.606  13.501
    1STR    H2C 1168   4.436   9.563  13.361
    1STR   BCK1 1169   4.298  13.970  17.292
    1STR    O03 1170   4.236  13.979  17.186
    1STR    N04 1171   4.375  14.069  17.343
    1STR    C05 1172   4.442  14.172  17.273
    1STR    C06 1173   4.431  14.312  17.303
    1STR    C07 1174   4.511  14.412  17.237
    1STR    N08 1175   4.505  14.551  17.269
    1STR    C09 1176   4.558  14.659  17.204
    1STR    O0A 1177   4.616  14.652  17.096
    1STR    O0B 1178   4.540  14.781  17.268
    1STR    C0C 1179   4.584  14.905  17.205
    1STR    C0D 1180   4.483  14.944  17.096
    1STR    C0E 1181   4.606  15.026  17.304
    1STR    O0F 1182   4.644  15.150  17.237
    1STR    C0G 1183   4.669  15.267  17.319
    1STR    C0H 1184   4.807  15.252  17.386
    1STR    C0I 1185   4.663  15.400  17.235
    1STR    O0J 1186   4.661  15.523  17.314
    1STR    C0K 1187   4.642  15.649  17.242
    1STR    C0M 1188   4.499  15.656  17.187
    1STR    C0N 1189   4.666  15.778  17.328
    1STR    O0O 1190   4.659  15.899  17.249
    1STR    C0P 1191   4.582  16.009  17.283
    1STR    O0Q 1192   4.500  16.014  17.374
    1STR    N0R 1193   4.615  16.112  17.202
    1STR    C0S 1194   4.581  16.248  17.188
    1STR    C0T 1195   4.684  16.328  17.136
    1STR    C0U 1196   4.665  16.465  17.112
    1STR    C0V 1197   4.542  16.528  17.137
    1STR    C0W 1198   4.539  16.678  17.116
    1STR    C0X 1199   4.432  16.453  17.186
    1STR    N0Y 1200   4.306  16.510  17.221
    1STR   BCK2 1201   4.223  16.615  17.194
    1STR    O10 1202   4.122  16.624  17.262
    1STR    C13 1203   4.454  16.313  17.214
    1STR    C14 1204   4.602  14.364  17.140
    1STR    C15 1205   4.617  14.227  17.112
    1STR    C16 1206   4.541  14.131  17.180
    1STR    C17 1207   4.572  13.984  17.156
    1STR    H1B 1208   4.407  14.052  17.437
    1STR    H1C 1209   4.360  14.343  17.378
    1STR    H1D 1210   4.454  14.578  17.351
    1STR    H1E 1211   4.680  14.886  17.157
    1STR    H1F 1212   4.384  14.963  17.138
    1STR    H1G 1213   4.516  15.034  17.043
    1STR    H1H 1214   4.473  14.865  17.021
    1STR    H1I 1215   4.683  14.997  17.376
    1STR    H1J 1216   4.515  15.043  17.361
    1STR    H1K 1217   4.592  15.273  17.396
    1STR    H1M 1218   4.886  15.238  17.311
    1STR    H1N 1219   4.811  15.167   0.014
    1STR    H1O 1220   4.832  15.341   0.004
    1STR    H1P 1221   4.746  15.403  17.165
    1STR    H1Q 1222   4.573  15.394  17.175
    1STR    H1R 1223   4.714  15.651  17.159
    1STR    H1S 1224   4.482  15.751  17.138
    1STR    H1T 1225   4.427  15.648  17.269
    1STR    H1U 1226   4.478  15.578  17.114
    1STR    H1V 1227   4.766  15.773  17.373
    1STR    H1W 1228   4.597  15.782  17.413
    1STR    H1X 1229   4.688  16.080  17.141
    1STR    H1Y 1230   4.781  16.286  17.116
    1STR    H1Z 1231   4.749  16.522  17.074
    1STR    H20 1232   4.495  16.700  17.019
    1STR    H21 1233   4.484  16.728  17.195
    1STR    H22 1234   4.640  16.721  17.115
    1STR    H23 1235   4.258  16.456  17.290
    1STR    H27 1236   4.375  16.252  17.255
    1STR    H28 1237   4.667  14.430  17.085
    1STR    H29 1238   4.690  14.196  17.039
    1STR    H2A 1239   4.580  13.931  17.251
    1STR    H2B 1240   4.667  13.971  17.103
    1STR    H2C 1241   4.493  13.938  17.097
    1STR   BCK1 1242  12.983   0.871   4.273
    1STR    O03 1243  13.084   0.811   4.306
    1STR    N04 1244  12.969   0.998   4.317
    1STR    C05 1245  12.865   1.092   4.336
    1STR    C06 1246  12.893   1.232   4.324
    1STR    C07 1247  12.799   1.333   4.362
    1STR    N08 1248  12.829   1.472   4.351
    1STR    C09 1249  12.753   1.581   4.377
    1STR    O0A 1250  12.637   1.577   4.417
    1STR    O0B 1251  12.817   1.700   4.353
    1STR    C0C 1252  12.749   1.826   4.378
    1STR    C0D 1253  12.756   1.861   4.528
    1STR    C0E 1254  12.803   1.943   4.292
    1STR    O0F 1255  12.729   2.065   4.314
    1STR    C0G 1256  12.766   2.180   4.235
    1STR    C0H 1257  12.710   2.162   4.093
    1STR    C0I 1258  12.712   2.312   4.298
    1STR    O0J 1259  12.760   2.429   4.228
    1STR    C0K 1260  12.719   2.557   4.279
    1STR    C0M 1261  12.791   2.587   4.412
    1STR    C0N 1262  12.750   2.670   4.176
    1STR    O0O 1263  12.686   2.794   4.212
    1STR    C0P 1264  12.749   2.915   4.199
    1STR    O0Q 1265  12.866   2.932   4.166
    1STR    N0R 1266  12.664   3.012   4.235
    1STR    C0S 1267  12.681   3.149   4.262
    1STR    C0T 1268  12.602   3.199   4.366
    1STR    C0U 1269  12.613   3.332   4.407
    1STR    C0V 1270  12.700   3.422   4.342
    1STR    C0W 1271  12.714   3.559   4.405
    1STR    C0X 1272  12.772   3.379   4.226
    1STR    N0Y 1273  12.838   3.467   4.137
    1STR   BCK2 1274  12.835   3.601   4.125
    1STR    O10 1275  12.875   3.680   4.210
    1STR    C13 1276  12.765   3.240   4.191
    1STR    C14 1277  12.676   1.288   4.415
    1STR    C15 1278  12.647   1.151   4.428
    1STR    C16 1279  12.740   1.053   4.390
    1STR    C17 1280  12.703   0.909   4.421
    1STR    H1B 1281  13.058   1.028   4.353
    1STR    H1C 1282  12.989   1.262   4.286
    1STR    H1D 1283  12.921   1.497   4.320
    1STR    H1E 1284  12.644   1.814   4.351
    1STR    H1F 1285  12.859   1.876   4.561
    1STR    H1G 1286  12.701   1.952   4.549
    1STR    H1H 1287  12.713   1.782   4.589
    1STR    H1I 1288  12.797   1.914   4.187
    1STR    H1J 1289  12.909   1.960   4.314
    1STR    H1K 1290  12.875   2.187   4.231
    1STR    H1M 1291  12.602   2.149   4.094
    1STR    H1N 1292  12.754   2.077   4.041
    1STR    H1O 1293  12.732   2.250   4.032
    1STR    H1P 1294  12.603   2.310   4.299
    1STR    H1Q 1295  12.744   2.314   4.402
    1STR    H1R 1296  12.611   2.556   4.295
    1STR    H1S 1297  12.766   2.687   4.448
    1STR    H1T 1298  12.899   2.583   4.399
    1STR    H1U 1299  12.764   2.517   4.491
    1STR    H1V 1300  12.713   2.642   4.078
    1STR    H1W 1301  12.858   2.683   4.165
    1STR    H1X 1302  12.575   2.973   4.257
    1STR    H1Y 1303  12.534   3.135   4.420
    1STR    H1Z 1304  12.555   3.366   4.492
    1STR    H20 1305  12.819   3.577   4.429
    1STR    H21 1306  12.677   3.638   4.340
    1STR    H22 1307  12.658   3.567   4.499
    1STR    H23 1308  12.877   3.423   4.056
    1STR    H27 1309  12.822   3.202   4.108
    1STR    H28 1310  12.600   1.355   4.450
    1STR    H29 1311  12.552   1.123   4.471
    1STR    H2A 1312  12.669   0.860   4.330
    1STR    H2B 1313  12.621   0.903   4.492
    1STR    H2C 1314  12.787   0.854   4.463
    1STR   BCK1 1315  13.083   5.238  17.393
    1STR    O03 1316  13.182   5.167  17.386
    1STR    N04 1317  13.080   5.365   0.005
    1STR    C05 1318  13.177   5.450   0.069
    1STR    C06 1319  13.160   5.593   0.066
    1STR    C07 1320  13.251   5.687   0.128
    1STR    N08 1321  13.230   5.829   0.129
    1STR    C09 1322  13.307   5.931   0.176
    1STR    O0A 1323  13.418   5.916   0.226
    1STR    O0B 1324  13.250   6.058   0.164
    1STR    C0C 1325  13.323   6.179   0.204
    1STR    C0D 1326  13.427   6.213   0.095
    1STR    C0E 1327  13.233   6.305   0.233
    1STR    O0F 1328  13.304   6.429   0.263
    1STR    C0G 1329  13.225   6.547   0.296
    1STR    C0H 1330  13.173   6.532   0.440
    1STR    C0I 1331  13.302   6.684   0.281
    1STR    O0J 1332  13.217   6.803   0.288
    1STR    C0K 1333  13.276   6.935   0.267
    1STR    C0M 1334  13.329   6.947   0.124
    1STR    C0N 1335  13.174   7.053   0.292
    1STR    O0O 1336  13.227   7.187   0.268
    1STR    C0P 1337  13.155   7.288   0.205
    1STR    O0Q 1338  13.049   7.274   0.146
    1STR    N0R 1339  13.220   7.406   0.218
    1STR    C0S 1340  13.205   7.540   0.176
    1STR    C0T 1341  13.298   7.627   0.237
    1STR    C0U 1342  13.309   7.762   0.199
    1STR    C0V 1343  13.226   7.816   0.099
    1STR    C0W 1344  13.260   7.957   0.053
    1STR    C0X 1345  13.122   7.738   0.041
    1STR    N0Y 1346  13.041   7.793  17.378
    1STR   BCK2 1347  12.980   7.914  17.366
    1STR    O10 1348  12.969   7.996   0.017
    1STR    C13 1349  13.116   7.598   0.079
    1STR    C14 1350  13.365   5.630   0.190
    1STR    C15 1351  13.382   5.491   0.197
    1STR    C16 1352  13.289   5.401   0.143
    1STR    C17 1353  13.314   5.255   0.176
    1STR    H1B 1354  12.990   5.406  17.432
    1STR    H1C 1355  13.074   5.633   0.016
    1STR    H1D 1356  13.144   5.863   0.089
    1STR    H1E 1357  13.378   6.156   0.296
    1STR    H1F 1358  13.379   6.235  -0.000
    1STR    H1G 1359  13.486   6.300   0.124
    1STR    H1H 1360  13.497   6.131   0.080
    1STR    H1I 1361  13.168   6.279   0.317
    1STR    H1J 1362  13.167   6.322   0.148
    1STR    H1K 1363  13.140   6.552   0.227
    1STR    H1M 1364  13.255   6.518   0.510
    1STR    H1N 1365  13.106   6.447   0.451
    1STR    H1O 1366  13.117   6.620   0.471
    1STR    H1P 1367  13.380   6.691   0.358
    1STR    H1Q 1368  13.354   6.681   0.186
    1STR    H1R 1369  13.359   6.947   0.337
    1STR    H1S 1370  13.371   7.046   0.106
    1STR    H1T 1371  13.248   6.933   0.052
    1STR    H1U 1372  13.408   6.875   0.101
    1STR    H1V 1373  13.142   7.050   0.396
    1STR    H1W 1374  13.084   7.038   0.233
    1STR    H1X 1375  13.301   7.388   0.275
    1STR    H1Y 1376  13.367   7.592   0.312
    1STR    H1Z 1377  13.385   7.823   0.245
    1STR    H20 1378  13.243   7.970  17.386
    1STR    H21 1379  13.202   8.031   0.108
    1STR    H22 1380  13.366   7.980   0.070
    1STR    H23 1381  13.025   7.734  17.298
    1STR    H27 1382  13.042   7.534   0.033
    1STR    H28 1383  13.441   5.690   0.237
    1STR    H29 1384  13.469   5.454   0.250
    1STR    H2A 1385  13.221   5.202   0.193
    1STR    H2B 1386  13.373   5.244   0.267
    1STR    H2C 1387  13.370   5.207   0.095
    1STR   BCK1 1388  12.957   5.243  12.980
    1STR    O03 1389  12.836   5.250  12.958
    1STR    N04 1390  13.042   5.344  12.957
    1STR    C05 1391  13.020   5.451  12.869
    1STR    C06 1392  13.032   5.590  12.905
    1STR    C07 1393  13.016   5.695  12.809
    1STR    N08 1394  13.035   5.832  12.842
    1STR    C09 1395  13.011   5.944  12.768
    1STR    O0A 1396  12.958   5.942  12.657
    1STR    O0B 1397  13.052   6.062  12.827
    1STR    C0C 1398  13.028   6.188  12.758
    1STR    C0D 1399  12.881   6.228  12.775
    1STR    C0E 1400  13.122   6.304  12.803
    1STR    O0F 1401  13.095   6.427  12.731
    1STR    C0G 1402  13.177   6.542  12.761
    1STR    C0H 1403  13.313   6.525  12.692
    1STR    C0I 1404  13.107   6.673  12.716
    1STR    O0J 1405  13.172   6.793  12.764
    1STR    C0K 1406  13.108   6.919  12.732
    1STR    C0M 1407  12.977   6.934  12.811
    1STR    C0N 1408  13.197   7.043  12.764
    1STR    O0O 1409  13.138   7.162  12.708
    1STR    C0P 1410  13.126   7.281  12.774
    1STR    O0Q 1411  13.148   7.301  12.893
    1STR    N0R 1412  13.089   7.372  12.684
    1STR    C0S 1413  13.069   7.511  12.675
    1STR    C0T 1414  13.095   7.559  12.546
    1STR    C0U 1415  13.071   7.692  12.512
    1STR    C0V 1416  13.016   7.782  12.605
    1STR    C0W 1417  12.990   7.919  12.548
    1STR    C0X 1418  12.986   7.740  12.738
    1STR    N0Y 1419  12.915   7.817  12.835
    1STR   BCK2 1420  12.864   7.940  12.861
    1STR    O10 1421  12.782   7.949  12.951
    1STR    C13 1422  13.016   7.603  12.771
    1STR    C14 1423  12.984   5.656  12.677
    1STR    C15 1424  12.974   5.521  12.640
    1STR    C16 1425  12.996   5.419  12.733
    1STR    C17 1426  12.999   5.275  12.682
    1STR    H1B 1427  13.136   5.330  12.990
    1STR    H1C 1428  13.056   5.614  13.008
    1STR    H1D 1429  13.071   5.854  12.933
    1STR    H1E 1430  13.047   6.172  12.652
    1STR    H1F 1431  12.855   6.245  12.879
    1STR    H1G 1432  12.859   6.319  12.719
    1STR    H1H 1433  12.814   6.151  12.736
    1STR    H1I 1434  13.225   6.273  12.787
    1STR    H1J 1435  13.111   6.321  12.910
    1STR    H1K 1436  13.191   6.548  12.869
    1STR    H1M 1437  13.301   6.512  12.584
    1STR    H1N 1438  13.369   6.440  12.729
    1STR    H1O 1439  13.375   6.614  12.707
    1STR    H1P 1440  13.101   6.676  12.607
    1STR    H1Q 1441  13.004   6.669  12.752
    1STR    H1R 1442  13.087   6.921  12.625
    1STR    H1S 1443  12.931   7.031  12.792
    1STR    H1T 1444  12.996   6.928  12.918
    1STR    H1U 1445  12.903   6.859  12.785
    1STR    H1V 1446  13.295   7.031  12.717
    1STR    H1W 1447  13.216   7.054  12.871
    1STR    H1X 1448  13.083   7.323  12.597
    1STR    H1Y 1449  13.135   7.494  12.469
    1STR    H1Z 1450  13.092   7.723  12.411
    1STR    H20 1451  12.885   7.944  12.558
    1STR    H21 1452  13.055   7.991  12.599
    1STR    H22 1453  13.014   7.926  12.442
    1STR    H23 1454  12.888   7.762  12.915
    1STR    H27 1455  12.995   7.564  12.870
    1STR    H28 1456  12.968   5.726  12.597
    1STR    H29 1457  12.952   5.496  12.537
    1STR    H2A 1458  13.083   5.222  12.725
    1STR    H2B 1459  13.010   5.271  12.574
    1STR    H2C 1460  12.907   5.223  12.709
    1STR   BCK1 1461  12.999  13.957   8.710
    1STR    O03 1462  13.101  13.937   8.775
    1STR    N04 1463  12.928  14.071   8.722
    1STR    C05 1464  12.928  14.165   8.828
    1STR    C06 1465  12.933  14.307   8.805
    1STR    C07 1466  12.924  14.405   8.911
    1STR    N08 1467  12.928  14.545   8.886
    1STR    C09 1468  12.898  14.650   8.969
    1STR    O0A 1469  12.856  14.638   9.083
    1STR    O0B 1470  12.916  14.775   8.911
    1STR    C0C 1471  12.892  14.898   8.987
    1STR    C0D 1472  13.013  14.930   9.076
    1STR    C0E 1473  12.856  15.022   8.897
    1STR    O0F 1474  12.832  15.145   8.971
    1STR    C0G 1475  12.791  15.261   8.894
    1STR    C0H 1476  12.645  15.244   8.852
    1STR    C0I 1477  12.809  15.397   8.972
    1STR    O0J 1478  12.785  15.514   8.888
    1STR    C0K 1479  12.800  15.646   8.946
    1STR    C0M 1480  12.948  15.672   8.977
    1STR    C0N 1481  12.747  15.758   8.850
    1STR    O0O 1482  12.749  15.891   8.907
    1STR    C0P 1483  12.777  16.004   8.832
    1STR    O0Q 1484  12.816  16.004   8.716
    1STR    N0R 1485  12.758  16.114   8.906
    1STR    C0S 1486  12.783  16.252   8.889
    1STR    C0T 1487  12.787  16.326   9.009
    1STR    C0U 1488  12.821  16.462   9.011
    1STR    C0V 1489  12.849  16.531   8.892
    1STR    C0W 1490  12.901  16.673   8.901
    1STR    C0X 1491  12.836  16.464   8.767
    1STR    N0Y 1492  12.860  16.537   8.649
    1STR   BCK2 1493  12.772  16.621   8.591
    1STR    O10 1494  12.693  16.574   8.510
    1STR    C13 1495  12.807  16.323   8.767
    1STR    C14 1496  12.912  14.353   9.041
    1STR    C15 1497  12.905  14.215   9.066
    1STR    C16 1498  12.911  14.121   8.962
    1STR    C17 1499  12.895  13.975   8.999
    1STR    H1B 1500  12.867  14.090   8.644
    1STR    H1C 1501  12.944  14.342   8.703
    1STR    H1D 1502  12.958  14.576   8.796
    1STR    H1E 1503  12.806  14.880   9.053
    1STR    H1F 1504  13.103  14.948   9.017
    1STR    H1G 1505  12.995  15.018   9.137
    1STR    H1H 1506  13.035  14.848   9.145
    1STR    H1I 1507  12.768  14.995   8.839
    1STR    H1J 1508  12.937  15.039   8.826
    1STR    H1K 1509  12.854  15.267   8.805
    1STR    H1M 1510  12.580  15.231   8.939
    1STR    H1N 1511  12.630  15.159   8.786
    1STR    H1O 1512  12.609  15.333   8.798
    1STR    H1P 1513  12.742  15.399   9.058
    1STR    H1Q 1514  12.910  15.400   9.011
    1STR    H1R 1515  12.742  15.651   9.039
    1STR    H1S 1516  12.963  15.773   9.016
    1STR    H1T 1517  13.009  15.663   8.886
    1STR    H1U 1518  12.989  15.603   9.051
    1STR    H1V 1519  12.643  15.737   8.823
    1STR    H1W 1520  12.803  15.756   8.756
    1STR    H1X 1521  12.721  16.087   8.996
    1STR    H1Y 1522  12.768  16.277   9.104
    1STR    H1Z 1523  12.829  16.513   9.106
    1STR    H20 1524  13.005  16.675   8.867
    1STR    H21 1525  12.844  16.742   8.840
    1STR    H22 1526  12.900  16.710   9.004
    1STR    H23 1527  12.923  16.494   8.584
    1STR    H27 1528  12.801  16.270   8.673
    1STR    H28 1529  12.907  14.418   9.128
    1STR    H29 1530  12.893  14.182   9.168
    1STR    H2A 1531  12.831  13.923   8.927
    1STR    H2B 1532  12.851  13.962   9.097
    1STR    H2C 1533  12.992  13.926   9.000
    1STR   BCK1 1534  13.069  13.964  12.934
    1STR    O03 1535  13.139  13.910  12.849
    1STR    N04 1536  13.098  14.082  12.997
    1STR    C05 1537  13.209  14.172  12.988
    1STR    C06 1538  13.191  14.314  13.005
    1STR    C07 1539  13.299  14.409  12.995
    1STR    N08 1540  13.281  14.550  13.017
    1STR    C09 1541  13.364  14.655  12.992
    1STR    O0A 1542  13.472  14.643  12.934
    1STR    O0B 1543  13.318  14.779  13.035
    1STR    C0C 1544  13.392  14.902  13.005
    1STR    C0D 1545  13.368  14.939  12.858
    1STR    C0E 1546  13.359  15.026  13.098
    1STR    O0F 1547  13.426  15.150  13.061
    1STR    C0G 1548  13.403  15.269  13.143
    1STR    C0H 1549  13.485  15.254  13.273
    1STR    C0I 1550  13.441  15.404  13.070
    1STR    O0J 1551  13.396  15.526  13.135
    1STR    C0K 1552  13.416  15.654  13.067
    1STR    C0M 1553  13.329  15.659  12.941
    1STR    C0N 1554  13.382  15.781  13.153
    1STR    O0O 1555  13.407  15.907  13.084
    1STR    C0P 1556  13.317  16.013  13.080
    1STR    O0Q 1557  13.201  16.009  13.120
    1STR    N0R 1558  13.376  16.122  13.028
    1STR    C0S 1559  13.341  16.257  12.999
    1STR    C0T 1560  13.452  16.343  12.984
    1STR    C0U 1561  13.436  16.478  12.950
    1STR    C0V 1562  13.309  16.534  12.928
    1STR    C0W 1563  13.306  16.682  12.895
    1STR    C0X 1564  13.192  16.454  12.942
    1STR    N0Y 1565  13.058  16.504  12.936
    1STR   BCK2 1566  12.978  16.606  12.893
    1STR    O10 1567  12.861  16.600  12.929
    1STR    C13 1568  13.212  16.315  12.979
    1STR    C14 1569  13.426  14.356  12.965
    1STR    C15 1570  13.447  14.218  12.954
    1STR    C16 1571  13.342  14.125  12.970
    1STR    C17 1572  13.382  13.979  12.977
    1STR    H1B 1573  13.024  14.110  13.059
    1STR    H1C 1574  13.092  14.351  13.026
    1STR    H1D 1575  13.195  14.580  13.059
    1STR    H1E 1576  13.499  14.881  13.017
    1STR    H1F 1577  13.263  14.960  12.838
    1STR    H1G 1578  13.425  15.028  12.830
    1STR    H1H 1579  13.400  14.859  12.791
    1STR    H1I 1580  13.386  14.999  13.200
    1STR    H1J 1581  13.251  15.043  13.098
    1STR    H1K 1582  13.297  15.274  13.167
    1STR    H1M 1583  13.591  15.240  13.251
    1STR    H1N 1584  13.452  15.169  13.333
    1STR    H1O 1585  13.475  15.343  13.335
    1STR    H1P 1586  13.549  15.408  13.056
    1STR    H1Q 1587  13.398  15.398  12.970
    1STR    H1R 1588  13.521  15.661  13.039
    1STR    H1S 1589  13.340  15.755  12.891
    1STR    H1T 1590  13.224  15.648  12.967
    1STR    H1U 1591  13.354  15.583  12.868
    1STR    H1V 1592  13.444  15.781  13.243
    1STR    H1W 1593  13.279  15.777  13.189
    1STR    H1X 1594  13.471  16.098  13.009
    1STR    H1Y 1595  13.552  16.306  13.000
    1STR    H1Z 1596  13.525  16.539  12.941
    1STR    H20 1597  13.271  16.695  12.792
    1STR    H21 1598  13.241  16.736  12.964
    1STR    H22 1599  13.405  16.727  12.899
    1STR    H23 1600  12.995  16.442  12.983
    1STR    H27 1601  13.126  16.251  12.992
    1STR    H28 1602  13.513  14.418  12.953
    1STR    H29 1603  13.547  14.182  12.935
    1STR    H2A 1604  13.317  13.923  13.043
    1STR    H2B 1605  13.484  13.968  13.015
    1STR    H2C 1606  13.380  13.934  12.878
    1STR   BCK1 1607   0.075  13.137   5.228
    1STR    O03 1608  17.434  13.215   5.178
    1STR    N04 1609   0.126  13.147   5.352
    1STR    C05 1610   0.117  13.251   5.447
    1STR    C06 1611   0.109  13.221   5.586
    1STR    C07 1612   0.113  13.322   5.687
    1STR    N08 1613   0.111  13.290   5.825
    1STR    C09 1614   0.139  13.368   5.932
    1STR    O0A 1615   0.173  13.486   5.925
    1STR    O0B 1616   0.126  13.303   6.051
    1STR    C0C 1617   0.145  13.375   6.175
    1STR    C0D 1618   0.014  13.446   6.214
    1STR    C0E 1619   0.195  13.284   6.289
    1STR    O0F 1620   0.218  13.362   6.407
    1STR    C0G 1621   0.266  13.291   6.522
    1STR    C0H 1622   0.417  13.266   6.508
    1STR    C0I 1623   0.236  13.374   6.649
    1STR    O0J 1624   0.274  13.300   6.765
    1STR    C0K 1625   0.254  13.364   6.891
    1STR    C0M 1626   0.106  13.355   6.932
    1STR    C0N 1627   0.345  13.293   6.993
    1STR    O0O 1628   0.347  13.362   7.118
    1STR    C0P 1629   0.282  13.313   7.224
    1STR    O0Q 1630   0.213  13.211   7.223
    1STR    N0R 1631   0.304  13.391   7.331
    1STR    C0S 1632   0.257  13.381   7.462
    1STR    C0T 1633   0.275  13.492   7.548
    1STR    C0U 1634   0.225  13.489   7.680
    1STR    C0V 1635   0.158  13.376   7.730
    1STR    C0W 1636   0.096  13.381   7.869
    1STR    C0X 1637   0.144  13.262   7.647
    1STR    N0Y 1638   0.072  13.149   7.683
    1STR   BCK2 1639   0.093  13.057   7.777
    1STR    O10 1640   0.021  12.958   7.778
    1STR    C13 1641   0.193  13.266   7.514
    1STR    C14 1642   0.121  13.456   5.643
    1STR    C15 1643   0.132  13.488   5.507
    1STR    C16 1644   0.133  13.387   5.409
    1STR    C17 1645   0.160  13.432   5.266
    1STR    H1B 1646   0.185  13.069   5.376
    1STR    H1C 1647   0.100  13.118   5.616
    1STR    H1D 1648   0.088  13.196   5.852
    1STR    H1E 1649   0.222  13.451   6.160
    1STR    H1F 1650  17.374  13.375   6.232
    1STR    H1G 1651   0.028  13.505   6.305
    1STR    H1H 1652  17.422  13.515   6.136
    1STR    H1I 1653   0.288  13.236   6.258
    1STR    H1J 1654   0.123  13.205   6.309
    1STR    H1K 1655   0.213  13.196   6.532
    1STR    H1M 1656   0.471  13.360   6.496
    1STR    H1N 1657   0.440  13.203   6.423
    1STR    H1O 1658   0.456  13.217   6.597
    1STR    H1P 1659   0.289  13.469   6.645
    1STR    H1Q 1660   0.129  13.398   6.652
    1STR    H1R 1661   0.286  13.468   6.885
    1STR    H1S 1662   0.090  13.400   7.030
    1STR    H1T 1663   0.074  13.252   6.938
    1STR    H1U 1664   0.041  13.407   6.862
    1STR    H1V 1665   0.447  13.291   6.956
    1STR    H1W 1666   0.316  13.188   7.004
    1STR    H1X 1667   0.361  13.470   7.307
    1STR    H1Y 1668   0.324  13.581   7.513
    1STR    H1Z 1669   0.237  13.576   7.743
    1STR    H20 1670   0.001  13.328   7.871
    1STR    H21 1671   0.162  13.335   7.942
    1STR    H22 1672   0.078  13.484   7.900
    1STR    H23 1673  17.437  13.122   7.622
    1STR    H27 1674   0.179  13.179   7.453
    1STR    H28 1675   0.121  13.540   5.710
    1STR    H29 1676   0.142  13.591   5.478
    1STR    H2A 1677   0.221  13.359   5.212
    1STR    H2B 1678   0.215  13.526   5.264
    1STR    H2C 1679   0.066  13.447   5.213
    1STR   BCK1 1680   4.367   4.346  13.961
    1STR    O03 1681   4.380   4.230  13.924
    1STR    N04 1682   4.307   4.385  14.076
    1STR    C05 1683   4.224   4.313  14.165
    1STR    C06 1684   4.239   4.326  14.307
    1STR    C07 1685   4.147   4.266  14.400
    1STR    N08 1686   4.160   4.285  14.540
    1STR    C09 1687   4.083   4.242  14.643
    1STR    O0A 1688   3.982   4.173  14.630
    1STR    O0B 1689   4.127   4.285  14.766
    1STR    C0C 1690   4.057   4.243  14.886
    1STR    C0D 1691   4.103   4.101  14.926
    1STR    C0E 1692   4.078   4.342  15.004
    1STR    O0F 1693   4.009   4.298  15.123
    1STR    C0G 1694   4.022   4.381  15.239
    1STR    C0H 1695   3.927   4.502  15.225
    1STR    C0I 1696   3.989   4.301  15.368
    1STR    O0J 1697   4.012   4.383  15.483
    1STR    C0K 1698   3.986   4.323  15.611
    1STR    C0M 1699   4.099   4.226  15.648
    1STR    C0N 1700   3.976   4.437  15.715
    1STR    O0O 1701   3.940   4.390  15.845
    1STR    C0P 1702   4.030   4.383  15.944
    1STR    O0Q 1703   4.149   4.409  15.934
    1STR    N0R 1704   3.969   4.342  16.056
    1STR    C0S 1705   4.018   4.313  16.184
    1STR    C0T 1706   3.924   4.263  16.276
    1STR    C0U 1707   3.965   4.222  16.404
    1STR    C0V 1708   4.100   4.231  16.443
    1STR    C0W 1709   4.136   4.171  16.578
    1STR    C0X 1710   4.195   4.290  16.356
    1STR    N0Y 1711   4.330   4.305  16.392
    1STR   BCK2 1712   4.380   4.369  16.499
    1STR    O10 1713   4.309   4.417  16.587
    1STR    C13 1714   4.153   4.327  16.226
    1STR    C14 1715   4.042   4.190  14.345
    1STR    C15 1716   4.025   4.177  14.206
    1STR    C16 1717   4.113   4.240  14.116
    1STR    C17 1718   4.079   4.232  13.968
    1STR    H1B 1719   4.320   4.482  14.096
    1STR    H1C 1720   4.321   4.384  14.345
    1STR    H1D 1721   4.239   4.339  14.573
    1STR    H1E 1722   3.950   4.240  14.866
    1STR    H1F 1723   4.209   4.098  14.948
    1STR    H1G 1724   4.049   4.067  15.014
    1STR    H1H 1725   4.082   4.030  14.846
    1STR    H1I 1726   4.041   4.440  14.974
    1STR    H1J 1727   4.185   4.353  15.025
    1STR    H1K 1728   4.125   4.416  15.248
    1STR    H1M 1729   3.824   4.470  15.214
    1STR    H1N 1730   3.953   4.565  15.141
    1STR    H1O 1731   3.932   4.565  15.314
    1STR    H1P 1732   3.885   4.268  15.365
    1STR    H1Q 1733   4.051   4.212  15.371
    1STR    H1R 1734   3.891   4.270  15.609
    1STR    H1S 1735   4.082   4.182  15.747
    1STR    H1T 1736   4.195   4.278  15.653
    1STR    H1U 1737   4.109   4.144  15.578
    1STR    H1V 1738   3.899   4.507  15.684
    1STR    H1W 1739   4.068   4.495  15.719
    1STR    H1X 1740   3.871   4.329  16.040
    1STR    H1Y 1741   3.820   4.252  16.251
    1STR    H1Z 1742   3.892   4.181  16.473
    1STR    H20 1743   4.240   4.139  16.579
    1STR    H21 1744   4.119   4.244  16.656
    1STR    H22 1745   4.077   4.082  16.599
    1STR    H23 1746   4.399   4.272  16.326
    1STR    H27 1747   4.226   4.369  16.158
    1STR    H28 1748   3.968   4.140  14.405
    1STR    H29 1749   3.941   4.121  14.169
    1STR    H2A 1750   4.100   4.326  13.917
    1STR    H2B 1751   3.973   4.211  13.953
    1STR    H2C 1752   4.137   4.152  13.920
    1STR   BCK1 1753   8.839   0.057  13.967
    1STR    O03 1754   8.931   0.136  13.956
    1STR    N04 1755   8.824  17.413  14.071
    1STR    C05 1756   8.919  17.386  14.170
    1STR    C06 1757   8.887  17.392  14.309
    1STR    C07 1758   8.984  17.360  14.409
    1STR    N08 1759   8.950  17.361  14.547
    1STR    C09 1760   9.028  17.344  14.655
    1STR    O0A 1761   9.150  17.332  14.652
    1STR    O0B 1762   8.958  17.341  14.772
    1STR    C0C 1763   9.029  17.326  14.896
    1STR    C0D 1764   9.087   0.022  14.939
    1STR    C0E 1765   8.941  17.265  15.008
    1STR    O0F 1766   9.020  17.249  15.126
    1STR    C0G 1767   8.952  17.194  15.239
    1STR    C0H 1768   8.941  17.041  15.224
    1STR    C0I 1769   9.029  17.231  15.368
    1STR    O0J 1770   8.954  17.186  15.481
    1STR    C0K 1771   9.015  17.204  15.609
    1STR    C0M 1772   9.001  17.351  15.653
    1STR    C0N 1773   8.942  17.109  15.706
    1STR    O0O 1774   9.009  17.100  15.831
    1STR    C0P 1775   8.966  17.170  15.937
    1STR    O0Q 1776   8.868  17.243  15.939
    1STR    N0R 1777   9.051  17.152  16.038
    1STR    C0S 1778   9.058  17.215  16.162
    1STR    C0T 1779   9.185  17.228  16.220
    1STR    C0U 1780   9.203  17.303  16.337
    1STR    C0V 1781   9.092  17.362  16.401
    1STR    C0W 1782   9.119   0.017  16.517
    1STR    C0X 1783   8.961  17.337  16.353
    1STR    N0Y 1784   8.851  17.387  16.422
    1STR   BCK2 1785   8.803  17.348  16.541
    1STR    O10 1786   8.729  17.421  16.604
    1STR    C13 1787   8.945  17.268  16.230
    1STR    C14 1788   9.113  17.324  14.365
    1STR    C15 1789   9.145  17.315  14.229
    1STR    C16 1790   9.048  17.341  14.131
    1STR    C17 1791   9.085  17.314  13.986
    1STR    H1B 1792   8.741  17.356  14.068
    1STR    H1C 1793   8.788  17.422  14.338
    1STR    H1D 1794   8.853  17.375  14.571
    1STR    H1E 1795   9.112  17.256  14.881
    1STR    H1F 1796   9.009   0.095  14.958
    1STR    H1G 1797   9.146   0.012  15.031
    1STR    H1H 1798   9.154   0.062  14.863
    1STR    H1I 1799   8.902  17.169  14.974
    1STR    H1J 1800   8.856  17.330  15.028
    1STR    H1K 1801   8.852  17.238  15.248
    1STR    H1M 1802   9.040  16.996  15.213
    1STR    H1N 1803   8.881  17.012  15.138
    1STR    H1O 1804   8.894  16.997  15.312
    1STR    H1P 1805   9.128  17.185  15.366
    1STR    H1Q 1806   9.044  17.339  15.372
    1STR    H1R 1807   9.120  17.176  15.605
    1STR    H1S 1808   9.045  17.367  15.752
    1STR    H1T 1809   8.896  17.381  15.659
    1STR    H1U 1810   9.052  17.420  15.585
    1STR    H1V 1811   8.941  17.008  15.663
    1STR    H1W 1812   8.837  17.137  15.717
    1STR    H1X 1813   9.125  17.088  16.013
    1STR    H1Y 1814   9.272  17.185  16.172
    1STR    H1Z 1815   9.302  17.317  16.377
    1STR    H20 1816   9.036   0.086  16.533
    1STR    H21 1817   9.138  17.401  16.608
    1STR    H22 1818   9.208   0.077  16.497
    1STR    H23 1819   8.798   0.022  16.380
    1STR    H27 1820   8.846  17.256  16.189
    1STR    H28 1821   9.193  17.300  14.433
    1STR    H29 1822   9.244  17.284  14.200
    1STR    H2A 1823   9.000  17.272  13.931
    1STR    H2B 1824   9.166  17.243  13.979
    1STR    H2C 1825   9.116  17.406  13.937
    1STR   BCK1 1826   8.770  13.161   9.591
    1STR    O03 1827   8.675  13.098   9.544
    1STR    N04 1828   8.777  13.212   9.715
    1STR    C05 1829   8.678  13.255   9.807
    1STR    C06 1830   8.694  13.237   9.948
    1STR    C07 1831   8.610  13.303  10.044
    1STR    N08 1832   8.631  13.288  10.184
    1STR    C09 1833   8.582  13.359  10.288
    1STR    O0A 1834   8.506  13.456  10.276
    1STR    O0B 1835   8.625  13.314  10.410
    1STR    C0C 1836   8.576  13.376  10.531
    1STR    C0D 1837   8.439  13.316  10.569
    1STR    C0E 1838   8.677  13.362  10.648
    1STR    O0F 1839   8.627  13.426  10.768
    1STR    C0G 1840   8.712  13.420  10.883
    1STR    C0H 1841   8.825  13.524  10.869
    1STR    C0I 1842   8.630  13.446  11.012
    1STR    O0J 1843   8.713  13.430  11.128
    1STR    C0K 1844   8.650  13.450  11.255
    1STR    C0M 1845   8.564  13.328  11.292
    1STR    C0N 1846   8.761  13.472  11.360
    1STR    O0O 1847   8.708  13.507  11.488
    1STR    C0P 1848   8.716  13.422  11.593
    1STR    O0Q 1849   8.762  13.308  11.589
    1STR    N0R 1850   8.667  13.482  11.702
    1STR    C0S 1851   8.649  13.437  11.834
    1STR    C0T 1852   8.570  13.518  11.918
    1STR    C0U 1853   8.541  13.478  12.050
    1STR    C0V 1854   8.590  13.356  12.101
    1STR    C0W 1855   8.543  13.312  12.238
    1STR    C0X 1856   8.676  13.277  12.021
    1STR    N0Y 1857   8.726  13.154  12.066
    1STR   BCK2 1858   8.789  13.124  12.180
    1STR    O10 1859   8.831  13.205  12.262
    1STR    C13 1860   8.702  13.317  11.887
    1STR    C14 1861   8.507  13.385   9.993
    1STR    C15 1862   8.490  13.404   9.855
    1STR    C16 1863   8.574  13.341   9.762
    1STR    C17 1864   8.555  13.377   9.615
    1STR    H1B 1865   8.870  13.239   9.740
    1STR    H1C 1866   8.774  13.173   9.983
    1STR    H1D 1867   8.693  13.215  10.214
    1STR    H1E 1868   8.563  13.483  10.514
    1STR    H1F 1869   8.446  13.209  10.589
    1STR    H1G 1870   8.400  13.364  10.659
    1STR    H1H 1871   8.366  13.331  10.490
    1STR    H1I 1872   8.771  13.407  10.618
    1STR    H1J 1873   8.696  13.256  10.668
    1STR    H1K 1874   8.755  13.320  10.892
    1STR    H1M 1875   8.784  13.625  10.857
    1STR    H1N 1876   8.890  13.504  10.784
    1STR    H1O 1877   8.888  13.525  10.958
    1STR    H1P 1878   8.587  13.547  11.009
    1STR    H1Q 1879   8.546  13.377  11.015
    1STR    H1R 1880   8.588  13.540  11.252
    1STR    H1S 1881   8.519  13.341  11.390
    1STR    H1T 1882   8.625  13.238  11.296
    1STR    H1U 1883   8.483  13.311  11.221
    1STR    H1V 1884   8.825  13.555  11.329
    1STR    H1W 1885   8.827  13.385  11.366
    1STR    H1X 1886   8.635  13.575  11.680
    1STR    H1Y 1887   8.529  13.611  11.883
    1STR    H1Z 1888   8.477  13.540  12.111
    1STR    H20 1889   8.533  13.203  12.243
    1STR    H21 1890   8.614  13.344  12.315
    1STR    H22 1891   8.445  13.354  12.262
    1STR    H23 1892   8.719  13.077  12.002
    1STR    H27 1893   8.765  13.255  11.825
    1STR    H28 1894   8.439  13.438  10.057
    1STR    H29 1895   8.412  13.470   9.821
    1STR    H2A 1896   8.651  13.401   9.569
    1STR    H2B 1897   8.491  13.464   9.603
    1STR    H2C 1898   8.510  13.294   9.562
    1STR   BCK1 1899  13.163   4.314  13.970
    1STR    O03 1900  13.253   4.234  13.949
    1STR    N04 1901  13.079   4.308  14.075
    1STR    C05 1902  13.062   4.203  14.167
    1STR    C06 1903  13.059   4.226  14.309
    1STR    C07 1904  13.033   4.121  14.403
    1STR    N08 1905  13.026   4.146  14.542
    1STR    C09 1906  13.012   4.061  14.646
    1STR    O0A 1907  13.009   3.939  14.636
    1STR    O0B 1908  13.002   4.124  14.767
    1STR    C0C 1909  12.991   4.046  14.888
    1STR    C0D 1910  13.131   3.996  14.930
    1STR    C0E 1911  12.924   4.125  15.004
    1STR    O0F 1912  12.916   4.044  15.122
    1STR    C0G 1913  12.857   4.106  15.237
    1STR    C0H 1914  12.704   4.104  15.224
    1STR    C0I 1915  12.901   4.031  15.366
    1STR    O0J 1916  12.852   4.101  15.481
    1STR    C0K 1917  12.882   4.043  15.608
    1STR    C0M 1918  13.028   4.072  15.647
    1STR    C0N 1919  12.785   4.105  15.712
    1STR    O0O 1920  12.797   4.042  15.839
    1STR    C0P 1921  12.859   4.103  15.942
    1STR    O0Q 1922  12.915   4.211  15.938
    1STR    N0R 1923  12.849   4.024  16.049
    1STR    C0S 1924  12.896   4.035  16.180
    1STR    C0T 1925  12.855   3.934  16.268
    1STR    C0U 1926  12.900   3.932  16.401
    1STR    C0V 1927  12.989   4.030  16.447
    1STR    C0W 1928  13.043   4.011  16.587
    1STR    C0X 1929  13.030   4.136  16.362
    1STR    N0Y 1930  13.126   4.229  16.404
    1STR   BCK2 1931  13.122   4.311  16.510
    1STR    O10 1932  13.025   4.319  16.584
    1STR    C13 1933  12.983   4.137  16.228
    1STR    C14 1934  13.011   3.992  14.349
    1STR    C15 1935  13.010   3.968  14.211
    1STR    C16 1936  13.032   4.073  14.120
    1STR    C17 1937  13.015   4.041  13.972
    1STR    H1B 1938  13.017   4.387  14.084
    1STR    H1C 1939  13.078   4.326  14.345
    1STR    H1D 1940  13.033   4.242  14.573
    1STR    H1E 1941  12.928   3.959  14.869
    1STR    H1F 1942  13.198   4.079  14.952
    1STR    H1G 1943  13.125   3.934  15.020
    1STR    H1H 1944  13.176   3.935  14.852
    1STR    H1I 1945  12.824   4.155  14.972
    1STR    H1J 1946  12.980   4.216  15.025
    1STR    H1K 1947  12.892   4.209  15.246
    1STR    H1M 1948  12.666   4.002  15.213
    1STR    H1N 1949  12.669   4.162  15.139
    1STR    H1O 1950  12.657   4.147  15.313
    1STR    H1P 1951  12.863   3.929  15.364
    1STR    H1Q 1952  13.009   4.025  15.368
    1STR    H1R 1953  12.865   3.935  15.606
    1STR    H1S 1954  13.052   4.030  15.745
    1STR    H1T 1955  13.047   4.179  15.652
    1STR    H1U 1956  13.099   4.029  15.576
    1STR    H1V 1957  12.683   4.091  15.678
    1STR    H1W 1958  12.799   4.213  15.719
    1STR    H1X 1959  12.797   3.941  16.026
    1STR    H1Y 1960  12.789   3.855  16.236
    1STR    H1Z 1961  12.869   3.852  16.466
    1STR    H20 1962  13.151   4.021  16.583
    1STR    H21 1963  12.998   4.083  16.656
    1STR    H22 1964  13.023   3.912  16.627
    1STR    H23 1965  13.209   4.238  16.347
    1STR    H27 1966  13.015   4.216  16.161
    1STR    H28 1967  12.991   3.906  14.412
    1STR    H29 1968  12.990   3.868  14.176
    1STR    H2A 1969  12.968   4.124  13.919
    1STR    H2B 1970  12.952   3.954  13.957
    1STR    H2C 1971  13.112   4.021  13.927
    1STR   BCK1 1972  13.158   8.774   0.880
    1STR    O03 1973  13.130   8.890   0.850
    1STR    N04 1974  13.215   8.737   0.996
    1STR    C05 1975  13.271   8.820   1.093
    1STR    C06 1976  13.245   8.799   1.232
    1STR    C07 1977  13.309   8.876   1.333
    1STR    N08 1978  13.288   8.848   1.470
    1STR    C09 1979  13.353   8.896   1.579
    1STR    O0A 1980  13.445   8.977   1.575
    1STR    O0B 1981  13.306   8.845   1.695
    1STR    C0C 1982  13.360   8.893   1.820
    1STR    C0D 1983  13.287   9.023   1.860
    1STR    C0E 1984  13.353   8.787   1.932
    1STR    O0F 1985  13.414   8.840   2.050
    1STR    C0G 1986  13.417   8.754   2.164
    1STR    C0H 1987  13.531   8.652   2.149
    1STR    C0I 1988  13.436   8.840   2.290
    1STR    O0J 1989  13.428   8.756   2.405
    1STR    C0K 1990  13.447   8.821   2.531
    1STR    C0M 1991  13.319   8.895   2.572
    1STR    C0N 1992  13.486   8.712   2.633
    1STR    O0O 1993  13.528   8.769   2.756
    1STR    C0P 1994  13.446   8.770   2.862
    1STR    O0Q 1995  13.332   8.725   2.863
    1STR    N0R 1996  13.507   8.829   2.965
    1STR    C0S 1997  13.462   8.855   3.095
    1STR    C0T 1998  13.535   8.947   3.173
    1STR    C0U 1999  13.492   8.981   3.303
    1STR    C0V 2000  13.376   8.922   3.357
    1STR    C0W 2001  13.326   8.966   3.494
    1STR    C0X 2002  13.306   8.825   3.282
    1STR    N0Y 2003  13.195   8.758   3.331
    1STR   BCK2 2004  13.191   8.666   3.427
    1STR    O10 2005  13.086   8.606   3.448
    1STR    C13 2006  13.348   8.794   3.151
    1STR    C14 2007  13.396   8.979   1.290
    1STR    C15 2008  13.425   8.999   1.155
    1STR    C16 2009  13.367   8.918   1.056
    1STR    C17 2010  13.416   8.937   0.913
    1STR    H1B 2011  13.226   8.638   1.007
    1STR    H1C 2012  13.175   8.721   1.260
    1STR    H1D 2013  13.216   8.782   1.495
    1STR    H1E 2014  13.466   8.916   1.807
    1STR    H1F 2015  13.181   9.005   1.878
    1STR    H1G 2016  13.330   9.064   1.952
    1STR    H1H 2017  13.297   9.099   1.783
    1STR    H1I 2018  13.404   8.697   1.899
    1STR    H1J 2019  13.249   8.760   1.952
    1STR    H1K 2020  13.322   8.702   2.173
    1STR    H1M 2021  13.627   8.703   2.137
    1STR    H1N 2022  13.517   8.586   2.063
    1STR    H1O 2023  13.538   8.589   2.237
    1STR    H1P 2024  13.533   8.891   2.286
    1STR    H1Q 2025  13.359   8.917   2.293
    1STR    H1R 2026  13.530   8.892   2.525
    1STR    H1S 2027  13.330   8.942   2.670
    1STR    H1T 2028  13.235   8.825   2.579
    1STR    H1U 2029  13.291   8.973   2.502
    1STR    H1V 2030  13.569   8.654   2.594
    1STR    H1W 2031  13.404   8.640   2.646
    1STR    H1X 2032  13.599   8.860   2.939
    1STR    H1Y 2033  13.624   8.994   3.135
    1STR    H1Z 2034  13.548   9.053   3.361
    1STR    H20 2035  13.217   8.964   3.499
    1STR    H21 2036  13.364   8.900   3.572
    1STR    H22 2037  13.358   9.068   3.518
    1STR    H23 2038  13.109   8.766   3.280
    1STR    H27 2039  13.292   8.720   3.096
    1STR    H28 2040  13.447   9.045   1.359
    1STR    H29 2041  13.496   9.076   1.127
    1STR    H2A 2042  13.419   8.842   0.860
    1STR    H2B 2043  13.516   8.979   0.911
    1STR    H2C 2044  13.350   9.006   0.860
    1HEX    C01 2045   0.277  17.288  16.753
    1HEX    C02 2046   0.214  17.289  16.893
    1HEX    C03 2047   0.063  17.290  16.882
    1HEX    O04 2048   0.001  17.190  16.843
    1HEX    O05 2049   0.009  17.408  16.916
    1HEX    C06 2050  17.308  17.423  16.921
    1HEX    C07 2051  17.257  17.418  17.068
    1HEX    C08 2052  17.306   0.106  17.139
    1HEX    O09 2053  17.241   0.227  17.102
    1HEX    C0A 2054  17.178   0.298  17.197
    1HEX    O0B 2055  17.133   0.252  17.302
    1HEX    C0C 2056  17.176   0.447  17.167
    1HEX    C0D 2057  17.186   0.530  17.297
    1HEX    C0F 2058  17.102  17.417  17.069
    1HEX    O0G 2059  17.055  17.295  17.011
    1HEX    C0H 2060  17.006  17.293  16.887
    1HEX    O0I 2061  16.976  17.391  16.819
    1HEX    C0J 2062  16.996  17.152  16.831
    1HEX    C0K 2063  16.878  17.076  16.892
    1HEX    C0N 2064  17.303  17.287  17.141
    1HEX    O0O 2065  -0.000  17.268  17.184
    1HEX    C0P 2066   0.067  17.350  17.281
    1HEX    C0Q 2067   0.033  17.340  17.433
    1HEX    C0R 2068   0.067  17.198   0.044
    1HEX    O0S 2069   0.208  17.174   0.040
    1HEX    C0T 2070   0.280  17.165   0.154
    1HEX    O0U 2071   0.235  17.170   0.269
    1HEX    C0V 2072   0.429  17.147   0.128
    1HEX    C0W 2073   0.506  17.280   0.132
    1HEX    C0Y 2074   0.123   0.004   0.063
    1HEX    O0Z 2075   0.105  17.439   0.203
    1HEX    C10 2076   0.183   0.070   0.283
    1HEX    O11 2077   0.272   0.147   0.245
    1HEX    C12 2078   0.148   0.049   0.429
    1HEX    C13 2079   0.261   0.092   0.523
    1HEX    C15 2080  17.325  17.379   0.027
    1HEX    O16 2081  17.288  17.359   0.163
    1HEX    C17 2082  17.214  17.253   0.199
    1HEX    O18 2083  17.182  17.159   0.126
    1HEX    C19 2084  17.168  17.261   0.343
    1HEX    C1A 2085  17.086  17.389   0.365
    1HEX    H1D 2086   0.248  17.198  16.699
    1HEX    H1E 2087   0.244  17.374  16.695
    1HEX    H1F 2088   0.246  17.377  16.949
    1HEX    H1G 2089   0.243  17.201  16.950
    1HEX    H1H 2090  17.259  17.347  16.859
    1HEX    H1I 2091  17.281   0.078  16.876
    1HEX    H1J 2092  17.410   0.124  17.112
    1HEX    H1K 2093  17.303   0.092  17.246
    1HEX    H1M 2094  17.087   0.473  17.110
    1HEX    H1N 2095  17.262   0.468  17.104
    1HEX    H1O 2096  17.263   0.489  17.363
    1HEX    H1P 2097  17.092   0.527  17.352
    1HEX    H1R 2098  17.061   0.065  17.018
    1HEX    H1S 2099  17.064  17.423  17.171
    1HEX    H1T 2100  17.090  17.100  16.850
    1HEX    H1U 2101  16.985  17.158  16.722
    1HEX    H1V 2102  16.784  17.127  16.870
    1HEX    H1W 2103  16.888  17.069  17.000
    1HEX    H1Y 2104  17.288  17.205  17.070
    1HEX    H1Z 2105  17.234  17.258  17.220
    1HEX    H20 2106   0.075   0.013  17.250
    1HEX    H21 2107   0.170  17.316  17.272
    1HEX    H22 2108   0.016  17.122  17.424
    1HEX    H23 2109   0.030  17.184   0.146
    1HEX    H24 2110   0.440  17.100   0.031
    1HEX    H25 2111   0.469  17.077   0.202
    1HEX    H26 2112   0.452  17.359   0.079
    1HEX    H27 2113   0.603  17.269   0.083
    1HEX    H29 2114   0.102   0.106   0.030
    1HEX    H2A 2115   0.229  17.427   0.040
    1HEX    H2B 2116   0.126  17.383   0.443
    1HEX    H2C 2117   0.057   0.104   0.449
    1HEX    H2D 2118   0.293   0.194   0.501
    1HEX    H2E 2119   0.348   0.028   0.511
    1HEX    H2G 2120  17.253  17.328  17.405
    1HEX    H2H 2121  17.310   0.045   0.010
    1HEX    H2I 2122  17.256  17.259   0.407
    1HEX    H2J 2123  17.110  17.172   0.366
    1HEX    H2K 2124  17.000  17.391   0.298
    1HEX    H2M 2125  17.146   0.037   0.344
    1STR    S00 2126   0.458  17.293  16.771
    1STR    S0E 2127  17.230   0.701  17.256
    1STR    S0M 2128  16.874  16.909  16.821
    1STR    S0X 2129   0.535  17.334   0.303
    1STR    S14 2130   0.199   0.084   0.693
    1STR    S1B 2131  17.029  17.394   0.537
    1HEX    C01 2132   0.262  17.295   3.675
    1HEX    C02 2133   0.196  17.305   3.813
    1HEX    C03 2134   0.044  17.306   3.800
    1HEX    O04 2135  17.424  17.207   3.758
    1HEX    O05 2136  17.428  17.421   3.843
    1HEX    C06 2137  17.287  17.429   3.863
    1HEX    C07 2138  17.249  17.416   4.013
    1HEX    C08 2139  17.277   0.113   4.090
    1HEX    O09 2140  17.238   0.249   4.056
    1HEX    C0A 2141  17.257   0.348   4.156
    1HEX    O0B 2142  17.261   0.320   4.276
    1HEX    C0C 2143  17.278   0.496   4.111
    1HEX    C0D 2144  17.255   0.611   4.220
    1HEX    C0F 2145  17.099  17.367   4.023
    1HEX    O0G 2146  17.089  17.222   4.038
    1HEX    C0H 2147  17.060  17.139   3.935
    1HEX    O0I 2148  17.006  17.175   3.831
    1HEX    C0J 2149  17.111  16.993   3.951
    1HEX    C0K 2150  17.040  16.898   4.053
    1HEX    C0N 2151  17.331  17.297   4.078
    1HEX    O0O 2152   0.031  17.306   4.102
    1HEX    C0P 2153   0.087  17.379   4.212
    1HEX    C0Q 2154   0.044  17.355   4.360
    1HEX    C0R 2155   0.073  17.208   4.400
    1HEX    O0S 2156   0.213  17.181   4.397
    1HEX    C0T 2157   0.282  17.165   4.512
    1HEX    O0U 2158   0.235  17.165   4.626
    1HEX    C0V 2159   0.431  17.146   4.488
    1HEX    C0W 2160   0.509  17.279   4.492
    1HEX    C0Y 2161   0.136   0.012   4.438
    1HEX    O0Z 2162   0.115  -0.000   4.577
    1HEX    C10 2163   0.188   0.074   4.658
    1HEX    O11 2164   0.274   0.155   4.624
    1HEX    C12 2165   0.150   0.050   4.803
    1HEX    C13 2166   0.262   0.093   4.898
    1HEX    C15 2167  17.338  17.397   4.394
    1HEX    O16 2168  17.297  17.369   4.528
    1HEX    C17 2169  17.221  17.262   4.556
    1HEX    O18 2170  17.188  17.174   4.477
    1HEX    C19 2171  17.172  17.264   4.699
    1HEX    C1A 2172  17.087  17.389   4.725
    1HEX    H1D 2173   0.232  17.203   3.624
    1HEX    H1E 2174   0.233  17.379   3.612
    1HEX    H1F 2175   0.228  17.394   3.866
    1HEX    H1G 2176   0.223  17.219   3.875
    1HEX    H1H 2177  17.236  17.353   3.803
    1HEX    H1I 2178  17.253   0.085   3.823
    1HEX    H1J 2179  17.384   0.125   4.085
    1HEX    H1K 2180  17.248   0.096   4.192
    1HEX    H1M 2181  17.210   0.514   4.028
    1HEX    H1N 2182  17.379   0.505   4.070
    1HEX    H1O 2183  17.221   0.561   4.311
    1HEX    H1P 2184  17.172   0.675   4.191
    1HEX    H1R 2185  17.039  17.402   3.939
    1HEX    H1S 2186  17.052  17.410   4.111
    1HEX    H1T 2187  17.218  16.995   3.967
    1HEX    H1U 2188  17.100  16.947   3.852
    1HEX    H1V 2189  16.982  16.823   4.000
    1HEX    H1W 2190  16.968  16.955   4.112
    1HEX    H1Y 2191  17.327  17.215   4.006
    1HEX    H1Z 2192  17.283  17.251   4.163
    1HEX    H20 2193   0.092   0.045   4.190
    1HEX    H21 2194   0.192  17.350   4.205
    1HEX    H22 2195   0.021  17.139   4.333
    1HEX    H23 2196   0.032  17.187   4.499
    1HEX    H24 2197   0.443  17.098   4.391
    1HEX    H25 2198   0.470  17.076   4.562
    1HEX    H26 2199   0.456  17.357   4.437
    1HEX    H27 2200   0.607  17.267   4.445
    1HEX    H29 2201   0.117   0.115   4.410
    1HEX    H2A 2202   0.241  17.433   4.417
    1HEX    H2B 2203   0.128  17.384   4.815
    1HEX    H2C 2204   0.058   0.106   4.822
    1HEX    H2D 2205   0.294   0.195   4.877
    1HEX    H2E 2206   0.349   0.029   4.885
    1HEX    H2G 2207  17.262  17.357   4.329
    1HEX    H2H 2208  17.329   0.066   4.386
    1HEX    H2I 2209  17.258  17.261   4.765
    1HEX    H2J 2210  17.114  17.173   4.718
    1HEX    H2K 2211  17.001  17.392   4.657
    1HEX    H2M 2212  17.145   0.039   4.706
    1STR    S00 2213   0.442  17.296   3.698
    1STR    S0E 2214  17.393   0.721   4.283
    1STR    S0M 2215  17.153  16.808   4.171
    1STR    S0X 2216   0.534  17.335   4.663
    1STR    S14 2217   0.200   0.082   5.068
    1STR    S1B 2218  17.029  17.389   4.896
    1HEX    C01 2219   0.277  17.288   8.033
    1HEX    C02 2220   0.214  17.289   8.173
    1HEX    C03 2221   0.063  17.290   8.162
    1HEX    O04 2222   0.001  17.190   8.123
    1HEX    O05 2223   0.009  17.408   8.196
    1HEX    C06 2224  17.308  17.422   8.201
    1HEX    C07 2225  17.257  17.418   8.348
    1HEX    C08 2226  17.306   0.106   8.419
    1HEX    O09 2227  17.241   0.227   8.382
    1HEX    C0A 2228  17.179   0.298   8.477
    1HEX    O0B 2229  17.133   0.252   8.582
    1HEX    C0C 2230  17.176   0.447   8.447
    1HEX    C0D 2231  17.186   0.530   8.577
    1HEX    C0F 2232  17.102  17.417   8.349
    1HEX    O0G 2233  17.055  17.295   8.291
    1HEX    C0H 2234  17.006  17.293   8.167
    1HEX    O0I 2235  16.976  17.391   8.099
    1HEX    C0J 2236  16.996  17.152   8.111
    1HEX    C0K 2237  16.878  17.076   8.172
    1HEX    C0N 2238  17.303  17.287   8.422
    1HEX    O0O 2239  -0.000  17.268   8.464
    1HEX    C0P 2240   0.067  17.350   8.561
    1HEX    C0Q 2241   0.033  17.340   8.713
    1HEX    C0R 2242   0.067  17.198   8.764
    1HEX    O0S 2243   0.208  17.174   8.760
    1HEX    C0T 2244   0.280  17.165   8.874
    1HEX    O0U 2245   0.235  17.170   8.989
    1HEX    C0V 2246   0.429  17.147   8.848
    1HEX    C0W 2247   0.507  17.280   8.852
    1HEX    C0Y 2248   0.123   0.004   8.783
    1HEX    O0Z 2249   0.105  17.439   8.923
    1HEX    C10 2250   0.183   0.070   9.003
    1HEX    O11 2251   0.272   0.147   8.965
    1HEX    C12 2252   0.148   0.049   9.149
    1HEX    C13 2253   0.261   0.092   9.243
    1HEX    C15 2254  17.325  17.379   8.747
    1HEX    O16 2255  17.288  17.359   8.883
    1HEX    C17 2256  17.214  17.253   8.919
    1HEX    O18 2257  17.182  17.159   8.846
    1HEX    C19 2258  17.168  17.261   9.063
    1HEX    C1A 2259  17.086  17.389   9.085
    1HEX    H1D 2260   0.248  17.198   7.979
    1HEX    H1E 2261   0.244  17.374   7.975
    1HEX    H1F 2262   0.246  17.377   8.229
    1HEX    H1G 2263   0.243  17.201   8.230
    1HEX    H1H 2264  17.259  17.347   8.139
    1HEX    H1I 2265  17.281   0.078   8.156
    1HEX    H1J 2266  17.410   0.124   8.392
    1HEX    H1K 2267  17.303   0.092   8.526
    1HEX    H1M 2268  17.087   0.473   8.390
    1HEX    H1N 2269  17.262   0.468   8.384
    1HEX    H1O 2270  17.263   0.489   8.643
    1HEX    H1P 2271  17.092   0.527   8.632
    1HEX    H1R 2272  17.061   0.065   8.298
    1HEX    H1S 2273  17.064  17.423   8.451
    1HEX    H1T 2274  17.090  17.100   8.130
    1HEX    H1U 2275  16.985  17.158   8.002
    1HEX    H1V 2276  16.784  17.127   8.150
    1HEX    H1W 2277  16.888  17.069   8.280
    1HEX    H1Y 2278  17.288  17.205   8.350
    1HEX    H1Z 2279  17.234  17.258   8.500
    1HEX    H20 2280   0.075   0.013   8.530
    1HEX    H21 2281   0.170  17.316   8.552
    1HEX    H22 2282   0.016  17.122   8.704
    1HEX    H23 2283   0.030  17.184   8.866
    1HEX    H24 2284   0.440  17.100   8.751
    1HEX    H25 2285   0.469  17.077   8.922
    1HEX    H26 2286   0.452  17.358   8.799
    1HEX    H27 2287   0.603  17.269   8.803
    1HEX    H29 2288   0.102   0.106   8.750
    1HEX    H2A 2289   0.228  17.427   8.760
    1HEX    H2B 2290   0.126  17.383   9.163
    1HEX    H2C 2291   0.057   0.104   9.169
    1HEX    H2D 2292   0.293   0.194   9.221
    1HEX    H2E 2293   0.348   0.028   9.231
    1HEX    H2G 2294  17.253  17.328   8.685
    1HEX    H2H 2295  17.310   0.045   8.730
    1HEX    H2I 2296  17.256  17.259   9.127
    1HEX    H2J 2297  17.110  17.172   9.086
    1HEX    H2K 2298  17.000  17.391   9.018
    1HEX    H2M 2299  17.146   0.037   9.064
    1STR    S00 2300   0.458  17.293   8.051
    1STR    S0E 2301  17.230   0.701   8.536
    1STR    S0M 2302  16.874  16.909   8.101
    1STR    S0X 2303   0.535  17.334   9.023
    1STR    S14 2304   0.199   0.084   9.413
    1STR    S1B 2305  17.029  17.394   9.257
    1HEX    C01 2306   0.277  17.288  12.393
    1HEX    C02 2307   0.214  17.289  12.533
    1HEX    C03 2308   0.063  17.290  12.522
    1HEX    O04 2309   0.001  17.190  12.483
    1HEX    O05 2310   0.009  17.408  12.556
    1HEX    C06 2311  17.308  17.423  12.561
    1HEX    C07 2312  17.257  17.418  12.708
    1HEX    C08 2313  17.306   0.106  12.779
    1HEX    O09 2314  17.241   0.227  12.742
    1HEX    C0A 2315  17.178   0.298  12.837
    1HEX    O0B 2316  17.133   0.252  12.942
    1HEX    C0C 2317  17.176   0.447  12.807
    1HEX    C0D 2318  17.186   0.530  12.937
    1HEX    C0F 2319  17.102  17.417  12.709
    1HEX    O0G 2320  17.055  17.295  12.651
    1HEX    C0H 2321  17.006  17.293  12.527
    1HEX    O0I 2322  16.976  17.391  12.459
    1HEX    C0J 2323  16.996  17.152  12.471
    1HEX    C0K 2324  16.878  17.076  12.532
    1HEX    C0N 2325  17.303  17.287  12.781
    1HEX    O0O 2326  -0.000  17.268  12.824
    1HEX    C0P 2327   0.067  17.350  12.921
    1HEX    C0Q 2328   0.033  17.340  13.073
    1HEX    C0R 2329   0.067  17.198  13.124
    1HEX    O0S 2330   0.208  17.174  13.120
    1HEX    C0T 2331   0.280  17.165  13.234
    1HEX    O0U 2332   0.235  17.170  13.349
    1HEX    C0V 2333   0.429  17.147  13.208
    1HEX    C0W 2334   0.506  17.280  13.212
    1HEX    C0Y 2335   0.123   0.004  13.143
    1HEX    O0Z 2336   0.105  17.439  13.283
    1HEX    C10 2337   0.183   0.070  13.363
    1HEX    O11 2338   0.272   0.147  13.325
    1HEX    C12 2339   0.148   0.049  13.509
    1HEX    C13 2340   0.261   0.092  13.603
    1HEX    C15 2341  17.325  17.379  13.107
    1HEX    O16 2342  17.288  17.359  13.243
    1HEX    C17 2343  17.214  17.253  13.278
    1HEX    O18 2344  17.182  17.159  13.206
    1HEX    C19 2345  17.169  17.261  13.423
    1HEX    C1A 2346  17.086  17.389  13.445
    1HEX    H1D 2347   0.248  17.198  12.339
    1HEX    H1E 2348   0.244  17.374  12.335
    1HEX    H1F 2349   0.246  17.377  12.589
    1HEX    H1G 2350   0.243  17.201  12.590
    1HEX    H1H 2351  17.259  17.347  12.499
    1HEX    H1I 2352  17.281   0.078  12.516
    1HEX    H1J 2353  17.410   0.124  12.752
    1HEX    H1K 2354  17.303   0.092  12.886
    1HEX    H1M 2355  17.087   0.473  12.750
    1HEX    H1N 2356  17.262   0.468  12.744
    1HEX    H1O 2357  17.263   0.489  13.003
    1HEX    H1P 2358  17.092   0.527  12.992
    1HEX    H1R 2359  17.061   0.065  12.658
    1HEX    H1S 2360  17.064  17.423  12.811
    1HEX    H1T 2361  17.090  17.100  12.490
    1HEX    H1U 2362  16.985  17.158  12.362
    1HEX    H1V 2363  16.784  17.127  12.510
    1HEX    H1W 2364  16.888  17.069  12.640
    1HEX    H1Y 2365  17.288  17.205  12.710
    1HEX    H1Z 2366  17.234  17.258  12.860
    1HEX    H20 2367   0.075   0.013  12.890
    1HEX    H21 2368   0.170  17.316  12.912
    1HEX    H22 2369   0.016  17.122  13.064
    1HEX    H23 2370   0.030  17.184  13.226
    1HEX    H24 2371   0.440  17.100  13.111
    1HEX    H25 2372   0.469  17.077  13.282
    1HEX    H26 2373   0.452  17.359  13.159
    1HEX    H27 2374   0.603  17.270  13.163
    1HEX    H29 2375   0.102   0.106  13.110
    1HEX    H2A 2376   0.228  17.427  13.120
    1HEX    H2B 2377   0.126  17.383  13.523
    1HEX    H2C 2378   0.057   0.104  13.529
    1HEX    H2D 2379   0.293   0.194  13.581
    1HEX    H2E 2380   0.348   0.028  13.591
    1HEX    H2G 2381  17.253  17.328  13.045
    1HEX    H2H 2382  17.310   0.045  13.090
    1HEX    H2I 2383  17.256  17.259  13.487
    1HEX    H2J 2384  17.110  17.173  13.446
    1HEX    H2K 2385  17.000  17.391  13.378
    1HEX    H2M 2386  17.146   0.037  13.424
    1STR    S00 2387   0.458  17.293  12.411
    1STR    S0E 2388  17.230   0.701  12.896
    1STR    S0M 2389  16.874  16.909  12.461
    1STR    S0X 2390   0.535  17.334  13.383
    1STR    S14 2391   0.199   0.084  13.773
    1STR    S1B 2392  17.029  17.394  13.617
    1HEX    C01 2393   0.271   4.211  16.758
    1HEX    C02 2394   0.208   4.218  16.897
    1HEX    C03 2395   0.057   4.228  16.887
    1HEX    O04 2396  17.430   4.135  16.843
    1HEX    O05 2397   0.010   4.348  16.928
    1HEX    C06 2398  17.310   4.372  16.931
    1HEX    C07 2399  17.253   4.363  17.075
    1HEX    C08 2400  17.295   4.488  17.156
    1HEX    O09 2401  17.240   4.616  17.122
    1HEX    C0A 2402  17.232   4.712  17.220
    1HEX    O0B 2403  17.226   4.687  17.340
    1HEX    C0C 2404  17.236   4.857  17.170
    1HEX    C0D 2405  17.270   4.959  17.283
    1HEX    C0F 2406  17.098   4.358  17.067
    1HEX    O0G 2407  17.055   4.233  17.012
    1HEX    C0H 2408  17.008   4.226  16.886
    1HEX    O0I 2409  16.977   4.321  16.816
    1HEX    C0J 2410  17.001   4.083  16.835
    1HEX    C0K 2411  16.883   4.006  16.894
    1HEX    C0N 2412  17.296   4.228  17.145
    1HEX    O0O 2413  17.432   4.202  17.185
    1HEX    C0P 2414   0.064   4.278  17.283
    1HEX    C0Q 2415   0.033   4.265  17.435
    1HEX    C0R 2416   0.067   4.121   0.043
    1HEX    O0S 2417   0.208   4.097   0.038
    1HEX    C0T 2418   0.280   4.086   0.152
    1HEX    O0U 2419   0.235   4.089   0.267
    1HEX    C0V 2420   0.429   4.068   0.127
    1HEX    C0W 2421   0.507   4.201   0.132
    1HEX    C0Y 2422   0.125   4.367   0.065
    1HEX    O0Z 2423   0.108   4.360   0.205
    1HEX    C10 2424   0.186   4.431   0.285
    1HEX    O11 2425   0.277   4.506   0.248
    1HEX    C12 2426   0.150   4.410   0.431
    1HEX    C13 2427   0.262   4.453   0.526
    1HEX    C15 2428  17.327   4.304   0.032
    1HEX    O16 2429  17.291   4.280   0.167
    1HEX    C17 2430  17.215   4.175   0.200
    1HEX    O18 2431  17.181   4.083   0.125
    1HEX    C19 2432  17.168   4.181   0.345
    1HEX    C1A 2433  17.086   4.309   0.367
    1HEX    H1D 2434   0.239   4.120  16.705
    1HEX    H1E 2435   0.240   4.296  16.697
    1HEX    H1F 2436   0.246   4.303  16.953
    1HEX    H1G 2437   0.232   4.128  16.955
    1HEX    H1H 2438  17.259   4.303  16.863
    1HEX    H1I 2439  17.291   4.471  16.889
    1HEX    H1J 2440  17.401   4.505  17.142
    1HEX    H1K 2441  17.277   4.467  17.260
    1HEX    H1M 2442  17.141   4.881  17.123
    1HEX    H1N 2443  17.313   4.862  17.093
    1HEX    H1O 2444  17.363   4.931  17.333
    1HEX    H1P 2445  17.194   4.955  17.361
    1HEX    H1R 2446  17.058   4.444  17.012
    1HEX    H1S 2447  17.055   4.366  17.167
    1HEX    H1T 2448  17.096   4.033  16.858
    1HEX    H1U 2449  16.994   4.086  16.726
    1HEX    H1V 2450  16.789   4.057  16.872
    1HEX    H1W 2451  16.891   3.999  17.003
    1HEX    H1Y 2452  17.279   4.149  17.071
    1HEX    H1Z 2453  17.225   4.198  17.221
    1HEX    H20 2454   0.074   4.382  17.254
    1HEX    H21 2455   0.166   4.242  17.270
    1HEX    H22 2456   0.016   4.048  17.421
    1HEX    H23 2457   0.030   4.105   0.144
    1HEX    H24 2458   0.440   4.022   0.029
    1HEX    H25 2459   0.469   3.997   0.200
    1HEX    H26 2460   0.452   4.280   0.081
    1HEX    H27 2461   0.603   4.191   0.082
    1HEX    H29 2462   0.104   4.470   0.033
    1HEX    H2A 2463   0.230   4.349   0.041
    1HEX    H2B 2464   0.126   4.305   0.444
    1HEX    H2C 2465   0.058   4.467   0.450
    1HEX    H2D 2466   0.294   4.555   0.504
    1HEX    H2E 2467   0.349   4.389   0.513
    1HEX    H2G 2468  17.254   4.255  17.409
    1HEX    H2H 2469  17.313   4.411   0.018
    1HEX    H2I 2470  17.256   4.179   0.410
    1HEX    H2J 2471  17.109   4.092   0.367
    1HEX    H2K 2472  17.001   4.312   0.299
    1HEX    H2M 2473  17.146   4.398   0.347
    1STR    S00 2474   0.452   4.211  16.775
    1STR    S0E 2475  17.281   5.133  17.224
    1STR    S0M 2476  16.880   3.839  16.824
    1STR    S0X 2477   0.536   4.252   0.304
    1STR    S14 2478   0.200   4.443   0.696
    1STR    S1B 2479  17.027   4.313   0.538
    1HEX    C01 2480   0.279   4.209   3.668
    1HEX    C02 2481   0.215   4.210   3.806
    1HEX    C03 2482   0.065   4.193   3.796
    1HEX    O04 2483   0.015   4.087   3.760
    1HEX    O05 2484  17.437   4.303   3.834
    1HEX    C06 2485  17.297   4.294   3.855
    1HEX    C07 2486  17.265   4.276   4.006
    1HEX    C08 2487  17.275   4.416   4.073
    1HEX    O09 2488  17.193   4.526   4.033
    1HEX    C0A 2489  17.165   4.619   4.128
    1HEX    O0B 2490  17.142   4.593   4.246
    1HEX    C0C 2491  17.173   4.764   4.080
    1HEX    C0D 2492  17.186   4.862   4.198
    1HEX    C0F 2493  17.123   4.212   4.021
    1HEX    O0G 2494  17.134   4.068   4.020
    1HEX    C0H 2495  17.120   3.996   3.907
    1HEX    O0I 2496  17.059   4.037   3.808
    1HEX    C0J 2497  17.196   3.861   3.902
    1HEX    C0K 2498  17.207   3.774   4.031
    1HEX    C0N 2499  17.363   4.176   4.079
    1HEX    O0O 2500   0.060   4.208   4.106
    1HEX    C0P 2501   0.103   4.299   4.208
    1HEX    C0Q 2502   0.072   4.278   4.359
    1HEX    C0R 2503   0.128   4.141   4.408
    1HEX    O0S 2504   0.271   4.130   4.393
    1HEX    C0T 2505   0.354   4.137   4.501
    1HEX    O0U 2506   0.318   4.160   4.616
    1HEX    C0V 2507   0.501   4.107   4.469
    1HEX    C0W 2508   0.585   4.229   4.422
    1HEX    C0Y 2509   0.147   4.392   4.432
    1HEX    O0Z 2510   0.120   4.384   4.570
    1HEX    C10 2511   0.198   4.446   4.657
    1HEX    O11 2512   0.296   4.516   4.629
    1HEX    C12 2513   0.153   4.420   4.799
    1HEX    C13 2514   0.259   4.458   4.902
    1HEX    C15 2515  17.361   4.295   4.394
    1HEX    O16 2516  17.325   4.265   4.529
    1HEX    C17 2517  17.235   4.168   4.555
    1HEX    O18 2518  17.194   4.084   4.476
    1HEX    C19 2519  17.181   4.177   4.697
    1HEX    C1A 2520  17.096   4.304   4.713
    1HEX    H1D 2521   0.251   4.119   3.613
    1HEX    H1E 2522   0.245   4.294   3.609
    1HEX    H1F 2523   0.238   4.302   3.860
    1HEX    H1G 2524   0.252   4.128   3.867
    1HEX    H1H 2525  17.253   4.215   3.794
    1HEX    H1I 2526  17.252   4.386   3.818
    1HEX    H1J 2527  17.375   4.455   4.052
    1HEX    H1K 2528  17.268   4.403   4.180
    1HEX    H1M 2529  17.088   4.789   4.017
    1HEX    H1N 2530  17.262   4.773   4.017
    1HEX    H1O 2531  17.262   4.829   4.269
    1HEX    H1P 2532  17.092   4.868   4.254
    1HEX    H1R 2533  17.054   4.249   3.944
    1HEX    H1S 2534  17.078   4.242   4.116
    1HEX    H1T 2535  17.296   3.887   3.867
    1HEX    H1U 2536  17.152   3.802   3.822
    1HEX    H1V 2537  17.117   3.714   4.041
    1HEX    H1W 2538  17.212   3.836   4.121
    1HEX    H1Y 2539  17.372   4.090   4.012
    1HEX    H1Z 2540  17.318   4.129   4.166
    1HEX    H20 2541   0.082   4.402   4.180
    1HEX    H21 2542   0.211   4.294   4.198
    1HEX    H22 2543   0.081   4.060   4.352
    1HEX    H23 2544   0.099   4.124   4.511
    1HEX    H24 2545   0.504   4.026   4.396
    1HEX    H25 2546   0.543   4.066   4.561
    1HEX    H26 2547   0.528   4.321   4.433
    1HEX    H27 2548   0.605   4.218   4.315
    1HEX    H29 2549   0.117   4.490   4.396
    1HEX    H2A 2550   0.255   4.385   4.414
    1HEX    H2B 2551   0.129   4.314   4.807
    1HEX    H2C 2552   0.060   4.475   4.815
    1HEX    H2D 2553   0.292   4.561   4.886
    1HEX    H2E 2554   0.347   4.394   4.891
    1HEX    H2G 2555  17.295   4.242   4.328
    1HEX    H2H 2556  17.333   4.400   4.383
    1HEX    H2I 2557  17.265   4.178   4.767
    1HEX    H2J 2558  17.122   4.088   4.718
    1HEX    H2K 2559  17.011   4.302   4.645
    1HEX    H2M 2560  17.154   4.393   4.689
    1STR    S00 2561   0.459   4.214   3.687
    1STR    S0E 2562  17.232   5.027   4.138
    1STR    S0M 2563  17.354   3.658   4.030
    1STR    S0X 2564   0.744   4.246   4.514
    1STR    S14 2565   0.188   4.441   5.068
    1STR    S1B 2566  17.038   4.316   4.884
    1HEX    C01 2567   0.279   4.207   8.034
    1HEX    C02 2568   0.218   4.208   8.174
    1HEX    C03 2569   0.067   4.210   8.165
    1HEX    O04 2570   0.004   4.111   8.127
    1HEX    O05 2571   0.015   4.329   8.201
    1HEX    C06 2572  17.314   4.345   8.207
    1HEX    C07 2573  17.265   4.340   8.354
    1HEX    C08 2574  17.310   4.469   8.425
    1HEX    O09 2575  17.243   4.588   8.388
    1HEX    C0A 2576  17.179   4.659   8.481
    1HEX    O0B 2577  17.132   4.613   8.586
    1HEX    C0C 2578  17.176   4.807   8.450
    1HEX    C0D 2579  17.186   4.891   8.578
    1HEX    C0F 2580  17.109   4.336   8.353
    1HEX    O0G 2581  17.064   4.214   8.294
    1HEX    C0H 2582  17.010   4.213   8.171
    1HEX    O0I 2583  16.977   4.312   8.106
    1HEX    C0J 2584  16.998   4.073   8.113
    1HEX    C0K 2585  16.879   3.997   8.173
    1HEX    C0N 2586  17.313   4.211   8.430
    1HEX    O0O 2587   0.011   4.189   8.468
    1HEX    C0P 2588   0.088   4.274   8.557
    1HEX    C0Q 2589   0.071   4.263   8.712
    1HEX    C0R 2590   0.146   4.138   8.766
    1HEX    O0S 2591   0.288   4.139   8.739
    1HEX    C0T 2592   0.379   4.154   8.840
    1HEX    O0U 2593   0.352   4.179   8.957
    1HEX    C0V 2594   0.525   4.129   8.798
    1HEX    C0W 2595   0.609   4.258   8.770
    1HEX    C0Y 2596   0.136   4.390   8.775
    1HEX    O0Z 2597   0.112   4.387   8.914
    1HEX    C10 2598   0.194   4.447   9.000
    1HEX    O11 2599   0.293   4.514   8.970
    1HEX    C12 2600   0.151   4.422   9.143
    1HEX    C13 2601   0.259   4.459   9.245
    1HEX    C15 2602  17.361   4.257   8.750
    1HEX    O16 2603  17.331   4.238   8.889
    1HEX    C17 2604  17.230   4.157   8.925
    1HEX    O18 2605  17.172   4.077   8.852
    1HEX    C19 2606  17.184   4.179   9.068
    1HEX    C1A 2607  17.099   4.306   9.077
    1HEX    H1D 2608   0.248   4.117   7.979
    1HEX    H1E 2609   0.246   4.293   7.976
    1HEX    H1F 2610   0.252   4.295   8.230
    1HEX    H1G 2611   0.248   4.120   8.230
    1HEX    H1H 2612  17.264   4.270   8.145
    1HEX    H1I 2613  17.288   4.440   8.162
    1HEX    H1J 2614  17.414   4.489   8.398
    1HEX    H1K 2615  17.308   4.455   8.533
    1HEX    H1M 2616  17.087   4.832   8.392
    1HEX    H1N 2617  17.262   4.828   8.386
    1HEX    H1O 2618  17.263   4.851   8.645
    1HEX    H1P 2619  17.092   4.889   8.633
    1HEX    H1R 2620  17.067   4.423   8.303
    1HEX    H1S 2621  17.070   4.341   8.455
    1HEX    H1T 2622  17.092   4.020   8.132
    1HEX    H1U 2623  16.988   4.081   8.005
    1HEX    H1V 2624  16.786   4.049   8.151
    1HEX    H1W 2625  16.889   3.990   8.281
    1HEX    H1Y 2626  17.293   4.127   8.362
    1HEX    H1Z 2627  17.244   4.189   8.510
    1HEX    H20 2628   0.087   4.377   8.525
    1HEX    H21 2629   0.191   4.246   8.535
    1HEX    H22 2630   0.103   4.049   8.721
    1HEX    H23 2631   0.127   4.128   8.873
    1HEX    H24 2632   0.526   4.061   8.713
    1HEX    H25 2633   0.571   4.075   8.881
    1HEX    H26 2634   0.597   4.329   8.852
    1HEX    H27 2635   0.571   4.307   8.681
    1HEX    H29 2636   0.095   4.482   8.735
    1HEX    H2A 2637   0.243   4.392   8.755
    1HEX    H2B 2638   0.126   4.316   9.152
    1HEX    H2C 2639   0.059   4.478   9.160
    1HEX    H2D 2640   0.292   4.562   9.230
    1HEX    H2E 2641   0.346   4.395   9.233
    1HEX    H2G 2642  17.317   4.174   8.696
    1HEX    H2H 2643  17.309   4.348   8.721
    1HEX    H2I 2644  17.271   4.183   9.134
    1HEX    H2J 2645  17.125   4.092   9.098
    1HEX    H2K 2646  17.015   4.301   9.007
    1HEX    H2M 2647  17.158   4.393   9.049
    1STR    S00 2648   0.460   4.210   8.049
    1STR    S0E 2649  17.229   5.062   8.535
    1STR    S0M 2650  16.875   3.831   8.102
    1STR    S0X 2651   0.788   4.221   8.744
    1STR    S14 2652   0.188   4.440   9.411
    1STR    S1B 2653  17.037   4.324   9.246
    1HEX    C01 2654   0.265   4.213  12.401
    1HEX    C02 2655   0.203   4.224  12.541
    1HEX    C03 2656   0.053   4.243  12.532
    1HEX    O04 2657  17.421   4.154  12.485
    1HEX    O05 2658   0.011   4.363  12.578
    1HEX    C06 2659  17.312   4.395  12.579
    1HEX    C07 2660  17.250   4.385  12.721
    1HEX    C08 2661  17.292   4.509  12.808
    1HEX    O09 2662  17.248   4.645  12.784
    1HEX    C0A 2663  17.253   4.735  12.890
    1HEX    O0B 2664  17.256   4.700  13.008
    1HEX    C0C 2665  17.259   4.887  12.856
    1HEX    C0D 2666  17.297   4.976  12.981
    1HEX    C0F 2667  17.095   4.379  12.708
    1HEX    O0G 2668  17.055   4.252  12.655
    1HEX    C0H 2669  17.010   4.239  12.529
    1HEX    O0I 2670  16.979   4.332  12.454
    1HEX    C0J 2671  17.006   4.094  12.482
    1HEX    C0K 2672  16.887   4.017  12.540
    1HEX    C0N 2673  17.289   4.246  12.787
    1HEX    O0O 2674  17.422   4.214  12.832
    1HEX    C0P 2675   0.053   4.286  12.933
    1HEX    C0Q 2676   0.016   4.274  13.085
    1HEX    C0R 2677   0.046   4.130  13.135
    1HEX    O0S 2678   0.186   4.101  13.127
    1HEX    C0T 2679   0.262   4.091  13.238
    1HEX    O0U 2680   0.221   4.097  13.354
    1HEX    C0V 2681   0.410   4.069  13.207
    1HEX    C0W 2682   0.493   4.199  13.212
    1HEX    C0Y 2683   0.110   4.374  13.156
    1HEX    O0Z 2684   0.090   4.369  13.295
    1HEX    C10 2685   0.177   4.431  13.374
    1HEX    O11 2686   0.272   4.500  13.336
    1HEX    C12 2687   0.145   4.409  13.520
    1HEX    C13 2688   0.259   4.453  13.612
    1HEX    C15 2689  17.310   4.320  13.115
    1HEX    O16 2690  17.246   4.282  13.238
    1HEX    C17 2691  17.145   4.193  13.233
    1HEX    O18 2692  17.135   4.102  13.152
    1HEX    C19 2693  17.032   4.223  13.333
    1HEX    C1A 2694  16.921   4.309  13.266
    1HEX    H1D 2695   0.230   4.123  12.351
    1HEX    H1E 2696   0.236   4.298  12.340
    1HEX    H1F 2697   0.245   4.308  12.596
    1HEX    H1G 2698   0.223   4.134  12.600
    1HEX    H1H 2699  17.259   4.330  12.509
    1HEX    H1I 2700  17.299   4.495  12.540
    1HEX    H1J 2701  17.400   4.519  12.800
    1HEX    H1K 2702  17.269   4.483  12.911
    1HEX    H1M 2703  17.163   4.916  12.814
    1HEX    H1N 2704  17.334   4.900  12.778
    1HEX    H1O 2705  17.396   4.947  13.017
    1HEX    H1P 2706  17.229   4.952  13.063
    1HEX    H1R 2707  17.057   4.463  12.649
    1HEX    H1S 2708  17.048   4.388  12.806
    1HEX    H1T 2709  17.100   4.046  12.508
    1HEX    H1U 2710  17.000   4.094  12.373
    1HEX    H1V 2711  16.793   4.067  12.517
    1HEX    H1W 2712  16.895   4.009  12.648
    1HEX    H1Y 2713  17.276   4.170  12.709
    1HEX    H1Z 2714  17.215   4.210  12.858
    1HEX    H20 2715   0.069   4.389  12.905
    1HEX    H21 2716   0.154   4.245  12.924
    1HEX    H22 2717  17.430   4.057  13.076
    1HEX    H23 2718   0.009   4.118  13.237
    1HEX    H24 2719   0.417   4.024  13.108
    1HEX    H25 2720   0.450   3.996  13.278
    1HEX    H26 2721   0.440   4.281  13.163
    1HEX    H27 2722   0.587   4.186  13.160
    1HEX    H29 2723   0.094   4.476  13.122
    1HEX    H2A 2724   0.214   4.351  13.133
    1HEX    H2B 2725   0.123   4.303  13.534
    1HEX    H2C 2726   0.053   4.464  13.542
    1HEX    H2D 2727   0.291   4.555  13.588
    1HEX    H2E 2728   0.346   4.388  13.598
    1HEX    H2G 2729  17.243   4.292  13.036
    1HEX    H2H 2730  17.306   4.429  13.115
    1HEX    H2I 2731  17.073   4.272  13.421
    1HEX    H2J 2732  16.992   4.127  13.365
    1HEX    H2K 2733  16.932   4.307  13.157
    1HEX    H2M 2734  16.932   4.413  13.295
    1STR    S00 2735   0.446   4.209  12.417
    1STR    S0E 2736  17.292   5.163  12.966
    1STR    S0M 2737  16.885   3.850  12.468
    1STR    S0X 2738   0.529   4.247  13.384
    1STR    S14 2739   0.201   4.447  13.784
    1STR    S1B 2740  16.749   4.256  13.305
    1HEX    C01 2741   0.274   8.568  16.751
    1HEX    C02 2742   0.207   8.568  16.889
    1HEX    C03 2743   0.056   8.559  16.875
    1HEX    O04 2744   0.002   8.455  16.836
    1HEX    O05 2745  17.433   8.672  16.911
    1HEX    C06 2746  17.292   8.672  16.926
    1HEX    C07 2747  17.253   8.661  17.076
    1HEX    C08 2748  17.282   8.798  17.140
    1HEX    O09 2749  17.204   8.912  17.103
    1HEX    C0A 2750  17.167   8.997  17.201
    1HEX    O0B 2751  17.136   8.963  17.316
    1HEX    C0C 2752  17.174   9.144  17.162
    1HEX    C0D 2753  17.186   9.235  17.286
    1HEX    C0F 2754  17.102   8.623  17.088
    1HEX    O0G 2755  17.088   8.480  17.079
    1HEX    C0H 2756  17.063   8.419  16.963
    1HEX    O0I 2757  17.009   8.473  16.866
    1HEX    C0J 2758  17.117   8.275  16.954
    1HEX    C0K 2759  17.049   8.171  17.047
    1HEX    C0N 2760  17.332   8.547  17.151
    1HEX    O0O 2761   0.030   8.561  17.182
    1HEX    C0P 2762   0.079   8.647  17.285
    1HEX    C0Q 2763   0.040   8.628  17.435
    1HEX    C0R 2764   0.072   8.483   0.040
    1HEX    O0S 2765   0.213   8.459   0.038
    1HEX    C0T 2766   0.282   8.446   0.153
    1HEX    O0U 2767   0.235   8.448   0.267
    1HEX    C0V 2768   0.431   8.427   0.129
    1HEX    C0W 2769   0.509   8.560   0.132
    1HEX    C0Y 2770   0.129   8.729   0.071
    1HEX    O0Z 2771   0.108   8.720   0.210
    1HEX    C10 2772   0.183   8.793   0.291
    1HEX    O11 2773   0.270   8.873   0.255
    1HEX    C12 2774   0.148   8.769   0.437
    1HEX    C13 2775   0.261   8.812   0.531
    1HEX    C15 2776  17.332   8.666   0.027
    1HEX    O16 2777  17.293   8.643   0.162
    1HEX    C17 2778  17.216   8.537   0.194
    1HEX    O18 2779  17.182   8.447   0.119
    1HEX    C19 2780  17.170   8.543   0.339
    1HEX    C1A 2781  17.087   8.669   0.363
    1HEX    H1D 2782   0.248   8.477  16.697
    1HEX    H1E 2783   0.239   8.652  16.692
    1HEX    H1F 2784   0.232   8.658  16.945
    1HEX    H1G 2785   0.239   8.483  16.948
    1HEX    H1H 2786  17.246   8.593  16.866
    1HEX    H1I 2787  17.253   8.765  16.884
    1HEX    H1J 2788  17.384   8.828  17.114
    1HEX    H1K 2789  17.281   8.786  17.247
    1HEX    H1M 2790  17.088   9.171  17.101
    1HEX    H1N 2791  17.262   9.156  17.099
    1HEX    H1O 2792  17.263   9.198  17.354
    1HEX    H1P 2793  17.093   9.237  17.342
    1HEX    H1R 2794  17.041   8.676  17.014
    1HEX    H1S 2795  17.063   8.655  17.185
    1HEX    H1T 2796  17.225   8.276  16.965
    1HEX    H1U 2797  17.099   8.244  16.851
    1HEX    H1V 2798  17.010   8.087  16.990
    1HEX    H1W 2799  16.964   8.218  17.095
    1HEX    H1Y 2800  17.331   8.460  17.084
    1HEX    H1Z 2801  17.278   8.507  17.236
    1HEX    H20 2802   0.072   8.751  17.257
    1HEX    H21 2803   0.187   8.628  17.279
    1HEX    H22 2804   0.022   8.411  17.415
    1HEX    H23 2805   0.032   8.464   0.140
    1HEX    H24 2806   0.443   8.378   0.032
    1HEX    H25 2807   0.470   8.358   0.204
    1HEX    H26 2808   0.455   8.637   0.076
    1HEX    H27 2809   0.606   8.548   0.084
    1HEX    H29 2810   0.108   8.831   0.040
    1HEX    H2A 2811   0.234   8.711   0.050
    1HEX    H2B 2812   0.126   8.663   0.449
    1HEX    H2C 2813   0.056   8.824   0.457
    1HEX    H2D 2814   0.293   8.914   0.509
    1HEX    H2E 2815   0.348   8.747   0.518
    1HEX    H2G 2816  17.259   8.620  17.402
    1HEX    H2H 2817  17.318   8.773   0.014
    1HEX    H2I 2818  17.258   8.540   0.404
    1HEX    H2J 2819  17.112   8.453   0.361
    1HEX    H2K 2820  17.001   8.672   0.296
    1HEX    H2M 2821  17.146   8.759   0.343
    1STR    S00 2822   0.453   8.578  16.774
    1STR    S0E 2823  17.231   9.403  17.234
    1STR    S0M 2824  17.151   8.101  17.183
    1STR    S0X 2825   0.535   8.617   0.302
    1STR    S14 2826   0.200   8.802   0.701
    1STR    S1B 2827  17.030   8.672   0.535
    1HEX    C01 2828   0.277   8.568   3.673
    1HEX    C02 2829   0.214   8.569   3.813
    1HEX    C03 2830   0.063   8.570   3.802
    1HEX    O04 2831   0.001   8.471   3.763
    1HEX    O05 2832   0.009   8.688   3.836
    1HEX    C06 2833  17.308   8.703   3.842
    1HEX    C07 2834  17.257   8.698   3.988
    1HEX    C08 2835  17.306   8.826   4.059
    1HEX    O09 2836  17.241   8.947   4.023
    1HEX    C0A 2837  17.179   9.018   4.118
    1HEX    O0B 2838  17.133   8.973   4.222
    1HEX    C0C 2839  17.176   9.168   4.087
    1HEX    C0D 2840  17.186   9.250   4.217
    1HEX    C0F 2841  17.102   8.697   3.989
    1HEX    O0G 2842  17.055   8.575   3.931
    1HEX    C0H 2843  17.006   8.573   3.807
    1HEX    O0I 2844  16.976   8.671   3.739
    1HEX    C0J 2845  16.996   8.432   3.751
    1HEX    C0K 2846  16.878   8.356   3.812
    1HEX    C0N 2847  17.303   8.567   4.062
    1HEX    O0O 2848  -0.000   8.549   4.104
    1HEX    C0P 2849   0.067   8.630   4.201
    1HEX    C0Q 2850   0.033   8.621   4.353
    1HEX    C0R 2851   0.067   8.478   4.404
    1HEX    O0S 2852   0.208   8.454   4.400
    1HEX    C0T 2853   0.280   8.445   4.514
    1HEX    O0U 2854   0.235   8.450   4.629
    1HEX    C0V 2855   0.429   8.427   4.488
    1HEX    C0W 2856   0.506   8.560   4.492
    1HEX    C0Y 2857   0.124   8.725   4.423
    1HEX    O0Z 2858   0.105   8.719   4.563
    1HEX    C10 2859   0.183   8.791   4.643
    1HEX    O11 2860   0.272   8.867   4.606
    1HEX    C12 2861   0.148   8.769   4.789
    1HEX    C13 2862   0.261   8.812   4.883
    1HEX    C15 2863  17.326   8.659   4.387
    1HEX    O16 2864  17.288   8.639   4.523
    1HEX    C17 2865  17.214   8.533   4.558
    1HEX    O18 2866  17.182   8.440   4.485
    1HEX    C19 2867  17.169   8.542   4.703
    1HEX    C1A 2868  17.086   8.669   4.725
    1HEX    H1D 2869   0.248   8.478   3.619
    1HEX    H1E 2870   0.244   8.654   3.615
    1HEX    H1F 2871   0.246   8.657   3.870
    1HEX    H1G 2872   0.243   8.481   3.870
    1HEX    H1H 2873  17.259   8.628   3.779
    1HEX    H1I 2874  17.281   8.798   3.796
    1HEX    H1J 2875  17.410   8.844   4.032
    1HEX    H1K 2876  17.303   8.812   4.166
    1HEX    H1M 2877  17.087   9.193   4.030
    1HEX    H1N 2878  17.262   9.189   4.024
    1HEX    H1O 2879  17.263   9.209   4.283
    1HEX    H1P 2880  17.092   9.247   4.272
    1HEX    H1R 2881  17.061   8.785   3.938
    1HEX    H1S 2882  17.064   8.704   4.091
    1HEX    H1T 2883  17.090   8.381   3.770
    1HEX    H1U 2884  16.985   8.439   3.642
    1HEX    H1V 2885  16.784   8.407   3.791
    1HEX    H1W 2886  16.888   8.350   3.920
    1HEX    H1Y 2887  17.288   8.486   3.990
    1HEX    H1Z 2888  17.234   8.538   4.140
    1HEX    H20 2889   0.076   8.733   4.170
    1HEX    H21 2890   0.170   8.596   4.192
    1HEX    H22 2891   0.016   8.403   4.344
    1HEX    H23 2892   0.030   8.464   4.506
    1HEX    H24 2893   0.440   8.380   4.391
    1HEX    H25 2894   0.469   8.357   4.562
    1HEX    H26 2895   0.452   8.639   4.439
    1HEX    H27 2896   0.603   8.549   4.443
    1HEX    H29 2897   0.102   8.826   4.390
    1HEX    H2A 2898   0.229   8.707   4.401
    1HEX    H2B 2899   0.126   8.664   4.803
    1HEX    H2C 2900   0.057   8.825   4.809
    1HEX    H2D 2901   0.293   8.914   4.861
    1HEX    H2E 2902   0.348   8.748   4.871
    1HEX    H2G 2903  17.253   8.609   4.325
    1HEX    H2H 2904  17.310   8.766   4.370
    1HEX    H2I 2905  17.257   8.540   4.767
    1HEX    H2J 2906  17.110   8.453   4.726
    1HEX    H2K 2907  17.000   8.671   4.658
    1HEX    H2M 2908  17.146   8.758   4.704
    1STR    S00 2909   0.458   8.572   3.691
    1STR    S0E 2910  17.229   9.421   4.176
    1STR    S0M 2911  16.874   8.189   3.741
    1STR    S0X 2912   0.535   8.614   4.663
    1STR    S14 2913   0.199   8.804   5.053
    1STR    S1B 2914  17.029   8.675   4.897
    1HEX    C01 2915   0.277   8.568   8.033
    1HEX    C02 2916   0.214   8.569   8.173
    1HEX    C03 2917   0.063   8.570   8.162
    1HEX    O04 2918   0.001   8.471   8.123
    1HEX    O05 2919   0.009   8.688   8.196
    1HEX    C06 2920  17.308   8.703   8.201
    1HEX    C07 2921  17.257   8.698   8.348
    1HEX    C08 2922  17.306   8.826   8.419
    1HEX    O09 2923  17.241   8.947   8.383
    1HEX    C0A 2924  17.179   9.018   8.478
    1HEX    O0B 2925  17.133   8.973   8.582
    1HEX    C0C 2926  17.176   9.168   8.447
    1HEX    C0D 2927  17.186   9.250   8.577
    1HEX    C0F 2928  17.102   8.697   8.349
    1HEX    O0G 2929  17.055   8.575   8.291
    1HEX    C0H 2930  17.006   8.573   8.167
    1HEX    O0I 2931  16.976   8.671   8.099
    1HEX    C0J 2932  16.996   8.432   8.111
    1HEX    C0K 2933  16.878   8.356   8.172
    1HEX    C0N 2934  17.303   8.567   8.422
    1HEX    O0O 2935  -0.000   8.549   8.464
    1HEX    C0P 2936   0.067   8.630   8.561
    1HEX    C0Q 2937   0.033   8.621   8.713
    1HEX    C0R 2938   0.067   8.478   8.764
    1HEX    O0S 2939   0.208   8.454   8.760
    1HEX    C0T 2940   0.280   8.445   8.874
    1HEX    O0U 2941   0.235   8.450   8.989
    1HEX    C0V 2942   0.429   8.427   8.848
    1HEX    C0W 2943   0.506   8.560   8.852
    1HEX    C0Y 2944   0.124   8.725   8.783
    1HEX    O0Z 2945   0.105   8.719   8.923
    1HEX    C10 2946   0.183   8.791   9.003
    1HEX    O11 2947   0.272   8.867   8.966
    1HEX    C12 2948   0.148   8.769   9.149
    1HEX    C13 2949   0.261   8.812   9.243
    1HEX    C15 2950  17.326   8.659   8.747
    1HEX    O16 2951  17.288   8.639   8.883
    1HEX    C17 2952  17.214   8.533   8.918
    1HEX    O18 2953  17.182   8.440   8.845
    1HEX    C19 2954  17.169   8.542   9.063
    1HEX    C1A 2955  17.086   8.669   9.085
    1HEX    H1D 2956   0.248   8.478   7.979
    1HEX    H1E 2957   0.244   8.654   7.975
    1HEX    H1F 2958   0.246   8.657   8.230
    1HEX    H1G 2959   0.243   8.481   8.230
    1HEX    H1H 2960  17.259   8.628   8.139
    1HEX    H1I 2961  17.281   8.798   8.156
    1HEX    H1J 2962  17.410   8.844   8.392
    1HEX    H1K 2963  17.303   8.812   8.526
    1HEX    H1M 2964  17.087   9.193   8.390
    1HEX    H1N 2965  17.262   9.189   8.384
    1HEX    H1O 2966  17.263   9.209   8.643
    1HEX    H1P 2967  17.092   9.247   8.632
    1HEX    H1R 2968  17.061   8.785   8.298
    1HEX    H1S 2969  17.064   8.704   8.451
    1HEX    H1T 2970  17.090   8.381   8.130
    1HEX    H1U 2971  16.985   8.439   8.002
    1HEX    H1V 2972  16.784   8.407   8.151
    1HEX    H1W 2973  16.888   8.350   8.280
    1HEX    H1Y 2974  17.288   8.486   8.350
    1HEX    H1Z 2975  17.234   8.538   8.500
    1HEX    H20 2976   0.076   8.733   8.530
    1HEX    H21 2977   0.170   8.596   8.552
    1HEX    H22 2978   0.016   8.403   8.704
    1HEX    H23 2979   0.030   8.464   8.866
    1HEX    H24 2980   0.440   8.380   8.751
    1HEX    H25 2981   0.469   8.357   8.922
    1HEX    H26 2982   0.452   8.639   8.799
    1HEX    H27 2983   0.603   8.549   8.803
    1HEX    H29 2984   0.102   8.826   8.750
    1HEX    H2A 2985   0.229   8.707   8.761
    1HEX    H2B 2986   0.126   8.664   9.163
    1HEX    H2C 2987   0.057   8.825   9.169
    1HEX    H2D 2988   0.293   8.914   9.221
    1HEX    H2E 2989   0.348   8.748   9.231
    1HEX    H2G 2990  17.253   8.609   8.685
    1HEX    H2H 2991  17.310   8.766   8.730
    1HEX    H2I 2992  17.256   8.540   9.127
    1HEX    H2J 2993  17.110   8.453   9.086
    1HEX    H2K 2994  17.000   8.671   9.018
    1HEX    H2M 2995  17.146   8.758   9.064
    1STR    S00 2996   0.458   8.572   8.051
    1STR    S0E 2997  17.230   9.421   8.536
    1STR    S0M 2998  16.874   8.189   8.101
    1STR    S0X 2999   0.535   8.614   9.022
    1STR    S14 3000   0.199   8.804   9.414
    1STR    S1B 3001  17.029   8.675   9.257
    1HEX    C01 3002   0.265   8.576  12.392
    1HEX    C02 3003   0.198   8.586  12.529
    1HEX    C03 3004   0.047   8.578  12.518
    1HEX    O04 3005  17.432   8.475  12.477
    1HEX    O05 3006  17.424   8.689  12.562
    1HEX    C06 3007  17.284   8.686  12.588
    1HEX    C07 3008  17.254   8.669  12.740
    1HEX    C08 3009  17.268   8.809  12.815
    1HEX    O09 3010  17.225   8.943  12.777
    1HEX    C0A 3011  17.236   9.043  12.877
    1HEX    O0B 3012  17.236   9.016  12.997
    1HEX    C0C 3013  17.253   9.192  12.832
    1HEX    C0D 3014  17.239   9.302  12.947
    1HEX    C0F 3015  17.113   8.599  12.760
    1HEX    O0G 3016  17.123   8.456  12.791
    1HEX    C0H 3017  17.106   8.359  12.698
    1HEX    O0I 3018  17.050   8.379  12.590
    1HEX    C0J 3019  17.172   8.220  12.726
    1HEX    C0K 3020  17.168   8.153  12.869
    1HEX    C0N 3021  17.354   8.564  12.804
    1HEX    O0O 3022   0.052   8.594  12.822
    1HEX    C0P 3023   0.100   8.667  12.935
    1HEX    C0Q 3024   0.052   8.638  13.082
    1HEX    C0R 3025   0.079   8.490  13.120
    1HEX    O0S 3026   0.219   8.462  13.117
    1HEX    C0T 3027   0.287   8.444  13.232
    1HEX    O0U 3028   0.239   8.441  13.346
    1HEX    C0V 3029   0.436   8.425  13.209
    1HEX    C0W 3030   0.513   8.558  13.212
    1HEX    C0Y 3031   0.140   8.733  13.165
    1HEX    O0Z 3032   0.117   8.720  13.303
    1HEX    C10 3033   0.188   8.795  13.385
    1HEX    O11 3034   0.273   8.878  13.352
    1HEX    C12 3035   0.150   8.770  13.530
    1HEX    C13 3036   0.262   8.812  13.625
    1HEX    C15 3037  17.344   8.678  13.113
    1HEX    O16 3038  17.302   8.648  13.246
    1HEX    C17 3039  17.222   8.543  13.270
    1HEX    O18 3040  17.187   8.458  13.189
    1HEX    C19 3041  17.172   8.542  13.414
    1HEX    C1A 3042  17.087   8.668  13.441
    1HEX    H1D 3043   0.235   8.484  12.341
    1HEX    H1E 3044   0.235   8.660  12.328
    1HEX    H1F 3045   0.225   8.678  12.581
    1HEX    H1G 3046   0.230   8.503  12.593
    1HEX    H1H 3047  17.236   8.606  12.530
    1HEX    H1I 3048  17.240   8.778  12.551
    1HEX    H1J 3049  17.374   8.828  12.819
    1HEX    H1K 3050  17.231   8.794  12.915
    1HEX    H1M 3051  17.180   9.213  12.754
    1HEX    H1N 3052  17.351   9.200  12.786
    1HEX    H1O 3053  17.231   9.252  13.044
    1HEX    H1P 3054  17.146   9.357  12.937
    1HEX    H1R 3055  17.048   8.616  12.674
    1HEX    H1S 3056  17.061   8.645  12.843
    1HEX    H1T 3057  17.276   8.230  12.694
    1HEX    H1U 3058  17.127   8.151  12.654
    1HEX    H1V 3059  17.064   8.139  12.900
    1HEX    H1W 3060  17.214   8.218  12.943
    1HEX    H1Y 3061  17.357   8.480  12.734
    1HEX    H1Z 3062  17.318   8.516  12.894
    1HEX    H20 3063   0.100   8.773  12.915
    1HEX    H21 3064   0.206   8.643  12.932
    1HEX    H22 3065   0.028   8.422  13.051
    1HEX    H23 3066   0.037   8.468  13.218
    1HEX    H24 3067   0.448   8.377  13.112
    1HEX    H25 3068   0.475   8.356  13.284
    1HEX    H26 3069   0.460   8.635  13.156
    1HEX    H27 3070   0.611   8.547  13.165
    1HEX    H29 3071   0.122   8.837  13.137
    1HEX    H2A 3072   0.246   8.716  13.145
    1HEX    H2B 3073   0.127   8.664  13.541
    1HEX    H2C 3074   0.058   8.826  13.549
    1HEX    H2D 3075   0.293   8.915  13.605
    1HEX    H2E 3076   0.349   8.748  13.611
    1HEX    H2G 3077  17.271   8.635  13.047
    1HEX    H2H 3078  17.334   8.786  13.104
    1HEX    H2I 3079  17.258   8.538  13.480
    1HEX    H2J 3080  17.113   8.452  13.431
    1HEX    H2K 3081  17.000   8.670  13.376
    1HEX    H2M 3082  17.145   8.758  13.422
    1STR    S00 3083   0.445   8.578  12.415
    1STR    S0E 3084  17.376   9.426  12.973
    1STR    S0M 3085  17.252   7.986  12.870
    1STR    S0X 3086   0.536   8.616  13.383
    1STR    S14 3087   0.200   8.800  13.795
    1STR    S1B 3088  17.034   8.668  13.614
    1HEX    C01 3089   0.277  12.928  16.753
    1HEX    C02 3090   0.214  12.930  16.893
    1HEX    C03 3091   0.063  12.930  16.882
    1HEX    O04 3092   0.001  12.831  16.843
    1HEX    O05 3093   0.009  13.048  16.916
    1HEX    C06 3094  17.308  13.063  16.921
    1HEX    C07 3095  17.257  13.058  17.068
    1HEX    C08 3096  17.306  13.186  17.139
    1HEX    O09 3097  17.241  13.307  17.102
    1HEX    C0A 3098  17.179  13.378  17.197
    1HEX    O0B 3099  17.133  13.333  17.302
    1HEX    C0C 3100  17.176  13.528  17.167
    1HEX    C0D 3101  17.186  13.610  17.297
    1HEX    C0F 3102  17.102  13.057  17.069
    1HEX    O0G 3103  17.055  12.936  17.011
    1HEX    C0H 3104  17.006  12.934  16.886
    1HEX    O0I 3105  16.976  13.032  16.819
    1HEX    C0J 3106  16.996  12.793  16.831
    1HEX    C0K 3107  16.878  12.716  16.892
    1HEX    C0N 3108  17.303  12.927  17.142
    1HEX    O0O 3109  -0.000  12.909  17.184
    1HEX    C0P 3110   0.067  12.990  17.281
    1HEX    C0Q 3111   0.033  12.981  17.433
    1HEX    C0R 3112   0.067  12.838   0.044
    1HEX    O0S 3113   0.208  12.815   0.040
    1HEX    C0T 3114   0.280  12.806   0.154
    1HEX    O0U 3115   0.235  12.810   0.269
    1HEX    C0V 3116   0.429  12.788   0.128
    1HEX    C0W 3117   0.507  12.921   0.132
    1HEX    C0Y 3118   0.123  13.085   0.063
    1HEX    O0Z 3119   0.105  13.079   0.203
    1HEX    C10 3120   0.183  13.151   0.283
    1HEX    O11 3121   0.272  13.227   0.245
    1HEX    C12 3122   0.148  13.130   0.429
    1HEX    C13 3123   0.261  13.173   0.523
    1HEX    C15 3124  17.325  13.019   0.027
    1HEX    O16 3125  17.288  12.999   0.163
    1HEX    C17 3126  17.214  12.893   0.199
    1HEX    O18 3127  17.182  12.800   0.126
    1HEX    C19 3128  17.169  12.902   0.343
    1HEX    C1A 3129  17.086  13.029   0.365
    1HEX    H1D 3130   0.248  12.838  16.699
    1HEX    H1E 3131   0.244  13.014  16.695
    1HEX    H1F 3132   0.246  13.017  16.949
    1HEX    H1G 3133   0.243  12.841  16.950
    1HEX    H1H 3134  17.259  12.988  16.859
    1HEX    H1I 3135  17.281  13.158  16.876
    1HEX    H1J 3136  17.410  13.204  17.112
    1HEX    H1K 3137  17.303  13.172  17.246
    1HEX    H1M 3138  17.087  13.553  17.110
    1HEX    H1N 3139  17.263  13.549  17.104
    1HEX    H1O 3140  17.263  13.569  17.363
    1HEX    H1P 3141  17.092  13.607  17.352
    1HEX    H1R 3142  17.061  13.145  17.018
    1HEX    H1S 3143  17.064  13.064  17.171
    1HEX    H1T 3144  17.090  12.741  16.850
    1HEX    H1U 3145  16.985  12.799  16.722
    1HEX    H1V 3146  16.784  12.767  16.870
    1HEX    H1W 3147  16.888  12.710  17.000
    1HEX    H1Y 3148  17.288  12.846  17.070
    1HEX    H1Z 3149  17.234  12.898  17.220
    1HEX    H20 3150   0.076  13.093  17.250
    1HEX    H21 3151   0.170  12.956  17.272
    1HEX    H22 3152   0.016  12.763  17.424
    1HEX    H23 3153   0.030  12.824   0.146
    1HEX    H24 3154   0.440  12.740   0.031
    1HEX    H25 3155   0.469  12.718   0.202
    1HEX    H26 3156   0.452  12.999   0.079
    1HEX    H27 3157   0.603  12.910   0.083
    1HEX    H29 3158   0.102  13.186   0.030
    1HEX    H2A 3159   0.229  13.067   0.041
    1HEX    H2B 3160   0.126  13.024   0.443
    1HEX    H2C 3161   0.057  13.185   0.449
    1HEX    H2D 3162   0.293  13.274   0.501
    1HEX    H2E 3163   0.348  13.108   0.510
    1HEX    H2G 3164  17.253  12.969  17.405
    1HEX    H2H 3165  17.310  13.126   0.010
    1HEX    H2I 3166  17.256  12.900   0.407
    1HEX    H2J 3167  17.110  12.813   0.366
    1HEX    H2K 3168  17.001  13.032   0.298
    1HEX    H2M 3169  17.146  13.118   0.344
    1STR    S00 3170   0.458  12.932  16.771
    1STR    S0E 3171  17.230  13.781  17.256
    1STR    S0M 3172  16.874  12.549  16.821
    1STR    S0X 3173   0.535  12.975   0.303
    1STR    S14 3174   0.199  13.164   0.693
    1STR    S1B 3175  17.029  13.035   0.537
    1HEX    C01 3176   0.271  12.932   3.678
    1HEX    C02 3177   0.211  12.940   3.819
    1HEX    C03 3178   0.060  12.953   3.812
    1HEX    O04 3179  17.431  12.860   3.770
    1HEX    O05 3180   0.016  13.073   3.853
    1HEX    C06 3181  17.316  13.100   3.859
    1HEX    C07 3182  17.261  13.091   4.003
    1HEX    C08 3183  17.300  13.219   4.083
    1HEX    O09 3184  17.245  13.347   4.049
    1HEX    C0A 3185  17.232  13.440   4.150
    1HEX    O0B 3186  17.221  13.412   4.269
    1HEX    C0C 3187  17.236  13.588   4.105
    1HEX    C0D 3188  17.261  13.686   4.224
    1HEX    C0F 3189  17.106  13.080   3.996
    1HEX    O0G 3190  17.069  12.954   3.938
    1HEX    C0H 3191  17.013  12.947   3.816
    1HEX    O0I 3192  16.973  13.043   3.749
    1HEX    C0J 3193  17.007  12.805   3.762
    1HEX    C0K 3194  16.886  12.728   3.817
    1HEX    C0N 3195  17.312  12.961   4.077
    1HEX    O0O 3196   0.008  12.949   4.123
    1HEX    C0P 3197   0.069  13.023   4.231
    1HEX    C0Q 3198   0.033  12.995   4.380
    1HEX    C0R 3199   0.065  12.847   4.413
    1HEX    O0S 3200   0.206  12.822   4.405
    1HEX    C0T 3201   0.279  12.801   4.517
    1HEX    O0U 3202   0.235  12.795   4.631
    1HEX    C0V 3203   0.427  12.783   4.488
    1HEX    C0W 3204   0.505  12.916   4.490
    1HEX    C0Y 3205   0.118  13.087   4.472
    1HEX    O0Z 3206   0.088  13.062   4.609
    1HEX    C10 3207   0.150  13.127   4.708
    1HEX    O11 3208   0.239  13.211   4.692
    1HEX    C12 3209   0.096  13.089   4.846
    1HEX    C13 3210   0.190  13.129   4.962
    1HEX    C15 3211  17.324  13.031   4.407
    1HEX    O16 3212  17.280  13.006   4.539
    1HEX    C17 3213  17.211  12.895   4.568
    1HEX    O18 3214  17.186  12.802   4.492
    1HEX    C19 3215  17.160  12.899   4.711
    1HEX    C1A 3216  17.079  13.027   4.735
    1HEX    H1D 3217   0.237  12.841   3.627
    1HEX    H1E 3218   0.240  13.017   3.618
    1HEX    H1F 3219   0.251  13.025   3.874
    1HEX    H1G 3220   0.235  12.850   3.877
    1HEX    H1H 3221  17.263  13.032   3.792
    1HEX    H1I 3222  17.297  13.198   3.817
    1HEX    H1J 3223  17.407  13.234   4.070
    1HEX    H1K 3224  17.283  13.198   4.188
    1HEX    H1M 3225  17.143  13.611   4.053
    1HEX    H1N 3226  17.316  13.597   4.032
    1HEX    H1O 3227  17.349  13.656   4.281
    1HEX    H1P 3228  17.178  13.681   4.294
    1HEX    H1R 3229  17.063  13.165   3.942
    1HEX    H1S 3230  17.062  13.085   4.095
    1HEX    H1T 3231  17.100  12.754   3.785
    1HEX    H1U 3232  17.001  12.810   3.653
    1HEX    H1V 3233  16.793  12.780   3.793
    1HEX    H1W 3234  16.892  12.720   3.926
    1HEX    H1Y 3235  17.303  12.881   4.004
    1HEX    H1Z 3236  17.241  12.926   4.150
    1HEX    H20 3237   0.070  13.130   4.212
    1HEX    H21 3238   0.175  12.997   4.220
    1HEX    H22 3239   0.013  12.780   4.344
    1HEX    H23 3240   0.027  12.821   4.512
    1HEX    H24 3241   0.436  12.736   4.390
    1HEX    H25 3242   0.469  12.713   4.560
    1HEX    H26 3243   0.451  12.994   4.436
    1HEX    H27 3244   0.602  12.904   4.440
    1HEX    H29 3245   0.100  13.192   4.451
    1HEX    H2A 3246   0.225  13.072   4.456
    1HEX    H2B 3247   0.083  12.981   4.844
    1HEX    H2C 3248  17.438  13.134   4.859
    1HEX    H2D 3249   0.184  13.236   4.982
    1HEX    H2E 3250   0.293  13.110   4.932
    1HEX    H2G 3251  17.256  12.981   4.340
    1HEX    H2H 3252  17.309  13.138   4.391
    1HEX    H2I 3253  17.246  12.893   4.778
    1HEX    H2J 3254  17.099  12.810   4.729
    1HEX    H2K 3255  16.996  13.034   4.664
    1HEX    H2M 3256  17.141  13.115   4.720
    1STR    S00 3257   0.452  12.931   3.692
    1STR    S0E 3258  17.281  13.863   4.175
    1STR    S0M 3259  16.883  12.562   3.744
    1STR    S0X 3260   0.535  12.972   4.660
    1STR    S14 3261   0.160  13.035   5.118
    1STR    S1B 3262  17.015  13.027   4.904
    1HEX    C01 3263   0.216  12.911   7.990
    1HEX    C02 3264   0.217  12.941   8.141
    1HEX    C03 3265   0.074  12.930   8.190
    1HEX    O04 3266   0.020  12.820   8.199
    1HEX    O05 3267   0.015  13.049   8.207
    1HEX    C06 3268  17.313  13.056   8.212
    1HEX    C07 3269  17.256  13.057   8.355
    1HEX    C08 3270  17.303  13.186   8.425
    1HEX    O09 3271  17.239  13.306   8.386
    1HEX    C0A 3272  17.176  13.379   8.480
    1HEX    O0B 3273  17.129  13.335   8.585
    1HEX    C0C 3274  17.175  13.528   8.448
    1HEX    C0D 3275  17.186  13.612   8.576
    1HEX    C0F 3276  17.101  13.059   8.348
    1HEX    O0G 3277  17.054  12.937   8.290
    1HEX    C0H 3278  17.007  12.935   8.164
    1HEX    O0I 3279  16.978  13.033   8.097
    1HEX    C0J 3280  16.998  12.794   8.109
    1HEX    C0K 3281  16.880  12.717   8.170
    1HEX    C0N 3282  17.294  12.927   8.435
    1HEX    O0O 3283  17.429  12.903   8.478
    1HEX    C0P 3284   0.062  12.987   8.567
    1HEX    C0Q 3285   0.032  12.981   8.720
    1HEX    C0R 3286   0.067  12.839   8.771
    1HEX    O0S 3287   0.207  12.815   8.765
    1HEX    C0T 3288   0.280  12.806   8.878
    1HEX    O0U 3289   0.237  12.811   8.993
    1HEX    C0V 3290   0.429  12.788   8.850
    1HEX    C0W 3291   0.507  12.921   8.853
    1HEX    C0Y 3292   0.125  13.086   8.786
    1HEX    O0Z 3293   0.107  13.082   8.926
    1HEX    C10 3294   0.185  13.152   9.005
    1HEX    O11 3295   0.275  13.228   8.968
    1HEX    C12 3296   0.150  13.131   9.151
    1HEX    C13 3297   0.262  13.173   9.246
    1HEX    C15 3298  17.326  13.022   8.755
    1HEX    O16 3299  17.289  13.000   8.890
    1HEX    C17 3300  17.215  12.894   8.924
    1HEX    O18 3301  17.183  12.801   8.850
    1HEX    C19 3302  17.167  12.902   9.068
    1HEX    C1A 3303  17.084  13.029   9.088
    1HEX    H1D 3304   0.297  12.844   7.960
    1HEX    H1E 3305   0.124  12.857   7.966
    1HEX    H1F 3306   0.259  13.039   8.165
    1HEX    H1G 3307   0.275  12.866   8.194
    1HEX    H1H 3308  17.271  12.974   8.153
    1HEX    H1I 3309  17.282  13.146   8.159
    1HEX    H1J 3310  17.408  13.204   8.399
    1HEX    H1K 3311  17.299  13.173   8.532
    1HEX    H1M 3312  17.086  13.554   8.390
    1HEX    H1N 3313  17.261  13.548   8.384
    1HEX    H1O 3314  17.262  13.570   8.643
    1HEX    H1P 3315  17.092  13.610   8.632
    1HEX    H1R 3316  17.064  13.146   8.294
    1HEX    H1S 3317  17.058  13.068   8.448
    1HEX    H1T 3318  17.092  12.742   8.129
    1HEX    H1U 3319  16.987  12.800   8.000
    1HEX    H1V 3320  16.786  12.768   8.148
    1HEX    H1W 3321  16.890  12.711   8.278
    1HEX    H1Y 3322  17.275  12.843   8.367
    1HEX    H1Z 3323  17.221  12.904   8.512
    1HEX    H20 3324   0.071  13.089   8.532
    1HEX    H21 3325   0.165  12.951   8.555
    1HEX    H22 3326   0.014  12.764   8.712
    1HEX    H23 3327   0.030  12.825   8.873
    1HEX    H24 3328   0.439  12.740   8.753
    1HEX    H25 3329   0.470  12.718   8.923
    1HEX    H26 3330   0.452  12.999   8.800
    1HEX    H27 3331   0.603  12.909   8.803
    1HEX    H29 3332   0.104  13.187   8.751
    1HEX    H2A 3333   0.230  13.067   8.763
    1HEX    H2B 3334   0.127  13.025   9.164
    1HEX    H2C 3335   0.058  13.187   9.171
    1HEX    H2D 3336   0.295  13.275   9.224
    1HEX    H2E 3337   0.349  13.108   9.233
    1HEX    H2G 3338  17.253  12.973   8.693
    1HEX    H2H 3339  17.312  13.129   8.739
    1HEX    H2I 3340  17.254  12.900   9.133
    1HEX    H2J 3341  17.108  12.813   9.090
    1HEX    H2K 3342  16.999  13.031   9.020
    1HEX    H2M 3343  17.144  13.118   9.067
    1STR    S00 3344   0.223  13.064   7.891
    1STR    S0E 3345  17.231  13.782   8.534
    1STR    S0M 3346  16.876  12.550   8.100
    1STR    S0X 3347   0.538  12.975   9.023
    1STR    S14 3348   0.200  13.164   9.416
    1STR    S1B 3349  17.026  13.036   9.260
    1HEX    C01 3350   0.273  12.929  12.390
    1HEX    C02 3351   0.208  12.930  12.529
    1HEX    C03 3352   0.058  12.916  12.518
    1HEX    O04 3353   0.006  12.810  12.482
    1HEX    O05 3354  17.432  13.027  12.554
    1HEX    C06 3355  17.292  13.023  12.573
    1HEX    C07 3356  17.257  13.012  12.724
    1HEX    C08 3357  17.282  13.150  12.788
    1HEX    O09 3358  17.201  13.261  12.750
    1HEX    C0A 3359  17.167  13.350  12.847
    1HEX    O0B 3360  17.141  13.320  12.964
    1HEX    C0C 3361  17.174  13.496  12.803
    1HEX    C0D 3362  17.186  13.591  12.924
    1HEX    C0F 3363  17.108  12.968  12.739
    1HEX    O0G 3364  17.099  12.824  12.729
    1HEX    C0H 3365  17.060  12.763  12.616
    1HEX    O0I 3366  16.999  12.819  12.525
    1HEX    C0J 3367  17.111  12.619  12.599
    1HEX    C0K 3368  17.108  12.522  12.721
    1HEX    C0N 3369  17.342  12.900  12.796
    1HEX    O0O 3370   0.042  12.918  12.827
    1HEX    C0P 3371   0.093  13.010  12.924
    1HEX    C0Q 3372   0.067  12.994  13.077
    1HEX    C0R 3373   0.126  12.860  13.128
    1HEX    O0S 3374   0.269  12.852  13.110
    1HEX    C0T 3375   0.354  12.860  13.217
    1HEX    O0U 3376   0.320  12.878  13.334
    1HEX    C0V 3377   0.502  12.839  13.181
    1HEX    C0W 3378   0.576  12.964  13.125
    1HEX    C0Y 3379   0.143  13.110  13.146
    1HEX    O0Z 3380   0.117  13.104  13.285
    1HEX    C10 3381   0.198  13.164  13.371
    1HEX    O11 3382   0.297  13.232  13.342
    1HEX    C12 3383   0.153  13.138  13.513
    1HEX    C13 3384   0.260  13.178  13.616
    1HEX    C15 3385  17.356  13.012  13.115
    1HEX    O16 3386  17.323  12.982  13.250
    1HEX    C17 3387  17.232  12.887  13.278
    1HEX    O18 3388  17.188  12.803  13.199
    1HEX    C19 3389  17.180  12.897  13.420
    1HEX    C1A 3390  17.095  13.024  13.436
    1HEX    H1D 3391   0.245  12.839  12.335
    1HEX    H1E 3392   0.239  13.014  12.331
    1HEX    H1F 3393   0.232  13.021  12.584
    1HEX    H1G 3394   0.244  12.846  12.589
    1HEX    H1H 3395  17.246  12.943  12.515
    1HEX    H1I 3396  17.249  13.115  12.531
    1HEX    H1J 3397  17.382  13.183  12.760
    1HEX    H1K 3398  17.281  13.138  12.896
    1HEX    H1M 3399  17.087  13.521  12.742
    1HEX    H1N 3400  17.262  13.507  12.740
    1HEX    H1O 3401  17.262  13.555  12.994
    1HEX    H1P 3402  17.092  13.595  12.980
    1HEX    H1R 3403  17.044  13.019  12.666
    1HEX    H1S 3404  17.070  12.998  12.836
    1HEX    H1T 3405  17.214  12.629  12.564
    1HEX    H1U 3406  17.056  12.574  12.516
    1HEX    H1V 3407  17.006  12.491  12.744
    1HEX    H1W 3408  17.147  12.570  12.811
    1HEX    H1Y 3409  17.343  12.815  12.728
    1HEX    H1Z 3410  17.290  12.856  12.880
    1HEX    H20 3411   0.078  13.113  12.894
    1HEX    H21 3412   0.201  12.999  12.911
    1HEX    H22 3413   0.080  12.777  13.074
    1HEX    H23 3414   0.099  12.844  13.232
    1HEX    H24 3415   0.508  12.756  13.110
    1HEX    H25 3416   0.552  12.804  13.271
    1HEX    H26 3417   0.506  13.048  13.122
    1HEX    H27 3418   0.607  12.947  13.022
    1HEX    H29 3419   0.111  13.208  13.109
    1HEX    H2A 3420   0.250  13.104  13.127
    1HEX    H2B 3421   0.130  13.032  13.522
    1HEX    H2C 3422   0.061  13.193  13.529
    1HEX    H2D 3423   0.293  13.280  13.599
    1HEX    H2E 3424   0.348  13.114  13.605
    1HEX    H2G 3425  17.289  12.958  13.049
    1HEX    H2H 3426  17.328  13.116  13.103
    1HEX    H2I 3427  17.265  12.898  13.489
    1HEX    H2J 3428  17.121  12.809  13.443
    1HEX    H2K 3429  17.010  13.022  13.368
    1HEX    H2M 3430  17.154  13.113  13.411
    1STR    S00 3431   0.453  12.936  12.410
    1STR    S0E 3432  17.232  13.757  12.868
    1STR    S0M 3433  17.208  12.371  12.680
    1STR    S0X 3434   0.720  13.018  13.226
    1STR    S14 3435   0.189  13.162  13.782
    1STR    S1B 3436  17.037  13.037  13.607
    1HEX    C01 3437   4.636  17.289  16.749
    1HEX    C02 3438   4.570  17.290  16.887
    1HEX    C03 3439   4.420  17.273  16.875
    1HEX    O04 3440   4.371  17.166  16.839
    1HEX    O05 3441   4.352  17.384  16.910
    1HEX    C06 3442   4.211  17.376  16.928
    1HEX    C07 3443   4.176  17.362  17.078
    1HEX    C08 3444   4.193   0.062  17.142
    1HEX    O09 3445   4.112   0.173  17.105
    1HEX    C0A 3446   4.083   0.264  17.202
    1HEX    O0B 3447   4.059   0.236  17.319
    1HEX    C0C 3448   4.093   0.410  17.158
    1HEX    C0D 3449   4.106   0.505  17.279
    1HEX    C0F 3450   4.031  17.305  17.092
    1HEX    O0G 3451   4.035  17.160  17.087
    1HEX    C0H 3452   4.015  17.093  16.972
    1HEX    O0I 3453   3.953  17.139  16.877
    1HEX    C0J 3454   4.086  16.956  16.961
    1HEX    C0K 3455   4.096  16.862  17.086
    1HEX    C0N 3456   4.267  17.258  17.154
    1HEX    O0O 3457   4.403  17.287  17.182
    1HEX    C0P 3458   4.445  17.374  17.288
    1HEX    C0Q 3459   4.404  17.350  17.437
    1HEX    C0R 3460   4.436  17.205   0.039
    1HEX    O0S 3461   4.577  17.180   0.037
    1HEX    C0T 3462   4.645  17.166   0.153
    1HEX    O0U 3463   4.597  17.167   0.266
    1HEX    C0V 3464   4.794  17.147   0.130
    1HEX    C0W 3465   4.871  17.280   0.132
    1HEX    C0Y 3466   4.491   0.010   0.075
    1HEX    O0Z 3467   4.470  -0.000   0.214
    1HEX    C10 3468   4.544   0.073   0.296
    1HEX    O11 3469   4.631   0.154   0.261
    1HEX    C12 3470   4.508   0.049   0.441
    1HEX    C13 3471   4.621   0.092   0.536
    1HEX    C15 3472   4.255  17.387   0.028
    1HEX    O16 3473   4.215  17.363   0.162
    1HEX    C17 3474   4.139  17.257   0.193
    1HEX    O18 3475   4.107  17.166   0.116
    1HEX    C19 3476   4.091  17.261   0.337
    1HEX    C1A 3477   4.007  17.388   0.361
    1HEX    H1D 3478   4.609  17.199  16.694
    1HEX    H1E 3479   4.603  17.375  16.690
    1HEX    H1F 3480   4.592  17.382  16.942
    1HEX    H1G 3481   4.606  17.208  16.949
    1HEX    H1H 3482   4.168  17.296  16.868
    1HEX    H1I 3483   4.167   0.027  16.887
    1HEX    H1J 3484   4.294   0.097  17.119
    1HEX    H1K 3485   4.188   0.050  17.249
    1HEX    H1M 3486   4.008   0.437  17.096
    1HEX    H1N 3487   4.182   0.420  17.095
    1HEX    H1O 3488   4.182   0.470  17.349
    1HEX    H1P 3489   4.012   0.510  17.335
    1HEX    H1R 3490   3.964  17.348  17.017
    1HEX    H1S 3491   3.988  17.334  17.188
    1HEX    H1T 3492   4.187  16.980  16.926
    1HEX    H1U 3493   4.039  16.902  16.879
    1HEX    H1V 3494   4.001  16.809  17.100
    1HEX    H1W 3495   4.113  16.919  17.177
    1HEX    H1Y 3496   4.273  17.170  17.090
    1HEX    H1Z 3497   4.219  17.217  17.242
    1HEX    H20 3498   4.431   0.038  17.261
    1HEX    H21 3499   4.553  17.362  17.283
    1HEX    H22 3500   4.386  17.133  17.414
    1HEX    H23 3501   4.395  17.185   0.139
    1HEX    H24 3502   4.806  17.098   0.033
    1HEX    H25 3503   4.833  17.078   0.205
    1HEX    H26 3504   4.818  17.357   0.077
    1HEX    H27 3505   4.969  17.268   0.085
    1HEX    H29 3506   4.471   0.113   0.045
    1HEX    H2A 3507   4.597  17.434   0.055
    1HEX    H2B 3508   4.487  17.383   0.453
    1HEX    H2C 3509   4.417   0.104   0.461
    1HEX    H2D 3510   4.653   0.194   0.514
    1HEX    H2E 3511   4.708   0.028   0.522
    1HEX    H2G 3512   4.184  17.339  17.402
    1HEX    H2H 3513   4.241   0.054   0.014
    1HEX    H2I 3514   4.178  17.259   0.402
    1HEX    H2J 3515   4.032  17.172   0.357
    1HEX    H2K 3516   3.921  17.389   0.294
    1HEX    H2M 3517   4.066   0.037   0.339
    1STR    S00 3518   4.816  17.295  16.772
    1STR    S0E 3519   4.152   0.671  17.223
    1STR    S0M 3520   4.231  16.735  17.066
    1STR    S0X 3521   4.897  17.337   0.302
    1STR    S14 3522   4.560   0.082   0.706
    1STR    S1B 3523   3.952  17.392   0.533
    1HEX    C01 3524   4.637  17.288   3.673
    1HEX    C02 3525   4.574  17.289   3.813
    1HEX    C03 3526   4.423  17.290   3.802
    1HEX    O04 3527   4.361  17.190   3.763
    1HEX    O05 3528   4.369  17.408   3.836
    1HEX    C06 3529   4.228  17.422   3.841
    1HEX    C07 3530   4.177  17.418   3.988
    1HEX    C08 3531   4.226   0.106   4.059
    1HEX    O09 3532   4.161   0.227   4.022
    1HEX    C0A 3533   4.099   0.298   4.117
    1HEX    O0B 3534   4.053   0.252   4.222
    1HEX    C0C 3535   4.096   0.447   4.087
    1HEX    C0D 3536   4.106   0.530   4.217
    1HEX    C0F 3537   4.022  17.417   3.989
    1HEX    O0G 3538   3.975  17.295   3.931
    1HEX    C0H 3539   3.926  17.293   3.807
    1HEX    O0I 3540   3.896  17.391   3.739
    1HEX    C0J 3541   3.916  17.152   3.751
    1HEX    C0K 3542   3.798  17.076   3.812
    1HEX    C0N 3543   4.223  17.287   4.062
    1HEX    O0O 3544   4.360  17.268   4.104
    1HEX    C0P 3545   4.427  17.350   4.201
    1HEX    C0Q 3546   4.393  17.340   4.353
    1HEX    C0R 3547   4.427  17.198   4.404
    1HEX    O0S 3548   4.568  17.174   4.400
    1HEX    C0T 3549   4.640  17.165   4.514
    1HEX    O0U 3550   4.595  17.170   4.629
    1HEX    C0V 3551   4.789  17.147   4.488
    1HEX    C0W 3552   4.867  17.280   4.492
    1HEX    C0Y 3553   4.483   0.004   4.423
    1HEX    O0Z 3554   4.465  17.439   4.563
    1HEX    C10 3555   4.543   0.070   4.643
    1HEX    O11 3556   4.632   0.147   4.605
    1HEX    C12 3557   4.508   0.049   4.789
    1HEX    C13 3558   4.621   0.092   4.883
    1HEX    C15 3559   4.245  17.379   4.387
    1HEX    O16 3560   4.208  17.359   4.523
    1HEX    C17 3561   4.134  17.253   4.559
    1HEX    O18 3562   4.102  17.159   4.486
    1HEX    C19 3563   4.088  17.261   4.703
    1HEX    C1A 3564   4.006  17.389   4.725
    1HEX    H1D 3565   4.608  17.198   3.619
    1HEX    H1E 3566   4.604  17.374   3.615
    1HEX    H1F 3567   4.606  17.377   3.869
    1HEX    H1G 3568   4.603  17.201   3.870
    1HEX    H1H 3569   4.179  17.347   3.779
    1HEX    H1I 3570   4.201   0.078   3.796
    1HEX    H1J 3571   4.330   0.124   4.032
    1HEX    H1K 3572   4.223   0.092   4.166
    1HEX    H1M 3573   4.007   0.473   4.030
    1HEX    H1N 3574   4.182   0.468   4.024
    1HEX    H1O 3575   4.183   0.489   4.283
    1HEX    H1P 3576   4.012   0.527   4.272
    1HEX    H1R 3577   3.981   0.065   3.938
    1HEX    H1S 3578   3.984  17.423   4.091
    1HEX    H1T 3579   4.010  17.100   3.770
    1HEX    H1U 3580   3.905  17.158   3.642
    1HEX    H1V 3581   3.704  17.127   3.790
    1HEX    H1W 3582   3.808  17.069   3.920
    1HEX    H1Y 3583   4.208  17.205   3.990
    1HEX    H1Z 3584   4.154  17.258   4.140
    1HEX    H20 3585   4.435   0.013   4.170
    1HEX    H21 3586   4.530  17.316   4.192
    1HEX    H22 3587   4.376  17.122   4.344
    1HEX    H23 3588   4.390  17.184   4.506
    1HEX    H24 3589   4.800  17.100   4.391
    1HEX    H25 3590   4.829  17.077   4.562
    1HEX    H26 3591   4.812  17.358   4.439
    1HEX    H27 3592   4.963  17.269   4.443
    1HEX    H29 3593   4.462   0.106   4.390
    1HEX    H2A 3594   4.588  17.427   4.400
    1HEX    H2B 3595   4.486  17.383   4.803
    1HEX    H2C 3596   4.417   0.104   4.809
    1HEX    H2D 3597   4.653   0.194   4.861
    1HEX    H2E 3598   4.708   0.028   4.871
    1HEX    H2G 3599   4.173  17.328   4.325
    1HEX    H2H 3600   4.230   0.045   4.370
    1HEX    H2I 3601   4.176  17.259   4.767
    1HEX    H2J 3602   4.030  17.172   4.726
    1HEX    H2K 3603   3.920  17.391   4.658
    1HEX    H2M 3604   4.066   0.037   4.704
    1STR    S00 3605   4.818  17.293   3.691
    1STR    S0E 3606   4.150   0.701   4.176
    1STR    S0M 3607   3.794  16.909   3.741
    1STR    S0X 3608   4.895  17.334   4.663
    1STR    S14 3609   4.559   0.084   5.053
    1STR    S1B 3610   3.949  17.394   4.897
    1HEX    C01 3611   4.637  17.288   8.033
    1HEX    C02 3612   4.574  17.289   8.173
    1HEX    C03 3613   4.423  17.290   8.162
    1HEX    O04 3614   4.361  17.190   8.123
    1HEX    O05 3615   4.369  17.408   8.196
    1HEX    C06 3616   4.228  17.423   8.201
    1HEX    C07 3617   4.177  17.418   8.348
    1HEX    C08 3618   4.226   0.106   8.419
    1HEX    O09 3619   4.161   0.227   8.382
    1HEX    C0A 3620   4.098   0.298   8.477
    1HEX    O0B 3621   4.053   0.252   8.582
    1HEX    C0C 3622   4.096   0.447   8.447
    1HEX    C0D 3623   4.106   0.530   8.577
    1HEX    C0F 3624   4.022  17.417   8.349
    1HEX    O0G 3625   3.975  17.295   8.291
    1HEX    C0H 3626   3.926  17.293   8.167
    1HEX    O0I 3627   3.896  17.391   8.099
    1HEX    C0J 3628   3.916  17.152   8.111
    1HEX    C0K 3629   3.798  17.076   8.172
    1HEX    C0N 3630   4.223  17.287   8.421
    1HEX    O0O 3631   4.360  17.268   8.464
    1HEX    C0P 3632   4.427  17.350   8.561
    1HEX    C0Q 3633   4.393  17.340   8.713
    1HEX    C0R 3634   4.427  17.198   8.764
    1HEX    O0S 3635   4.568  17.174   8.760
    1HEX    C0T 3636   4.640  17.165   8.874
    1HEX    O0U 3637   4.595  17.170   8.989
    1HEX    C0V 3638   4.789  17.147   8.848
    1HEX    C0W 3639   4.867  17.280   8.852
    1HEX    C0Y 3640   4.483   0.004   8.783
    1HEX    O0Z 3641   4.465  17.439   8.923
    1HEX    C10 3642   4.543   0.070   9.003
    1HEX    O11 3643   4.632   0.147   8.965
    1HEX    C12 3644   4.508   0.049   9.149
    1HEX    C13 3645   4.621   0.092   9.243
    1HEX    C15 3646   4.245  17.379   8.747
    1HEX    O16 3647   4.208  17.359   8.883
    1HEX    C17 3648   4.134  17.253   8.919
    1HEX    O18 3649   4.102  17.159   8.846
    1HEX    C19 3650   4.088  17.261   9.063
    1HEX    C1A 3651   4.006  17.389   9.085
    1HEX    H1D 3652   4.608  17.198   7.979
    1HEX    H1E 3653   4.604  17.374   7.975
    1HEX    H1F 3654   4.606  17.377   8.229
    1HEX    H1G 3655   4.603  17.201   8.230
    1HEX    H1H 3656   4.179  17.347   8.139
    1HEX    H1I 3657   4.201   0.078   8.156
    1HEX    H1J 3658   4.330   0.124   8.392
    1HEX    H1K 3659   4.223   0.092   8.526
    1HEX    H1M 3660   4.007   0.473   8.390
    1HEX    H1N 3661   4.182   0.468   8.384
    1HEX    H1O 3662   4.183   0.489   8.643
    1HEX    H1P 3663   4.012   0.527   8.632
    1HEX    H1R 3664   3.981   0.065   8.298
    1HEX    H1S 3665   3.984  17.423   8.451
    1HEX    H1T 3666   4.010  17.100   8.130
    1HEX    H1U 3667   3.905  17.158   8.002
    1HEX    H1V 3668   3.704  17.127   8.150
    1HEX    H1W 3669   3.808  17.069   8.280
    1HEX    H1Y 3670   4.208  17.205   8.350
    1HEX    H1Z 3671   4.154  17.258   8.500
    1HEX    H20 3672   4.435   0.013   8.530
    1HEX    H21 3673   4.530  17.316   8.552
    1HEX    H22 3674   4.376  17.122   8.704
    1HEX    H23 3675   4.390  17.184   8.866
    1HEX    H24 3676   4.800  17.100   8.751
    1HEX    H25 3677   4.829  17.077   8.922
    1HEX    H26 3678   4.812  17.358   8.799
    1HEX    H27 3679   4.963  17.269   8.803
    1HEX    H29 3680   4.462   0.106   8.750
    1HEX    H2A 3681   4.588  17.427   8.760
    1HEX    H2B 3682   4.486  17.383   9.163
    1HEX    H2C 3683   4.417   0.104   9.169
    1HEX    H2D 3684   4.653   0.194   9.221
    1HEX    H2E 3685   4.708   0.028   9.231
    1HEX    H2G 3686   4.173  17.328   8.685
    1HEX    H2H 3687   4.230   0.045   8.730
    1HEX    H2I 3688   4.176  17.259   9.127
    1HEX    H2J 3689   4.030  17.172   9.086
    1HEX    H2K 3690   3.920  17.391   9.018
    1HEX    H2M 3691   4.066   0.037   9.064
    1STR    S00 3692   4.818  17.293   8.051
    1STR    S0E 3693   4.150   0.701   8.536
    1STR    S0M 3694   3.794  16.909   8.101
    1STR    S0X 3695   4.895  17.334   9.023
    1STR    S14 3696   4.559   0.084   9.413
    1STR    S1B 3697   3.949  17.394   9.257
    1HEX    C01 3698   4.637  17.288  12.393
    1HEX    C02 3699   4.574  17.289  12.533
    1HEX    C03 3700   4.423  17.290  12.522
    1HEX    O04 3701   4.361  17.190  12.483
    1HEX    O05 3702   4.369  17.408  12.556
    1HEX    C06 3703   4.228  17.423  12.561
    1HEX    C07 3704   4.177  17.418  12.708
    1HEX    C08 3705   4.226   0.106  12.779
    1HEX    O09 3706   4.161   0.227  12.742
    1HEX    C0A 3707   4.099   0.298  12.837
    1HEX    O0B 3708   4.053   0.252  12.942
    1HEX    C0C 3709   4.096   0.447  12.807
    1HEX    C0D 3710   4.106   0.530  12.937
    1HEX    C0F 3711   4.022  17.417  12.709
    1HEX    O0G 3712   3.975  17.295  12.651
    1HEX    C0H 3713   3.926  17.293  12.527
    1HEX    O0I 3714   3.896  17.391  12.459
    1HEX    C0J 3715   3.916  17.152  12.471
    1HEX    C0K 3716   3.798  17.076  12.532
    1HEX    C0N 3717   4.223  17.287  12.782
    1HEX    O0O 3718   4.360  17.268  12.824
    1HEX    C0P 3719   4.427  17.350  12.921
    1HEX    C0Q 3720   4.393  17.340  13.073
    1HEX    C0R 3721   4.427  17.198  13.124
    1HEX    O0S 3722   4.568  17.174  13.120
    1HEX    C0T 3723   4.640  17.165  13.234
    1HEX    O0U 3724   4.595  17.170  13.349
    1HEX    C0V 3725   4.789  17.147  13.208
    1HEX    C0W 3726   4.866  17.280  13.212
    1HEX    C0Y 3727   4.483   0.004  13.143
    1HEX    O0Z 3728   4.465  17.439  13.283
    1HEX    C10 3729   4.543   0.070  13.363
    1HEX    O11 3730   4.632   0.147  13.325
    1HEX    C12 3731   4.508   0.049  13.509
    1HEX    C13 3732   4.621   0.092  13.603
    1HEX    C15 3733   4.245  17.379  13.107
    1HEX    O16 3734   4.208  17.359  13.243
    1HEX    C17 3735   4.134  17.253  13.279
    1HEX    O18 3736   4.102  17.159  13.206
    1HEX    C19 3737   4.088  17.261  13.423
    1HEX    C1A 3738   4.006  17.389  13.445
    1HEX    H1D 3739   4.608  17.198  12.339
    1HEX    H1E 3740   4.604  17.374  12.335
    1HEX    H1F 3741   4.606  17.377  12.589
    1HEX    H1G 3742   4.603  17.201  12.590
    1HEX    H1H 3743   4.179  17.347  12.499
    1HEX    H1I 3744   4.201   0.078  12.516
    1HEX    H1J 3745   4.330   0.124  12.752
    1HEX    H1K 3746   4.223   0.092  12.886
    1HEX    H1M 3747   4.007   0.473  12.750
    1HEX    H1N 3748   4.182   0.468  12.744
    1HEX    H1O 3749   4.183   0.489  13.003
    1HEX    H1P 3750   4.012   0.527  12.992
    1HEX    H1R 3751   3.981   0.065  12.658
    1HEX    H1S 3752   3.984  17.423  12.811
    1HEX    H1T 3753   4.010  17.100  12.490
    1HEX    H1U 3754   3.905  17.158  12.362
    1HEX    H1V 3755   3.704  17.127  12.510
    1HEX    H1W 3756   3.808  17.069  12.640
    1HEX    H1Y 3757   4.208  17.205  12.710
    1HEX    H1Z 3758   4.154  17.258  12.860
    1HEX    H20 3759   4.435   0.013  12.890
    1HEX    H21 3760   4.530  17.316  12.912
    1HEX    H22 3761   4.376  17.122  13.064
    1HEX    H23 3762   4.390  17.184  13.226
    1HEX    H24 3763   4.800  17.100  13.111
    1HEX    H25 3764   4.829  17.077  13.282
    1HEX    H26 3765   4.812  17.359  13.159
    1HEX    H27 3766   4.963  17.270  13.163
    1HEX    H29 3767   4.462   0.106  13.110
    1HEX    H2A 3768   4.588  17.427  13.120
    1HEX    H2B 3769   4.486  17.383  13.523
    1HEX    H2C 3770   4.417   0.104  13.529
    1HEX    H2D 3771   4.653   0.194  13.581
    1HEX    H2E 3772   4.708   0.028  13.591
    1HEX    H2G 3773   4.173  17.328  13.045
    1HEX    H2H 3774   4.230   0.045  13.090
    1HEX    H2I 3775   4.176  17.259  13.487
    1HEX    H2J 3776   4.030  17.172  13.446
    1HEX    H2K 3777   3.920  17.391  13.378
    1HEX    H2M 3778   4.066   0.037  13.424
    1STR    S00 3779   4.818  17.293  12.411
    1STR    S0E 3780   4.150   0.701  12.896
    1STR    S0M 3781   3.794  16.909  12.461
    1STR    S0X 3782   4.895  17.334  13.383
    1STR    S14 3783   4.559   0.084  13.773
    1STR    S1B 3784   3.949  17.394  13.617
    1HEX    C01 3785   4.521   4.206  16.673
    1HEX    C02 3786   4.559   4.232  16.821
    1HEX    C03 3787   4.429   4.214  16.898
    1HEX    O04 3788   4.378   4.102  16.905
    1HEX    O05 3789   4.370   4.331  16.924
    1HEX    C06 3790   4.228   4.337  16.931
    1HEX    C07 3791   4.175   4.337  17.076
    1HEX    C08 3792   4.225   4.466  17.144
    1HEX    O09 3793   4.160   4.586  17.106
    1HEX    C0A 3794   4.097   4.658  17.200
    1HEX    O0B 3795   4.051   4.614  17.305
    1HEX    C0C 3796   4.096   4.807  17.168
    1HEX    C0D 3797   4.106   4.891  17.297
    1HEX    C0F 3798   4.020   4.338  17.075
    1HEX    O0G 3799   3.972   4.216  17.019
    1HEX    C0H 3800   3.914   4.214  16.898
    1HEX    O0I 3801   3.877   4.311  16.833
    1HEX    C0J 3802   3.900   4.073  16.843
    1HEX    C0K 3803   3.791   3.994  16.915
    1HEX    C0N 3804   4.219   4.206  17.151
    1HEX    O0O 3805   4.355   4.185  17.192
    1HEX    C0P 3806   4.425   4.269  17.285
    1HEX    C0Q 3807   4.393   4.261  17.437
    1HEX    C0R 3808   4.427   4.119   0.048
    1HEX    O0S 3809   4.568   4.094   0.043
    1HEX    C0T 3810   4.640   4.086   0.157
    1HEX    O0U 3811   4.596   4.091   0.271
    1HEX    C0V 3812   4.789   4.068   0.130
    1HEX    C0W 3813   4.866   4.201   0.133
    1HEX    C0Y 3814   4.485   4.365   0.065
    1HEX    O0Z 3815   4.466   4.361   0.205
    1HEX    C10 3816   4.545   4.431   0.284
    1HEX    O11 3817   4.635   4.507   0.247
    1HEX    C12 3818   4.509   4.410   0.430
    1HEX    C13 3819   4.622   4.453   0.525
    1HEX    C15 3820   4.246   4.301   0.032
    1HEX    O16 3821   4.209   4.280   0.167
    1HEX    C17 3822   4.134   4.174   0.202
    1HEX    O18 3823   4.102   4.081   0.128
    1HEX    C19 3824   4.088   4.182   0.346
    1HEX    C1A 3825   4.005   4.309   0.367
    1HEX    H1D 3826   4.547   4.106  16.640
    1HEX    H1E 3827   4.413   4.203  16.672
    1HEX    H1F 3828   4.600   4.331  16.841
    1HEX    H1G 3829   4.630   4.158  16.858
    1HEX    H1H 3830   4.184   4.256  16.873
    1HEX    H1I 3831   4.197   4.428  16.879
    1HEX    H1J 3832   4.329   4.484  17.116
    1HEX    H1K 3833   4.224   4.454  17.251
    1HEX    H1M 3834   4.007   4.833  17.111
    1HEX    H1N 3835   4.182   4.828  17.105
    1HEX    H1O 3836   4.183   4.850  17.364
    1HEX    H1P 3837   4.012   4.888  17.352
    1HEX    H1R 3838   3.982   4.425  17.022
    1HEX    H1S 3839   3.981   4.347  17.176
    1HEX    H1T 3840   3.997   4.023  16.851
    1HEX    H1U 3841   3.877   4.080  16.737
    1HEX    H1V 3842   3.695   4.045  16.908
    1HEX    H1W 3843   3.815   3.983  17.021
    1HEX    H1Y 3844   4.201   4.124  17.082
    1HEX    H1Z 3845   4.148   4.178  17.229
    1HEX    H20 3846   4.434   4.371  17.251
    1HEX    H21 3847   4.528   4.234  17.274
    1HEX    H22 3848   4.375   4.044  17.428
    1HEX    H23 3849   4.390   4.105   0.150
    1HEX    H24 3850   4.799   4.021   0.032
    1HEX    H25 3851   4.829   3.998   0.203
    1HEX    H26 3852   4.811   4.279   0.081
    1HEX    H27 3853   4.962   4.190   0.083
    1HEX    H29 3854   4.463   4.467   0.030
    1HEX    H2A 3855   4.589   4.347   0.042
    1HEX    H2B 3856   4.486   4.305   0.444
    1HEX    H2C 3857   4.418   4.466   0.450
    1HEX    H2D 3858   4.654   4.555   0.503
    1HEX    H2E 3859   4.708   4.388   0.512
    1HEX    H2G 3860   4.173   4.253  17.410
    1HEX    H2H 3861   4.232   4.408   0.016
    1HEX    H2I 3862   4.175   4.180   0.410
    1HEX    H2J 3863   4.029   4.093   0.368
    1HEX    H2K 3864   3.920   4.311   0.299
    1HEX    H2M 3865   4.065   4.398   0.346
    1STR    S00 3866   4.543   4.334  16.545
    1STR    S0E 3867   4.149   5.062  17.255
    1STR    S0M 3868   3.779   3.830  16.838
    1STR    S0X 3869   4.897   4.254   0.304
    1STR    S14 3870   4.560   4.444   0.695
    1STR    S1B 3871   3.947   4.315   0.538
    1HEX    C01 3872   4.628   4.212   3.681
    1HEX    C02 3873   4.568   4.223   3.821
    1HEX    C03 3874   4.417   4.241   3.813
    1HEX    O04 3875   4.345   4.153   3.767
    1HEX    O05 3876   4.377   4.362   3.858
    1HEX    C06 3877   4.238   4.395   3.860
    1HEX    C07 3878   4.178   4.385   4.002
    1HEX    C08 3879   4.219   4.509   4.089
    1HEX    O09 3880   4.175   4.644   4.062
    1HEX    C0A 3881   4.178   4.736   4.167
    1HEX    O0B 3882   4.176   4.702   4.285
    1HEX    C0C 3883   4.190   4.887   4.130
    1HEX    C0D 3884   4.230   4.976   4.254
    1HEX    C0F 3885   4.023   4.379   3.989
    1HEX    O0G 3886   3.982   4.252   3.936
    1HEX    C0H 3887   3.933   4.239   3.811
    1HEX    O0I 3888   3.898   4.332   3.739
    1HEX    C0J 3889   3.927   4.094   3.764
    1HEX    C0K 3890   3.807   4.018   3.822
    1HEX    C0N 3891   4.218   4.247   4.068
    1HEX    O0O 3892   4.352   4.213   4.115
    1HEX    C0P 3893   4.429   4.287   4.212
    1HEX    C0Q 3894   4.404   4.271   4.366
    1HEX    C0R 3895   4.471   4.140   4.418
    1HEX    O0S 3896   4.613   4.130   4.391
    1HEX    C0T 3897   4.707   4.143   4.490
    1HEX    O0U 3898   4.683   4.175   4.606
    1HEX    C0V 3899   4.850   4.105   4.448
    1HEX    C0W 3900   4.948   4.221   4.412
    1HEX    C0Y 3901   4.476   4.390   4.433
    1HEX    O0Z 3902   4.454   4.386   4.572
    1HEX    C10 3903   4.541   4.444   4.654
    1HEX    O11 3904   4.640   4.510   4.621
    1HEX    C12 3905   4.504   4.418   4.799
    1HEX    C13 3906   4.616   4.458   4.896
    1HEX    C15 3907   4.251   4.281   4.395
    1HEX    O16 3908   4.187   4.240   4.518
    1HEX    C17 3909   4.066   4.173   4.508
    1HEX    O18 3910   4.032   4.101   4.415
    1HEX    C19 3911   3.967   4.198   4.623
    1HEX    C1A 3912   3.836   4.270   4.578
    1HEX    H1D 3913   4.591   4.123   3.629
    1HEX    H1E 3914   4.600   4.298   3.620
    1HEX    H1F 3915   4.611   4.306   3.876
    1HEX    H1G 3916   4.588   4.132   3.879
    1HEX    H1H 3917   4.184   4.331   3.790
    1HEX    H1I 3918   4.225   4.496   3.820
    1HEX    H1J 3919   4.327   4.520   4.081
    1HEX    H1K 3920   4.197   4.483   4.192
    1HEX    H1M 3921   4.094   4.918   4.088
    1HEX    H1N 3922   4.264   4.898   4.051
    1HEX    H1O 3923   4.331   4.951   4.288
    1HEX    H1P 3924   4.165   4.946   4.336
    1HEX    H1R 3925   3.984   4.462   3.931
    1HEX    H1S 3926   3.976   4.388   4.087
    1HEX    H1T 3927   4.021   4.045   3.790
    1HEX    H1U 3928   3.922   4.095   3.655
    1HEX    H1V 3929   3.714   4.069   3.797
    1HEX    H1W 3930   3.814   4.012   3.930
    1HEX    H1Y 3931   4.205   4.171   3.991
    1HEX    H1Z 3932   4.140   4.214   4.136
    1HEX    H20 3933   4.438   4.390   4.183
    1HEX    H21 3934   4.530   4.251   4.193
    1HEX    H22 3935   4.421   4.054   4.372
    1HEX    H23 3936   4.451   4.129   4.525
    1HEX    H24 3937   4.847   4.030   4.368
    1HEX    H25 3938   4.891   4.053   4.535
    1HEX    H26 3939   4.920   4.313   4.463
    1HEX    H27 3940   4.941   4.243   4.305
    1HEX    H29 3941   4.441   4.487   4.395
    1HEX    H2A 3942   4.583   4.386   4.410
    1HEX    H2B 3943   4.481   4.312   4.809
    1HEX    H2C 3944   4.412   4.473   4.819
    1HEX    H2D 3945   4.648   4.561   4.877
    1HEX    H2E 3946   4.703   4.394   4.882
    1HEX    H2G 3947   4.205   4.221   4.319
    1HEX    H2H 3948   4.218   4.383   4.380
    1HEX    H2I 3949   4.019   4.260   4.697
    1HEX    H2J 3950   3.945   4.104   4.672
    1HEX    H2K 3951   3.856   4.332   4.490
    1HEX    H2M 3952   3.803   4.339   4.656
    1STR    S00 3953   4.809   4.205   3.695
    1STR    S0E 3954   4.212   5.162   4.249
    1STR    S0M 3955   3.804   3.851   3.752
    1STR    S0X 3956   5.123   4.179   4.452
    1STR    S14 3957   4.552   4.444   5.065
    1STR    S1B 3958   3.690   4.163   4.538
    1HEX    C01 3959   4.636   4.207   8.035
    1HEX    C02 3960   4.573   4.209   8.175
    1HEX    C03 3961   4.422   4.208   8.166
    1HEX    O04 3962   4.361   4.109   8.126
    1HEX    O05 3963   4.367   4.326   8.201
    1HEX    C06 3964   4.226   4.340   8.205
    1HEX    C07 3965   4.173   4.336   8.351
    1HEX    C08 3966   4.223   4.464   8.421
    1HEX    O09 3967   4.159   4.586   8.384
    1HEX    C0A 3968   4.097   4.658   8.479
    1HEX    O0B 3969   4.051   4.613   8.584
    1HEX    C0C 3970   4.096   4.807   8.448
    1HEX    C0D 3971   4.106   4.890   8.577
    1HEX    C0F 3972   4.018   4.337   8.350
    1HEX    O0G 3973   3.970   4.216   8.292
    1HEX    C0H 3974   3.925   4.214   8.165
    1HEX    O0I 3975   3.900   4.312   8.096
    1HEX    C0J 3976   3.913   4.073   8.110
    1HEX    C0K 3977   3.796   3.997   8.173
    1HEX    C0N 3978   4.217   4.204   8.425
    1HEX    O0O 3979   4.350   4.187   8.475
    1HEX    C0P 3980   4.411   4.269   8.576
    1HEX    C0Q 3981   4.365   4.266   8.727
    1HEX    C0R 3982   4.394   4.126   8.785
    1HEX    O0S 3983   4.535   4.096   8.775
    1HEX    C0T 3984   4.614   4.092   8.885
    1HEX    O0U 3985   4.577   4.104   9.001
    1HEX    C0V 3986   4.761   4.069   8.851
    1HEX    C0W 3987   4.845   4.199   8.852
    1HEX    C0Y 3988   4.455   4.370   8.796
    1HEX    O0Z 3989   4.436   4.370   8.936
    1HEX    C10 3990   4.526   4.431   9.013
    1HEX    O11 3991   4.621   4.499   8.972
    1HEX    C12 3992   4.499   4.409   9.160
    1HEX    C13 3993   4.617   4.452   9.248
    1HEX    C15 3994   4.216   4.313   8.746
    1HEX    O16 3995   4.143   4.284   8.866
    1HEX    C17 3996   4.031   4.207   8.855
    1HEX    O18 3997   4.020   4.111   8.780
    1HEX    C19 3998   3.909   4.259   8.933
    1HEX    C1A 3999   3.811   4.334   8.836
    1HEX    H1D 4000   4.606   4.117   7.981
    1HEX    H1E 4001   4.602   4.293   7.977
    1HEX    H1F 4002   4.605   4.297   8.231
    1HEX    H1G 4003   4.604   4.121   8.232
    1HEX    H1H 4004   4.178   4.264   8.143
    1HEX    H1I 4005   4.199   4.435   8.159
    1HEX    H1J 4006   4.328   4.480   8.396
    1HEX    H1K 4007   4.219   4.452   8.528
    1HEX    H1M 4008   4.007   4.832   8.390
    1HEX    H1N 4009   4.182   4.827   8.385
    1HEX    H1O 4010   4.183   4.851   8.643
    1HEX    H1P 4011   4.012   4.886   8.633
    1HEX    H1R 4012   3.978   4.425   8.299
    1HEX    H1S 4013   3.979   4.343   8.452
    1HEX    H1T 4014   4.007   4.021   8.129
    1HEX    H1U 4015   3.901   4.079   8.002
    1HEX    H1V 4016   3.702   4.049   8.153
    1HEX    H1W 4017   3.807   3.991   8.282
    1HEX    H1Y 4018   4.207   4.124   8.351
    1HEX    H1Z 4019   4.144   4.170   8.498
    1HEX    H20 4020   4.425   4.371   8.542
    1HEX    H21 4021   4.514   4.233   8.575
    1HEX    H22 4022   4.338   4.049   8.731
    1HEX    H23 4023   4.360   4.120   8.889
    1HEX    H24 4024   4.766   4.024   8.752
    1HEX    H25 4025   4.803   3.996   8.920
    1HEX    H26 4026   4.792   4.280   8.803
    1HEX    H27 4027   4.939   4.184   8.799
    1HEX    H29 4028   4.438   4.471   8.759
    1HEX    H2A 4029   4.560   4.349   8.775
    1HEX    H2B 4030   4.478   4.303   9.175
    1HEX    H2C 4031   4.409   4.464   9.185
    1HEX    H2D 4032   4.649   4.553   9.223
    1HEX    H2E 4033   4.702   4.386   9.233
    1HEX    H2G 4034   4.155   4.282   8.663
    1HEX    H2H 4035   4.213   4.421   8.741
    1HEX    H2I 4036   3.941   4.322   9.016
    1HEX    H2J 4037   3.860   4.172   8.976
    1HEX    H2K 4038   3.824   4.293   8.736
    1HEX    H2M 4039   3.839   4.439   8.830
    1STR    S00 4040   4.816   4.212   8.052
    1STR    S0E 4041   4.146   5.062   8.534
    1STR    S0M 4042   3.790   3.830   8.103
    1STR    S0X 4043   4.885   4.249   9.022
    1STR    S14 4044   4.564   4.448   9.422
    1STR    S1B 4045   3.630   4.323   8.873
    1HEX    C01 4046   4.633   4.210  12.398
    1HEX    C02 4047   4.574   4.217  12.539
    1HEX    C03 4048   4.423   4.230  12.532
    1HEX    O04 4049   4.354   4.136  12.492
    1HEX    O05 4050   4.379   4.350  12.573
    1HEX    C06 4051   4.239   4.376  12.580
    1HEX    C07 4052   4.187   4.368  12.726
    1HEX    C08 4053   4.230   4.494  12.804
    1HEX    O09 4054   4.175   4.623  12.773
    1HEX    C0A 4055   4.156   4.710  12.877
    1HEX    O0B 4056   4.128   4.676  12.992
    1HEX    C0C 4057   4.177   4.858  12.841
    1HEX    C0D 4058   4.192   4.952  12.965
    1HEX    C0F 4059   4.032   4.357  12.721
    1HEX    O0G 4060   3.994   4.232  12.662
    1HEX    C0H 4061   3.935   4.227  12.540
    1HEX    O0I 4062   3.894   4.323  12.476
    1HEX    C0J 4063   3.928   4.085  12.484
    1HEX    C0K 4064   3.806   4.009  12.538
    1HEX    C0N 4065   4.239   4.239  12.801
    1HEX    O0O 4066   4.375   4.231  12.850
    1HEX    C0P 4067   4.432   4.305  12.961
    1HEX    C0Q 4068   4.391   4.274  13.109
    1HEX    C0R 4069   4.423   4.126  13.139
    1HEX    O0S 4070   4.564   4.101  13.129
    1HEX    C0T 4071   4.639   4.080  13.240
    1HEX    O0U 4072   4.597   4.074  13.355
    1HEX    C0V 4073   4.787   4.062  13.208
    1HEX    C0W 4074   4.864   4.195  13.205
    1HEX    C0Y 4075   4.473   4.364  13.208
    1HEX    O0Z 4076   4.437   4.338  13.344
    1HEX    C10 4077   4.492   4.407  13.446
    1HEX    O11 4078   4.581   4.491  13.434
    1HEX    C12 4079   4.426   4.376  13.582
    1HEX    C13 4080   4.514   4.405  13.707
    1HEX    C15 4081   4.242   4.310  13.131
    1HEX    O16 4082   4.194   4.285  13.262
    1HEX    C17 4083   4.128   4.174  13.292
    1HEX    O18 4084   4.105   4.080  13.216
    1HEX    C19 4085   4.077   4.176  13.435
    1HEX    C1A 4086   3.998   4.305  13.460
    1HEX    H1D 4087   4.600   4.120  12.346
    1HEX    H1E 4088   4.601   4.296  12.338
    1HEX    H1F 4089   4.614   4.302  12.594
    1HEX    H1G 4090   4.599   4.128  12.596
    1HEX    H1H 4091   4.186   4.307  12.515
    1HEX    H1I 4092   4.219   4.474  12.539
    1HEX    H1J 4093   4.336   4.507  12.788
    1HEX    H1K 4094   4.215   4.472  12.910
    1HEX    H1M 4095   4.096   4.892  12.777
    1HEX    H1N 4096   4.268   4.862  12.781
    1HEX    H1O 4097   4.221   4.896  13.054
    1HEX    H1P 4098   4.095   4.995  12.989
    1HEX    H1R 4099   3.989   4.443  12.667
    1HEX    H1S 4100   3.989   4.362  12.821
    1HEX    H1T 4101   4.021   4.033  12.507
    1HEX    H1U 4102   3.922   4.092  12.376
    1HEX    H1V 4103   3.714   4.061  12.514
    1HEX    H1W 4104   3.812   3.999  12.647
    1HEX    H1Y 4105   4.233   4.158  12.728
    1HEX    H1Z 4106   4.167   4.203  12.873
    1HEX    H20 4107   4.431   4.412  12.944
    1HEX    H21 4108   4.538   4.282  12.953
    1HEX    H22 4109   4.371   4.061  13.069
    1HEX    H23 4110   4.386   4.098  13.238
    1HEX    H24 4111   4.794   4.012  13.112
    1HEX    H25 4112   4.830   3.994  13.282
    1HEX    H26 4113   4.810   4.270  13.149
    1HEX    H27 4114   4.961   4.181  13.156
    1HEX    H29 4115   4.457   4.470  13.187
    1HEX    H2A 4116   4.581   4.349  13.197
    1HEX    H2B 4117   4.396   4.271  13.582
    1HEX    H2C 4118   4.335   4.435  13.585
    1HEX    H2D 4119   4.588   4.481  13.682
    1HEX    H2E 4120   4.571   4.316  13.736
    1HEX    H2G 4121   4.176   4.259  13.063
    1HEX    H2H 4122   4.227   4.416  13.115
    1HEX    H2I 4123   4.163   4.169  13.501
    1HEX    H2J 4124   4.015   4.088  13.452
    1HEX    H2K 4125   3.911   4.311  13.395
    1HEX    H2M 4126   4.059   4.393  13.439
    1STR    S00 4127   4.814   4.210  12.410
    1STR    S0E 4128   4.316   5.086  12.944
    1STR    S0M 4129   3.803   3.843  12.464
    1STR    S0X 4130   4.895   4.257  13.373
    1STR    S14 4131   4.423   4.471  13.854
    1STR    S1B 4132   3.945   4.310  13.633
    1HEX    C01 4133   4.637   8.568  16.753
    1HEX    C02 4134   4.574   8.569  16.893
    1HEX    C03 4135   4.423   8.570  16.882
    1HEX    O04 4136   4.361   8.471  16.843
    1HEX    O05 4137   4.369   8.688  16.916
    1HEX    C06 4138   4.228   8.703  16.921
    1HEX    C07 4139   4.177   8.698  17.068
    1HEX    C08 4140   4.226   8.826  17.139
    1HEX    O09 4141   4.161   8.947  17.103
    1HEX    C0A 4142   4.099   9.018  17.198
    1HEX    O0B 4143   4.053   8.973  17.302
    1HEX    C0C 4144   4.096   9.168  17.167
    1HEX    C0D 4145   4.106   9.250  17.297
    1HEX    C0F 4146   4.022   8.697  17.069
    1HEX    O0G 4147   3.975   8.575  17.011
    1HEX    C0H 4148   3.926   8.573  16.887
    1HEX    O0I 4149   3.896   8.671  16.819
    1HEX    C0J 4150   3.916   8.432  16.831
    1HEX    C0K 4151   3.798   8.356  16.892
    1HEX    C0N 4152   4.223   8.567  17.142
    1HEX    O0O 4153   4.360   8.549  17.184
    1HEX    C0P 4154   4.427   8.630  17.281
    1HEX    C0Q 4155   4.393   8.621  17.433
    1HEX    C0R 4156   4.427   8.478   0.044
    1HEX    O0S 4157   4.568   8.454   0.040
    1HEX    C0T 4158   4.640   8.445   0.154
    1HEX    O0U 4159   4.595   8.450   0.269
    1HEX    C0V 4160   4.789   8.427   0.128
    1HEX    C0W 4161   4.866   8.560   0.132
    1HEX    C0Y 4162   4.484   8.725   0.063
    1HEX    O0Z 4163   4.465   8.719   0.203
    1HEX    C10 4164   4.543   8.791   0.283
    1HEX    O11 4165   4.632   8.867   0.246
    1HEX    C12 4166   4.508   8.769   0.429
    1HEX    C13 4167   4.621   8.812   0.523
    1HEX    C15 4168   4.246   8.659   0.027
    1HEX    O16 4169   4.208   8.639   0.163
    1HEX    C17 4170   4.134   8.533   0.198
    1HEX    O18 4171   4.102   8.440   0.125
    1HEX    C19 4172   4.089   8.542   0.343
    1HEX    C1A 4173   4.006   8.669   0.365
    1HEX    H1D 4174   4.608   8.478  16.699
    1HEX    H1E 4175   4.604   8.654  16.695
    1HEX    H1F 4176   4.606   8.657  16.950
    1HEX    H1G 4177   4.603   8.481  16.950
    1HEX    H1H 4178   4.179   8.628  16.859
    1HEX    H1I 4179   4.201   8.798  16.876
    1HEX    H1J 4180   4.330   8.844  17.112
    1HEX    H1K 4181   4.223   8.812  17.246
    1HEX    H1M 4182   4.007   9.193  17.110
    1HEX    H1N 4183   4.182   9.189  17.104
    1HEX    H1O 4184   4.183   9.209  17.363
    1HEX    H1P 4185   4.012   9.247  17.352
    1HEX    H1R 4186   3.981   8.785  17.018
    1HEX    H1S 4187   3.984   8.704  17.171
    1HEX    H1T 4188   4.010   8.381  16.850
    1HEX    H1U 4189   3.905   8.439  16.722
    1HEX    H1V 4190   3.704   8.407  16.871
    1HEX    H1W 4191   3.808   8.350  17.000
    1HEX    H1Y 4192   4.208   8.486  17.070
    1HEX    H1Z 4193   4.154   8.538  17.220
    1HEX    H20 4194   4.436   8.733  17.250
    1HEX    H21 4195   4.530   8.596  17.272
    1HEX    H22 4196   4.376   8.403  17.424
    1HEX    H23 4197   4.390   8.464   0.146
    1HEX    H24 4198   4.800   8.380   0.031
    1HEX    H25 4199   4.829   8.357   0.202
    1HEX    H26 4200   4.812   8.638   0.079
    1HEX    H27 4201   4.963   8.549   0.083
    1HEX    H29 4202   4.462   8.826   0.030
    1HEX    H2A 4203   4.589   8.707   0.041
    1HEX    H2B 4204   4.486   8.664   0.443
    1HEX    H2C 4205   4.417   8.825   0.449
    1HEX    H2D 4206   4.653   8.914   0.501
    1HEX    H2E 4207   4.708   8.748   0.511
    1HEX    H2G 4208   4.173   8.609  17.405
    1HEX    H2H 4209   4.230   8.766   0.010
    1HEX    H2I 4210   4.176   8.540   0.407
    1HEX    H2J 4211   4.030   8.453   0.366
    1HEX    H2K 4212   3.920   8.671   0.298
    1HEX    H2M 4213   4.066   8.758   0.344
    1STR    S00 4214   4.818   8.572  16.771
    1STR    S0E 4215   4.150   9.421  17.256
    1STR    S0M 4216   3.794   8.189  16.821
    1STR    S0X 4217   4.895   8.615   0.302
    1STR    S14 4218   4.559   8.804   0.693
    1STR    S1B 4219   3.949   8.675   0.537
    1HEX    C01 4220   4.638   8.571   3.668
    1HEX    C02 4221   4.573   8.572   3.806
    1HEX    C03 4222   4.423   8.552   3.795
    1HEX    O04 4223   4.376   8.444   3.759
    1HEX    O05 4224   4.353   8.660   3.834
    1HEX    C06 4225   4.214   8.647   3.860
    1HEX    C07 4226   4.187   8.631   4.012
    1HEX    C08 4227   4.197   8.772   4.077
    1HEX    O09 4228   4.113   8.880   4.036
    1HEX    C0A 4229   4.085   8.975   4.130
    1HEX    O0B 4230   4.064   8.951   4.249
    1HEX    C0C 4231   4.094   9.119   4.080
    1HEX    C0D 4232   4.106   9.219   4.197
    1HEX    C0F 4233   4.047   8.564   4.034
    1HEX    O0G 4234   4.059   8.420   4.047
    1HEX    C0H 4235   4.046   8.338   3.940
    1HEX    O0I 4236   3.989   8.370   3.836
    1HEX    C0J 4237   4.116   8.200   3.952
    1HEX    C0K 4238   4.132   8.131   4.091
    1HEX    C0N 4239   4.291   8.533   4.081
    1HEX    O0O 4240   4.427   8.571   4.105
    1HEX    C0P 4241   4.469   8.663   4.207
    1HEX    C0Q 4242   4.442   8.638   4.359
    1HEX    C0R 4243   4.506   8.504   4.404
    1HEX    O0S 4244   4.649   8.498   4.383
    1HEX    C0T 4245   4.737   8.509   4.487
    1HEX    O0U 4246   4.706   8.531   4.604
    1HEX    C0V 4247   4.885   8.486   4.449
    1HEX    C0W 4248   4.964   8.617   4.423
    1HEX    C0Y 4249   4.513   8.754   4.432
    1HEX    O0Z 4250   4.487   8.744   4.570
    1HEX    C10 4251   4.561   8.809   4.658
    1HEX    O11 4252   4.654   8.885   4.631
    1HEX    C12 4253   4.514   8.781   4.799
    1HEX    C13 4254   4.621   8.818   4.903
    1HEX    C15 4255   4.291   8.649   4.396
    1HEX    O16 4256   4.257   8.612   4.530
    1HEX    C17 4257   4.155   8.527   4.554
    1HEX    O18 4258   4.102   8.453   4.471
    1HEX    C19 4259   4.104   8.537   4.696
    1HEX    C1A 4260   4.018   8.663   4.712
    1HEX    H1D 4261   4.611   8.480   3.614
    1HEX    H1E 4262   4.603   8.655   3.608
    1HEX    H1F 4263   4.593   8.665   3.859
    1HEX    H1G 4264   4.611   8.491   3.868
    1HEX    H1H 4265   4.170   8.565   3.802
    1HEX    H1I 4266   4.164   8.736   3.822
    1HEX    H1J 4267   4.295   8.811   4.052
    1HEX    H1K 4268   4.192   8.761   4.184
    1HEX    H1M 4269   4.008   9.143   4.017
    1HEX    H1N 4270   4.183   9.127   4.017
    1HEX    H1O 4271   4.182   9.187   4.269
    1HEX    H1P 4272   4.012   9.226   4.253
    1HEX    H1R 4273   3.976   8.593   3.955
    1HEX    H1S 4274   4.002   8.602   4.126
    1HEX    H1T 4275   4.214   8.213   3.907
    1HEX    H1U 4276   4.062   8.134   3.884
    1HEX    H1V 4277   4.035   8.120   4.139
    1HEX    H1W 4278   4.192   8.193   4.158
    1HEX    H1Y 4279   4.300   8.448   4.014
    1HEX    H1Z 4280   4.251   8.484   4.169
    1HEX    H20 4281   4.444   8.765   4.182
    1HEX    H21 4282   4.577   8.662   4.195
    1HEX    H22 4283   4.460   8.421   4.351
    1HEX    H23 4284   4.482   8.486   4.510
    1HEX    H24 4285   4.889   8.417   4.365
    1HEX    H25 4286   4.930   8.434   4.534
    1HEX    H26 4287   4.954   8.684   4.508
    1HEX    H27 4288   4.919   8.669   4.338
    1HEX    H29 4289   4.479   8.852   4.398
    1HEX    H2A 4290   4.621   8.752   4.415
    1HEX    H2B 4291   4.490   8.675   4.806
    1HEX    H2C 4292   4.422   8.837   4.816
    1HEX    H2D 4293   4.654   8.921   4.889
    1HEX    H2E 4294   4.708   8.754   4.892
    1HEX    H2G 4295   4.226   8.596   4.329
    1HEX    H2H 4296   4.259   8.753   4.388
    1HEX    H2I 4297   4.189   8.537   4.765
    1HEX    H2J 4298   4.045   8.448   4.719
    1HEX    H2K 4299   3.933   8.661   4.644
    1HEX    H2M 4300   4.076   8.752   4.688
    1STR    S00 4301   4.818   8.579   3.689
    1STR    S0E 4302   4.152   9.383   4.135
    1STR    S0M 4303   4.208   7.961   4.075
    1STR    S0X 4304   5.143   8.591   4.383
    1STR    S14 4305   4.549   8.800   5.068
    1STR    S1B 4306   3.960   8.675   4.883
    1HEX    C01 4307   4.637   8.568   8.033
    1HEX    C02 4308   4.574   8.569   8.173
    1HEX    C03 4309   4.423   8.570   8.162
    1HEX    O04 4310   4.361   8.471   8.123
    1HEX    O05 4311   4.369   8.688   8.196
    1HEX    C06 4312   4.228   8.703   8.201
    1HEX    C07 4313   4.177   8.698   8.348
    1HEX    C08 4314   4.226   8.826   8.419
    1HEX    O09 4315   4.161   8.947   8.383
    1HEX    C0A 4316   4.099   9.018   8.478
    1HEX    O0B 4317   4.053   8.973   8.582
    1HEX    C0C 4318   4.096   9.168   8.447
    1HEX    C0D 4319   4.106   9.250   8.577
    1HEX    C0F 4320   4.022   8.697   8.349
    1HEX    O0G 4321   3.975   8.575   8.291
    1HEX    C0H 4322   3.926   8.573   8.167
    1HEX    O0I 4323   3.896   8.671   8.099
    1HEX    C0J 4324   3.916   8.432   8.111
    1HEX    C0K 4325   3.798   8.356   8.172
    1HEX    C0N 4326   4.223   8.567   8.422
    1HEX    O0O 4327   4.360   8.549   8.464
    1HEX    C0P 4328   4.427   8.630   8.561
    1HEX    C0Q 4329   4.393   8.621   8.713
    1HEX    C0R 4330   4.427   8.478   8.764
    1HEX    O0S 4331   4.568   8.454   8.760
    1HEX    C0T 4332   4.640   8.445   8.874
    1HEX    O0U 4333   4.595   8.450   8.989
    1HEX    C0V 4334   4.789   8.427   8.848
    1HEX    C0W 4335   4.866   8.560   8.852
    1HEX    C0Y 4336   4.484   8.725   8.783
    1HEX    O0Z 4337   4.465   8.719   8.923
    1HEX    C10 4338   4.543   8.791   9.003
    1HEX    O11 4339   4.632   8.867   8.966
    1HEX    C12 4340   4.508   8.769   9.149
    1HEX    C13 4341   4.621   8.812   9.243
    1HEX    C15 4342   4.246   8.659   8.747
    1HEX    O16 4343   4.208   8.639   8.883
    1HEX    C17 4344   4.134   8.533   8.918
    1HEX    O18 4345   4.102   8.440   8.845
    1HEX    C19 4346   4.089   8.542   9.063
    1HEX    C1A 4347   4.006   8.669   9.085
    1HEX    H1D 4348   4.608   8.478   7.979
    1HEX    H1E 4349   4.604   8.654   7.975
    1HEX    H1F 4350   4.606   8.657   8.230
    1HEX    H1G 4351   4.603   8.481   8.230
    1HEX    H1H 4352   4.179   8.628   8.139
    1HEX    H1I 4353   4.201   8.798   8.156
    1HEX    H1J 4354   4.330   8.844   8.392
    1HEX    H1K 4355   4.223   8.812   8.526
    1HEX    H1M 4356   4.007   9.193   8.390
    1HEX    H1N 4357   4.182   9.189   8.384
    1HEX    H1O 4358   4.183   9.209   8.643
    1HEX    H1P 4359   4.012   9.247   8.632
    1HEX    H1R 4360   3.981   8.785   8.298
    1HEX    H1S 4361   3.984   8.704   8.451
    1HEX    H1T 4362   4.010   8.381   8.130
    1HEX    H1U 4363   3.905   8.439   8.002
    1HEX    H1V 4364   3.704   8.407   8.151
    1HEX    H1W 4365   3.808   8.350   8.280
    1HEX    H1Y 4366   4.208   8.486   8.350
    1HEX    H1Z 4367   4.154   8.538   8.500
    1HEX    H20 4368   4.436   8.733   8.530
    1HEX    H21 4369   4.530   8.596   8.552
    1HEX    H22 4370   4.376   8.403   8.704
    1HEX    H23 4371   4.390   8.464   8.866
    1HEX    H24 4372   4.800   8.380   8.751
    1HEX    H25 4373   4.829   8.357   8.922
    1HEX    H26 4374   4.812   8.639   8.799
    1HEX    H27 4375   4.963   8.549   8.803
    1HEX    H29 4376   4.462   8.826   8.750
    1HEX    H2A 4377   4.589   8.707   8.761
    1HEX    H2B 4378   4.486   8.663   9.163
    1HEX    H2C 4379   4.417   8.825   9.169
    1HEX    H2D 4380   4.653   8.914   9.221
    1HEX    H2E 4381   4.708   8.747   9.230
    1HEX    H2G 4382   4.173   8.609   8.685
    1HEX    H2H 4383   4.230   8.766   8.730
    1HEX    H2I 4384   4.177   8.540   9.127
    1HEX    H2J 4385   4.030   8.453   9.086
    1HEX    H2K 4386   3.920   8.671   9.018
    1HEX    H2M 4387   4.066   8.758   9.064
    1STR    S00 4388   4.818   8.572   8.051
    1STR    S0E 4389   4.150   9.421   8.536
    1STR    S0M 4390   3.794   8.189   8.102
    1STR    S0X 4391   4.895   8.614   9.023
    1STR    S14 4392   4.560   8.803   9.414
    1STR    S1B 4393   3.949   8.675   9.257
    1HEX    C01 4394   4.627   8.574  12.396
    1HEX    C02 4395   4.561   8.584  12.534
    1HEX    C03 4396   4.410   8.593  12.521
    1HEX    O04 4397   4.344   8.500  12.475
    1HEX    O05 4398   4.360   8.710  12.567
    1HEX    C06 4399   4.219   8.728  12.581
    1HEX    C07 4400   4.171   8.708  12.728
    1HEX    C08 4401   4.191   8.841  12.813
    1HEX    O09 4402   4.149   8.977  12.781
    1HEX    C0A 4403   4.159   9.073  12.885
    1HEX    O0B 4404   4.168   9.041  13.003
    1HEX    C0C 4405   4.164   9.225  12.848
    1HEX    C0D 4406   4.195   9.319  12.973
    1HEX    C0F 4407   4.022   8.658  12.725
    1HEX    O0G 4408   4.015   8.513  12.711
    1HEX    C0H 4409   3.996   8.453  12.591
    1HEX    O0I 4410   3.944   8.509  12.495
    1HEX    C0J 4411   4.050   8.309  12.578
    1HEX    C0K 4412   4.063   8.221  12.705
    1HEX    C0N 4413   4.248   8.586  12.794
    1HEX    O0O 4414   4.388   8.588  12.823
    1HEX    C0P 4415   4.445   8.662  12.931
    1HEX    C0Q 4416   4.404   8.637  13.079
    1HEX    C0R 4417   4.433   8.490  13.119
    1HEX    O0S 4418   4.573   8.463  13.116
    1HEX    C0T 4419   4.642   8.446  13.232
    1HEX    O0U 4420   4.594   8.446  13.345
    1HEX    C0V 4421   4.791   8.427  13.208
    1HEX    C0W 4422   4.870   8.559  13.213
    1HEX    C0Y 4423   4.495   8.733  13.158
    1HEX    O0Z 4424   4.474   8.721  13.297
    1HEX    C10 4425   4.548   8.794  13.378
    1HEX    O11 4426   4.636   8.873  13.344
    1HEX    C12 4427   4.510   8.771  13.523
    1HEX    C13 4428   4.622   8.813  13.618
    1HEX    C15 4429   4.257   8.678  13.113
    1HEX    O16 4430   4.217   8.649  13.247
    1HEX    C17 4431   4.138   8.544  13.274
    1HEX    O18 4432   4.103   8.458  13.194
    1HEX    C19 4433   4.091   8.544  13.419
    1HEX    C1A 4434   4.007   8.670  13.445
    1HEX    H1D 4435   4.595   8.482  12.345
    1HEX    H1E 4436   4.597   8.658  12.333
    1HEX    H1F 4437   4.597   8.670  12.589
    1HEX    H1G 4438   4.584   8.496  12.594
    1HEX    H1H 4439   4.167   8.660  12.513
    1HEX    H1I 4440   4.193   8.827  12.546
    1HEX    H1J 4441   4.298   8.857  12.818
    1HEX    H1K 4442   4.155   8.818  12.912
    1HEX    H1M 4443   4.070   9.252  12.801
    1HEX    H1N 4444   4.242   9.237  12.773
    1HEX    H1O 4445   4.292   9.293  13.015
    1HEX    H1P 4446   4.124   9.297  13.052
    1HEX    H1R 4447   3.963   8.709  12.648
    1HEX    H1S 4448   3.973   8.682  12.819
    1HEX    H1T 4449   4.149   8.319  12.533
    1HEX    H1U 4450   3.989   8.258  12.503
    1HEX    H1V 4451   3.965   8.206  12.751
    1HEX    H1W 4452   4.126   8.269  12.780
    1HEX    H1Y 4453   4.247   8.505  12.721
    1HEX    H1Z 4454   4.193   8.539  12.875
    1HEX    H20 4455   4.450   8.767  12.908
    1HEX    H21 4456   4.550   8.632  12.923
    1HEX    H22 4457   4.382   8.421  13.051
    1HEX    H23 4458   4.392   8.468  13.217
    1HEX    H24 4459   4.803   8.379  13.111
    1HEX    H25 4460   4.829   8.357  13.282
    1HEX    H26 4461   4.817   8.637  13.158
    1HEX    H27 4462   4.967   8.547  13.165
    1HEX    H29 4463   4.476   8.837  13.130
    1HEX    H2A 4464   4.600   8.715  13.136
    1HEX    H2B 4465   4.488   8.665  13.535
    1HEX    H2C 4466   4.419   8.826  13.542
    1HEX    H2D 4467   4.654   8.915  13.598
    1HEX    H2E 4468   4.710   8.749  13.605
    1HEX    H2G 4469   4.182   8.636  13.047
    1HEX    H2H 4470   4.247   8.786  13.103
    1HEX    H2I 4471   4.178   8.541  13.484
    1HEX    H2J 4472   4.033   8.454  13.437
    1HEX    H2K 4473   3.921   8.673  13.378
    1HEX    H2M 4474   4.066   8.760  13.427
    1STR    S00 4475   4.807   8.574  12.417
    1STR    S0E 4476   4.190   9.506  12.952
    1STR    S0M 4477   4.132   8.054  12.664
    1STR    S0X 4478   4.896   8.614  13.384
    1STR    S14 4479   4.560   8.801  13.788
    1STR    S1B 4480   3.949   8.668  13.617
    1HEX    C01 4481   4.630  12.932  16.758
    1HEX    C02 4482   4.567  12.941  16.898
    1HEX    C03 4483   4.416  12.956  16.887
    1HEX    O04 4484   4.346  12.865  16.843
    1HEX    O05 4485   4.372  13.077  16.929
    1HEX    C06 4486   4.233  13.105  16.932
    1HEX    C07 4487   4.175  13.097  17.075
    1HEX    C08 4488   4.219  13.221  17.159
    1HEX    O09 4489   4.173  13.355  17.131
    1HEX    C0A 4490   4.168  13.445  17.236
    1HEX    O0B 4491   4.150  13.411  17.353
    1HEX    C0C 4492   4.189  13.595  17.199
    1HEX    C0D 4493   4.166  13.699  17.315
    1HEX    C0F 4494   4.019  13.093  17.066
    1HEX    O0G 4495   3.977  12.966  17.013
    1HEX    C0H 4496   3.929  12.954  16.888
    1HEX    O0I 4497   3.896  13.047  16.815
    1HEX    C0J 4498   3.925  12.810  16.839
    1HEX    C0K 4499   3.806  12.733  16.897
    1HEX    C0N 4500   4.215  12.960  17.144
    1HEX    O0O 4501   4.350  12.930  17.184
    1HEX    C0P 4502   4.424  13.002  17.283
    1HEX    C0Q 4503   4.393  12.987  17.435
    1HEX    C0R 4504   4.428  12.843   0.042
    1HEX    O0S 4505   4.569  12.819   0.037
    1HEX    C0T 4506   4.640  12.807   0.152
    1HEX    O0U 4507   4.594  12.809   0.266
    1HEX    C0V 4508   4.789  12.788   0.127
    1HEX    C0W 4509   4.867  12.921   0.132
    1HEX    C0Y 4510   4.485  13.089   0.066
    1HEX    O0Z 4511   4.468  13.081   0.206
    1HEX    C10 4512   4.546  13.152   0.286
    1HEX    O11 4513   4.635  13.229   0.249
    1HEX    C12 4514   4.510  13.130   0.431
    1HEX    C13 4515   4.622  13.173   0.526
    1HEX    C15 4516   4.247  13.025   0.032
    1HEX    O16 4517   4.211  13.002   0.167
    1HEX    C17 4518   4.136  12.896   0.201
    1HEX    O18 4519   4.102  12.804   0.126
    1HEX    C19 4520   4.089  12.903   0.345
    1HEX    C1A 4521   4.006  13.030   0.367
    1HEX    H1D 4522   4.596  12.842  16.706
    1HEX    H1E 4523   4.600  13.017  16.697
    1HEX    H1F 4524   4.607  13.025  16.953
    1HEX    H1G 4525   4.588  12.851  16.956
    1HEX    H1H 4526   4.180  13.038  16.864
    1HEX    H1I 4527   4.217  13.205  16.890
    1HEX    H1J 4528   4.326  13.232  17.147
    1HEX    H1K 4529   4.199  13.197  17.262
    1HEX    H1M 4530   4.121  13.618  17.117
    1HEX    H1N 4531   4.290  13.605  17.159
    1HEX    H1O 4532   4.144  13.644  17.407
    1HEX    H1P 4533   4.077  13.759  17.297
    1HEX    H1R 4534   3.980  13.177  17.008
    1HEX    H1S 4535   3.975  13.102  17.165
    1HEX    H1T 4536   4.019  12.761  16.864
    1HEX    H1U 4537   3.919  12.811  16.730
    1HEX    H1V 4538   3.712  12.783  16.873
    1HEX    H1W 4539   3.813  12.726  17.005
    1HEX    H1Y 4540   4.198  12.882  17.069
    1HEX    H1Z 4541   4.143  12.931  17.219
    1HEX    H20 4542   4.437  13.106  17.256
    1HEX    H21 4543   4.525  12.964  17.269
    1HEX    H22 4544   4.377  12.770  17.419
    1HEX    H23 4545   4.390  12.826   0.142
    1HEX    H24 4546   4.800  12.742   0.029
    1HEX    H25 4547   4.828  12.718   0.200
    1HEX    H26 4548   4.813  13.000   0.079
    1HEX    H27 4549   4.963  12.910   0.083
    1HEX    H29 4550   4.464  13.192   0.035
    1HEX    H2A 4551   4.590  13.071   0.042
    1HEX    H2B 4552   4.487  13.024   0.445
    1HEX    H2C 4553   4.418  13.186   0.451
    1HEX    H2D 4554   4.654  13.275   0.505
    1HEX    H2E 4555   4.709  13.108   0.514
    1HEX    H2G 4556   4.175  12.975  17.410
    1HEX    H2H 4557   4.231  13.132   0.018
    1HEX    H2I 4558   4.176  12.901   0.410
    1HEX    H2J 4559   4.030  12.813   0.367
    1HEX    H2K 4560   3.921  13.032   0.299
    1HEX    H2M 4561   4.066  13.119   0.347
    1STR    S00 4562   4.810  12.930  16.775
    1STR    S0E 4563   4.303  13.813  17.367
    1STR    S0M 4564   3.804  12.566  16.826
    1STR    S0X 4565   4.895  12.974   0.303
    1STR    S14 4566   4.560  13.164   0.697
    1STR    S1B 4567   3.947  13.034   0.539
    1HEX    C01 4568   4.637  12.928   3.673
    1HEX    C02 4569   4.574  12.930   3.813
    1HEX    C03 4570   4.423  12.930   3.802
    1HEX    O04 4571   4.361  12.831   3.763
    1HEX    O05 4572   4.369  13.048   3.836
    1HEX    C06 4573   4.228  13.063   3.841
    1HEX    C07 4574   4.177  13.058   3.988
    1HEX    C08 4575   4.226  13.186   4.059
    1HEX    O09 4576   4.161  13.307   4.022
    1HEX    C0A 4577   4.099  13.378   4.117
    1HEX    O0B 4578   4.053  13.333   4.222
    1HEX    C0C 4579   4.096  13.528   4.087
    1HEX    C0D 4580   4.106  13.610   4.217
    1HEX    C0F 4581   4.022  13.057   3.989
    1HEX    O0G 4582   3.975  12.936   3.931
    1HEX    C0H 4583   3.926  12.934   3.806
    1HEX    O0I 4584   3.896  13.032   3.739
    1HEX    C0J 4585   3.916  12.793   3.751
    1HEX    C0K 4586   3.798  12.716   3.812
    1HEX    C0N 4587   4.223  12.927   4.062
    1HEX    O0O 4588   4.360  12.909   4.104
    1HEX    C0P 4589   4.427  12.990   4.201
    1HEX    C0Q 4590   4.393  12.981   4.353
    1HEX    C0R 4591   4.427  12.838   4.404
    1HEX    O0S 4592   4.568  12.815   4.400
    1HEX    C0T 4593   4.640  12.806   4.514
    1HEX    O0U 4594   4.595  12.810   4.629
    1HEX    C0V 4595   4.789  12.788   4.488
    1HEX    C0W 4596   4.867  12.921   4.492
    1HEX    C0Y 4597   4.483  13.085   4.423
    1HEX    O0Z 4598   4.465  13.079   4.563
    1HEX    C10 4599   4.543  13.151   4.643
    1HEX    O11 4600   4.632  13.227   4.605
    1HEX    C12 4601   4.508  13.130   4.789
    1HEX    C13 4602   4.621  13.173   4.883
    1HEX    C15 4603   4.245  13.019   4.387
    1HEX    O16 4604   4.208  12.999   4.523
    1HEX    C17 4605   4.134  12.893   4.559
    1HEX    O18 4606   4.102  12.800   4.486
    1HEX    C19 4607   4.089  12.902   4.703
    1HEX    C1A 4608   4.006  13.029   4.725
    1HEX    H1D 4609   4.608  12.838   3.619
    1HEX    H1E 4610   4.604  13.014   3.615
    1HEX    H1F 4611   4.606  13.017   3.869
    1HEX    H1G 4612   4.603  12.841   3.870
    1HEX    H1H 4613   4.179  12.988   3.779
    1HEX    H1I 4614   4.201  13.158   3.796
    1HEX    H1J 4615   4.330  13.204   4.032
    1HEX    H1K 4616   4.223  13.172   4.166
    1HEX    H1M 4617   4.007  13.553   4.030
    1HEX    H1N 4618   4.182  13.549   4.024
    1HEX    H1O 4619   4.183  13.569   4.283
    1HEX    H1P 4620   4.012  13.607   4.272
    1HEX    H1R 4621   3.981  13.145   3.938
    1HEX    H1S 4622   3.984  13.064   4.091
    1HEX    H1T 4623   4.010  12.741   3.770
    1HEX    H1U 4624   3.905  12.799   3.642
    1HEX    H1V 4625   3.704  12.767   3.790
    1HEX    H1W 4626   3.808  12.710   3.920
    1HEX    H1Y 4627   4.208  12.846   3.990
    1HEX    H1Z 4628   4.154  12.898   4.140
    1HEX    H20 4629   4.436  13.093   4.170
    1HEX    H21 4630   4.530  12.956   4.192
    1HEX    H22 4631   4.376  12.763   4.344
    1HEX    H23 4632   4.390  12.824   4.506
    1HEX    H24 4633   4.800  12.740   4.391
    1HEX    H25 4634   4.829  12.718   4.562
    1HEX    H26 4635   4.812  12.999   4.439
    1HEX    H27 4636   4.963  12.910   4.443
    1HEX    H29 4637   4.462  13.186   4.390
    1HEX    H2A 4638   4.589  13.067   4.401
    1HEX    H2B 4639   4.486  13.024   4.803
    1HEX    H2C 4640   4.417  13.185   4.809
    1HEX    H2D 4641   4.653  13.274   4.861
    1HEX    H2E 4642   4.708  13.108   4.870
    1HEX    H2G 4643   4.173  12.969   4.325
    1HEX    H2H 4644   4.230  13.126   4.370
    1HEX    H2I 4645   4.176  12.900   4.767
    1HEX    H2J 4646   4.030  12.813   4.726
    1HEX    H2K 4647   3.921  13.032   4.658
    1HEX    H2M 4648   4.066  13.118   4.704
    1STR    S00 4649   4.818  12.932   3.691
    1STR    S0E 4650   4.150  13.781   4.176
    1STR    S0M 4651   3.794  12.549   3.741
    1STR    S0X 4652   4.895  12.975   4.663
    1STR    S14 4653   4.559  13.164   5.053
    1STR    S1B 4654   3.949  13.035   4.897
    1HEX    C01 4655   4.637  12.928   8.033
    1HEX    C02 4656   4.574  12.930   8.173
    1HEX    C03 4657   4.423  12.930   8.162
    1HEX    O04 4658   4.361  12.831   8.123
    1HEX    O05 4659   4.369  13.048   8.196
    1HEX    C06 4660   4.228  13.063   8.201
    1HEX    C07 4661   4.177  13.058   8.348
    1HEX    C08 4662   4.226  13.186   8.419
    1HEX    O09 4663   4.161  13.307   8.382
    1HEX    C0A 4664   4.099  13.378   8.477
    1HEX    O0B 4665   4.053  13.333   8.582
    1HEX    C0C 4666   4.096  13.528   8.447
    1HEX    C0D 4667   4.106  13.610   8.577
    1HEX    C0F 4668   4.022  13.057   8.349
    1HEX    O0G 4669   3.975  12.936   8.291
    1HEX    C0H 4670   3.926  12.933   8.166
    1HEX    O0I 4671   3.896  13.032   8.099
    1HEX    C0J 4672   3.916  12.792   8.111
    1HEX    C0K 4673   3.798  12.716   8.172
    1HEX    C0N 4674   4.223  12.927   8.422
    1HEX    O0O 4675   4.360  12.909   8.464
    1HEX    C0P 4676   4.427  12.990   8.561
    1HEX    C0Q 4677   4.393  12.981   8.713
    1HEX    C0R 4678   4.427  12.838   8.764
    1HEX    O0S 4679   4.568  12.815   8.760
    1HEX    C0T 4680   4.640  12.806   8.874
    1HEX    O0U 4681   4.595  12.810   8.989
    1HEX    C0V 4682   4.789  12.788   8.848
    1HEX    C0W 4683   4.866  12.921   8.852
    1HEX    C0Y 4684   4.483  13.085   8.783
    1HEX    O0Z 4685   4.465  13.079   8.923
    1HEX    C10 4686   4.543  13.151   9.003
    1HEX    O11 4687   4.632  13.227   8.965
    1HEX    C12 4688   4.508  13.130   9.149
    1HEX    C13 4689   4.621  13.173   9.243
    1HEX    C15 4690   4.245  13.019   8.747
    1HEX    O16 4691   4.208  12.999   8.883
    1HEX    C17 4692   4.134  12.893   8.919
    1HEX    O18 4693   4.102  12.800   8.846
    1HEX    C19 4694   4.089  12.902   9.063
    1HEX    C1A 4695   4.006  13.029   9.085
    1HEX    H1D 4696   4.608  12.838   7.979
    1HEX    H1E 4697   4.604  13.014   7.975
    1HEX    H1F 4698   4.606  13.017   8.229
    1HEX    H1G 4699   4.603  12.842   8.230
    1HEX    H1H 4700   4.179  12.988   8.139
    1HEX    H1I 4701   4.201  13.158   8.156
    1HEX    H1J 4702   4.330  13.204   8.392
    1HEX    H1K 4703   4.223  13.172   8.526
    1HEX    H1M 4704   4.007  13.553   8.390
    1HEX    H1N 4705   4.183  13.549   8.384
    1HEX    H1O 4706   4.183  13.569   8.643
    1HEX    H1P 4707   4.012  13.607   8.632
    1HEX    H1R 4708   3.981  13.145   8.298
    1HEX    H1S 4709   3.984  13.064   8.451
    1HEX    H1T 4710   4.010  12.741   8.130
    1HEX    H1U 4711   3.905  12.799   8.002
    1HEX    H1V 4712   3.704  12.767   8.151
    1HEX    H1W 4713   3.808  12.710   8.280
    1HEX    H1Y 4714   4.208  12.846   8.350
    1HEX    H1Z 4715   4.154  12.898   8.500
    1HEX    H20 4716   4.436  13.093   8.530
    1HEX    H21 4717   4.530  12.956   8.552
    1HEX    H22 4718   4.376  12.763   8.704
    1HEX    H23 4719   4.390  12.824   8.866
    1HEX    H24 4720   4.800  12.740   8.751
    1HEX    H25 4721   4.829  12.718   8.922
    1HEX    H26 4722   4.812  12.999   8.799
    1HEX    H27 4723   4.963  12.910   8.803
    1HEX    H29 4724   4.462  13.186   8.750
    1HEX    H2A 4725   4.589  13.067   8.761
    1HEX    H2B 4726   4.486  13.024   9.163
    1HEX    H2C 4727   4.417  13.185   9.169
    1HEX    H2D 4728   4.653  13.274   9.221
    1HEX    H2E 4729   4.708  13.108   9.231
    1HEX    H2G 4730   4.173  12.969   8.685
    1HEX    H2H 4731   4.230  13.126   8.730
    1HEX    H2I 4732   4.176  12.900   9.127
    1HEX    H2J 4733   4.030  12.813   9.086
    1HEX    H2K 4734   3.921  13.032   9.018
    1HEX    H2M 4735   4.066  13.118   9.064
    1STR    S00 4736   4.818  12.933   8.051
    1STR    S0E 4737   4.149  13.781   8.536
    1STR    S0M 4738   3.794  12.549   8.101
    1STR    S0X 4739   4.895  12.975   9.023
    1STR    S14 4740   4.559  13.164   9.413
    1STR    S1B 4741   3.949  13.035   9.257
    1HEX    C01 4742   4.627  12.931  12.391
    1HEX    C02 4743   4.559  12.934  12.528
    1HEX    C03 4744   4.409  12.910  12.516
    1HEX    O04 4745   4.365  12.800  12.482
    1HEX    O05 4746   4.336  13.017  12.551
    1HEX    C06 4747   4.197  13.002  12.578
    1HEX    C07 4748   4.174  13.000  12.731
    1HEX    C08 4749   4.203  13.145  12.781
    1HEX    O09 4750   4.117  13.254  12.746
    1HEX    C0A 4751   4.086  13.343  12.844
    1HEX    O0B 4752   4.064  13.313  12.961
    1HEX    C0C 4753   4.092  13.490  12.800
    1HEX    C0D 4754   4.104  13.585  12.921
    1HEX    C0F 4755   4.028  12.951  12.763
    1HEX    O0G 4756   4.026  12.809  12.794
    1HEX    C0H 4757   4.005  12.715  12.699
    1HEX    O0I 4758   3.949  12.738  12.592
    1HEX    C0J 4759   4.070  12.577  12.726
    1HEX    C0K 4760   4.027  12.494  12.852
    1HEX    C0N 4761   4.269  12.898  12.803
    1HEX    O0O 4762   4.405  12.931  12.828
    1HEX    C0P 4763   4.443  13.016  12.936
    1HEX    C0Q 4764   4.392  12.995  13.084
    1HEX    C0R 4765   4.419  12.850  13.131
    1HEX    O0S 4766   4.559  12.821  13.126
    1HEX    C0T 4767   4.631  12.808  13.239
    1HEX    O0U 4768   4.587  12.811  13.354
    1HEX    C0V 4769   4.779  12.787  13.211
    1HEX    C0W 4770   4.860  12.918  13.213
    1HEX    C0Y 4771   4.478  13.094  13.164
    1HEX    O0Z 4772   4.454  13.086  13.302
    1HEX    C10 4773   4.535  13.154  13.383
    1HEX    O11 4774   4.625  13.230  13.347
    1HEX    C12 4775   4.503  13.129  13.529
    1HEX    C13 4776   4.618  13.171  13.621
    1HEX    C15 4777   4.243  13.036  13.106
    1HEX    O16 4778   4.182  13.008  13.231
    1HEX    C17 4779   4.076  12.925  13.235
    1HEX    O18 4780   4.057  12.829  13.160
    1HEX    C19 4781   3.972  12.967  13.339
    1HEX    C1A 4782   3.862  13.060  13.280
    1HEX    H1D 4783   4.602  12.840  12.338
    1HEX    H1E 4784   4.593  13.015  12.330
    1HEX    H1F 4785   4.577  13.028  12.580
    1HEX    H1G 4786   4.598  12.854  12.592
    1HEX    H1H 4787   4.155  12.913  12.530
    1HEX    H1I 4788   4.145  13.087  12.533
    1HEX    H1J 4789   4.301  13.175  12.743
    1HEX    H1K 4790   4.214  13.145  12.887
    1HEX    H1M 4791   4.005  13.515  12.739
    1HEX    H1N 4792   4.180  13.501  12.737
    1HEX    H1O 4793   4.180  13.550  12.992
    1HEX    H1P 4794   4.010  13.590  12.976
    1HEX    H1R 4795   3.958  12.976  12.683
    1HEX    H1S 4796   3.989  13.003  12.851
    1HEX    H1T 4797   4.177  12.595  12.729
    1HEX    H1U 4798   4.053  12.517  12.637
    1HEX    H1V 4799   3.951  12.421  12.822
    1HEX    H1W 4800   3.980  12.557  12.927
    1HEX    H1Y 4801   4.274  12.810  12.738
    1HEX    H1Z 4802   4.228  12.855  12.894
    1HEX    H20 4803   4.433  13.120  12.907
    1HEX    H21 4804   4.551  13.001  12.937
    1HEX    H22 4805   4.366  12.778  13.068
    1HEX    H23 4806   4.379  12.836  13.231
    1HEX    H24 4807   4.788  12.739  13.113
    1HEX    H25 4808   4.819  12.716  13.284
    1HEX    H26 4809   4.806  12.997  13.159
    1HEX    H27 4810   4.956  12.905  13.163
    1HEX    H29 4811   4.461  13.197  13.132
    1HEX    H2A 4812   4.585  13.076  13.147
    1HEX    H2B 4813   4.482  13.022  13.541
    1HEX    H2C 4814   4.412  13.183  13.552
    1HEX    H2D 4815   4.650  13.273  13.598
    1HEX    H2E 4816   4.705  13.107  13.605
    1HEX    H2G 4817   4.177  12.997  13.029
    1HEX    H2H 4818   4.234  13.144  13.097
    1HEX    H2I 4819   4.025  13.017  13.421
    1HEX    H2J 4820   3.929  12.877  13.382
    1HEX    H2K 4821   3.889  13.096  13.180
    1HEX    H2M 4822   3.849  13.148  13.342
    1STR    S00 4823   4.806  12.941  12.415
    1STR    S0E 4824   4.151  13.751  12.864
    1STR    S0M 4825   4.169  12.399  12.925
    1STR    S0X 4826   4.890  12.973  13.383
    1STR    S14 4827   4.561  13.162  13.793
    1STR    S1B 4828   3.702  12.973  13.271
    1HEX    C01 4829   8.959  17.259  16.764
    1HEX    C02 4830   8.900  17.249  16.906
    1HEX    C03 4831   8.750  17.263  16.909
    1HEX    O04 4832   8.677  17.165  16.894
    1HEX    O05 4833   8.712  17.389  16.933
    1HEX    C06 4834   8.573  17.418  16.935
    1HEX    C07 4835   8.519  17.418  17.080
    1HEX    C08 4836   8.570   0.105  17.150
    1HEX    O09 4837   8.508   0.227  17.111
    1HEX    C0A 4838   8.449   0.303  17.205
    1HEX    O0B 4839   8.403   0.262  17.312
    1HEX    C0C 4840   8.452   0.451  17.171
    1HEX    C0D 4841   8.466   0.536  17.298
    1HEX    C0F 4842   8.364  17.421  17.075
    1HEX    O0G 4843   8.317  17.299  17.018
    1HEX    C0H 4844   8.272  17.296  16.891
    1HEX    O0I 4845   8.238  17.393  16.825
    1HEX    C0J 4846   8.271  17.155  16.834
    1HEX    C0K 4847   8.156  17.073  16.891
    1HEX    C0N 4848   8.559  17.288  17.160
    1HEX    O0O 4849   8.695  17.262  17.200
    1HEX    C0P 4850   8.773  17.345  17.288
    1HEX    C0Q 4851   8.748  17.341   0.002
    1HEX    C0R 4852   8.783  17.200   0.054
    1HEX    O0S 4853   8.924  17.175   0.046
    1HEX    C0T 4854   8.999  17.167   0.159
    1HEX    O0U 4855   8.957  17.173   0.274
    1HEX    C0V 4856   9.147  17.148   0.129
    1HEX    C0W 4857   9.226  17.280   0.133
    1HEX    C0Y 4858   8.843   0.006   0.065
    1HEX    O0Z 4859   8.826   0.003   0.205
    1HEX    C10 4860   8.908   0.071   0.283
    1HEX    O11 4861   9.000   0.143   0.245
    1HEX    C12 4862   8.872   0.052   0.430
    1HEX    C13 4863   8.985   0.094   0.524
    1HEX    C15 4864   8.603  17.384   0.040
    1HEX    O16 4865   8.567  17.361   0.176
    1HEX    C17 4866   8.493  17.255   0.209
    1HEX    O18 4867   8.461  17.162   0.135
    1HEX    C19 4868   8.445  17.262   0.353
    1HEX    C1A 4869   8.361  17.389   0.374
    1HEX    H1D 4870   9.050  17.200  16.760
    1HEX    H1E 4871   8.983  17.363  16.746
    1HEX    H1F 4872   8.941  17.328  16.969
    1HEX    H1G 4873   8.925  17.155  16.954
    1HEX    H1H 4874   8.521  17.348  16.870
    1HEX    H1I 4875   8.557   0.075  16.888
    1HEX    H1J 4876   8.674   0.121  17.123
    1HEX    H1K 4877   8.566   0.093  17.257
    1HEX    H1M 4878   8.364   0.478  17.113
    1HEX    H1N 4879   8.539   0.467  17.106
    1HEX    H1O 4880   8.541   0.494  17.365
    1HEX    H1P 4881   8.372   0.537  17.354
    1HEX    H1R 4882   8.328   0.068  17.020
    1HEX    H1S 4883   8.322  17.430  17.175
    1HEX    H1T 4884   8.368  17.108  16.855
    1HEX    H1U 4885   8.264  17.162  16.725
    1HEX    H1V 4886   8.060  17.121  16.869
    1HEX    H1W 4887   8.165  17.065  17.000
    1HEX    H1Y 4888   8.537  17.204  17.094
    1HEX    H1Z 4889   8.488  17.266  17.239
    1HEX    H20 4890   8.782   0.007  17.252
    1HEX    H21 4891   8.874  17.308  17.273
    1HEX    H22 4892   8.729  17.124  17.437
    1HEX    H23 4893   8.748  17.188   0.157
    1HEX    H24 4894   9.155  17.101   0.031
    1HEX    H25 4895   9.188  17.077   0.201
    1HEX    H26 4896   9.171  17.360   0.083
    1HEX    H27 4897   9.321  17.269   0.081
    1HEX    H29 4898   8.823   0.107   0.029
    1HEX    H2A 4899   8.947  17.425   0.040
    1HEX    H2B 4900   8.849  17.386   0.444
    1HEX    H2C 4901   8.781   0.108   0.449
    1HEX    H2D 4902   9.017   0.196   0.502
    1HEX    H2E 4903   9.071   0.029   0.512
    1HEX    H2G 4904   8.528  17.337  17.419
    1HEX    H2H 4905   8.590   0.051   0.025
    1HEX    H2I 4906   8.532  17.261   0.419
    1HEX    H2J 4907   8.386  17.173   0.375
    1HEX    H2K 4908   8.276  17.390   0.305
    1HEX    H2M 4909   8.420   0.038   0.353
    1STR    S00 4910   8.861  17.205  16.620
    1STR    S0E 4911   8.514   0.705  17.253
    1STR    S0M 4912   8.159  16.907  16.818
    1STR    S0X 4913   9.260  17.331   0.304
    1STR    S14 4914   8.922   0.086   0.694
    1STR    S1B 4915   8.302  17.395   0.545
    1HEX    C01 4916   8.997  17.288   3.673
    1HEX    C02 4917   8.934  17.289   3.813
    1HEX    C03 4918   8.783  17.290   3.802
    1HEX    O04 4919   8.721  17.190   3.763
    1HEX    O05 4920   8.729  17.408   3.836
    1HEX    C06 4921   8.588  17.423   3.841
    1HEX    C07 4922   8.537  17.418   3.988
    1HEX    C08 4923   8.586   0.106   4.059
    1HEX    O09 4924   8.521   0.227   4.022
    1HEX    C0A 4925   8.459   0.298   4.117
    1HEX    O0B 4926   8.413   0.252   4.222
    1HEX    C0C 4927   8.456   0.447   4.087
    1HEX    C0D 4928   8.466   0.530   4.217
    1HEX    C0F 4929   8.382  17.417   3.989
    1HEX    O0G 4930   8.335  17.295   3.931
    1HEX    C0H 4931   8.286  17.293   3.807
    1HEX    O0I 4932   8.256  17.391   3.739
    1HEX    C0J 4933   8.276  17.152   3.751
    1HEX    C0K 4934   8.158  17.076   3.812
    1HEX    C0N 4935   8.583  17.287   4.062
    1HEX    O0O 4936   8.720  17.268   4.104
    1HEX    C0P 4937   8.787  17.350   4.201
    1HEX    C0Q 4938   8.753  17.340   4.353
    1HEX    C0R 4939   8.787  17.198   4.404
    1HEX    O0S 4940   8.928  17.174   4.400
    1HEX    C0T 4941   9.000  17.165   4.514
    1HEX    O0U 4942   8.955  17.170   4.629
    1HEX    C0V 4943   9.149  17.147   4.488
    1HEX    C0W 4944   9.226  17.280   4.492
    1HEX    C0Y 4945   8.843   0.004   4.423
    1HEX    O0Z 4946   8.825  17.439   4.563
    1HEX    C10 4947   8.903   0.070   4.643
    1HEX    O11 4948   8.992   0.147   4.605
    1HEX    C12 4949   8.868   0.049   4.789
    1HEX    C13 4950   8.981   0.092   4.883
    1HEX    C15 4951   8.605  17.379   4.387
    1HEX    O16 4952   8.568  17.359   4.523
    1HEX    C17 4953   8.494  17.253   4.559
    1HEX    O18 4954   8.462  17.159   4.486
    1HEX    C19 4955   8.448  17.261   4.703
    1HEX    C1A 4956   8.366  17.389   4.725
    1HEX    H1D 4957   8.968  17.198   3.619
    1HEX    H1E 4958   8.964  17.374   3.615
    1HEX    H1F 4959   8.966  17.377   3.869
    1HEX    H1G 4960   8.963  17.201   3.870
    1HEX    H1H 4961   8.539  17.347   3.779
    1HEX    H1I 4962   8.561   0.078   3.796
    1HEX    H1J 4963   8.690   0.124   4.032
    1HEX    H1K 4964   8.583   0.092   4.166
    1HEX    H1M 4965   8.367   0.473   4.030
    1HEX    H1N 4966   8.542   0.468   4.024
    1HEX    H1O 4967   8.543   0.489   4.283
    1HEX    H1P 4968   8.372   0.527   4.272
    1HEX    H1R 4969   8.341   0.065   3.938
    1HEX    H1S 4970   8.344  17.423   4.091
    1HEX    H1T 4971   8.370  17.100   3.770
    1HEX    H1U 4972   8.265  17.158   3.642
    1HEX    H1V 4973   8.064  17.127   3.790
    1HEX    H1W 4974   8.168  17.069   3.920
    1HEX    H1Y 4975   8.568  17.205   3.990
    1HEX    H1Z 4976   8.514  17.258   4.140
    1HEX    H20 4977   8.795   0.013   4.170
    1HEX    H21 4978   8.890  17.316   4.192
    1HEX    H22 4979   8.736  17.122   4.344
    1HEX    H23 4980   8.750  17.184   4.506
    1HEX    H24 4981   9.160  17.100   4.391
    1HEX    H25 4982   9.189  17.077   4.562
    1HEX    H26 4983   9.172  17.358   4.439
    1HEX    H27 4984   9.323  17.269   4.443
    1HEX    H29 4985   8.822   0.106   4.390
    1HEX    H2A 4986   8.948  17.427   4.400
    1HEX    H2B 4987   8.846  17.383   4.803
    1HEX    H2C 4988   8.777   0.104   4.809
    1HEX    H2D 4989   9.013   0.194   4.861
    1HEX    H2E 4990   9.068   0.028   4.871
    1HEX    H2G 4991   8.533  17.328   4.325
    1HEX    H2H 4992   8.590   0.045   4.370
    1HEX    H2I 4993   8.536  17.259   4.767
    1HEX    H2J 4994   8.390  17.172   4.726
    1HEX    H2K 4995   8.280  17.391   4.658
    1HEX    H2M 4996   8.426   0.037   4.704
    1STR    S00 4997   9.178  17.293   3.691
    1STR    S0E 4998   8.510   0.701   4.176
    1STR    S0M 4999   8.154  16.909   3.741
    1STR    S0X 5000   9.255  17.334   4.663
    1STR    S14 5001   8.919   0.084   5.053
    1STR    S1B 5002   8.309  17.394   4.897
    1HEX    C01 5003   8.997  17.288   8.033
    1HEX    C02 5004   8.934  17.289   8.173
    1HEX    C03 5005   8.783  17.290   8.162
    1HEX    O04 5006   8.721  17.190   8.123
    1HEX    O05 5007   8.729  17.408   8.196
    1HEX    C06 5008   8.588  17.423   8.201
    1HEX    C07 5009   8.537  17.418   8.348
    1HEX    C08 5010   8.586   0.106   8.419
    1HEX    O09 5011   8.521   0.227   8.382
    1HEX    C0A 5012   8.459   0.298   8.477
    1HEX    O0B 5013   8.413   0.252   8.582
    1HEX    C0C 5014   8.456   0.447   8.447
    1HEX    C0D 5015   8.466   0.530   8.577
    1HEX    C0F 5016   8.382  17.417   8.349
    1HEX    O0G 5017   8.335  17.295   8.291
    1HEX    C0H 5018   8.286  17.293   8.167
    1HEX    O0I 5019   8.256  17.391   8.099
    1HEX    C0J 5020   8.276  17.152   8.111
    1HEX    C0K 5021   8.158  17.076   8.172
    1HEX    C0N 5022   8.583  17.287   8.422
    1HEX    O0O 5023   8.720  17.268   8.464
    1HEX    C0P 5024   8.787  17.350   8.561
    1HEX    C0Q 5025   8.753  17.340   8.713
    1HEX    C0R 5026   8.787  17.198   8.764
    1HEX    O0S 5027   8.928  17.174   8.760
    1HEX    C0T 5028   9.000  17.165   8.874
    1HEX    O0U 5029   8.955  17.170   8.989
    1HEX    C0V 5030   9.149  17.147   8.848
    1HEX    C0W 5031   9.226  17.280   8.852
    1HEX    C0Y 5032   8.843   0.004   8.783
    1HEX    O0Z 5033   8.825  17.439   8.923
    1HEX    C10 5034   8.903   0.070   9.003
    1HEX    O11 5035   8.992   0.147   8.965
    1HEX    C12 5036   8.868   0.049   9.149
    1HEX    C13 5037   8.981   0.092   9.243
    1HEX    C15 5038   8.605  17.379   8.747
    1HEX    O16 5039   8.568  17.359   8.883
    1HEX    C17 5040   8.494  17.253   8.919
    1HEX    O18 5041   8.462  17.159   8.846
    1HEX    C19 5042   8.448  17.261   9.063
    1HEX    C1A 5043   8.366  17.389   9.085
    1HEX    H1D 5044   8.968  17.198   7.979
    1HEX    H1E 5045   8.964  17.374   7.975
    1HEX    H1F 5046   8.966  17.377   8.229
    1HEX    H1G 5047   8.963  17.201   8.230
    1HEX    H1H 5048   8.539  17.347   8.139
    1HEX    H1I 5049   8.561   0.078   8.156
    1HEX    H1J 5050   8.690   0.124   8.392
    1HEX    H1K 5051   8.583   0.092   8.526
    1HEX    H1M 5052   8.367   0.473   8.390
    1HEX    H1N 5053   8.542   0.468   8.384
    1HEX    H1O 5054   8.543   0.489   8.643
    1HEX    H1P 5055   8.372   0.527   8.632
    1HEX    H1R 5056   8.341   0.065   8.298
    1HEX    H1S 5057   8.344  17.423   8.451
    1HEX    H1T 5058   8.370  17.100   8.130
    1HEX    H1U 5059   8.265  17.158   8.002
    1HEX    H1V 5060   8.064  17.127   8.150
    1HEX    H1W 5061   8.168  17.069   8.280
    1HEX    H1Y 5062   8.568  17.205   8.350
    1HEX    H1Z 5063   8.514  17.258   8.500
    1HEX    H20 5064   8.795   0.013   8.530
    1HEX    H21 5065   8.890  17.316   8.552
    1HEX    H22 5066   8.736  17.122   8.704
    1HEX    H23 5067   8.750  17.184   8.866
    1HEX    H24 5068   9.160  17.100   8.751
    1HEX    H25 5069   9.189  17.077   8.922
    1HEX    H26 5070   9.172  17.358   8.799
    1HEX    H27 5071   9.323  17.269   8.803
    1HEX    H29 5072   8.822   0.106   8.750
    1HEX    H2A 5073   8.948  17.427   8.760
    1HEX    H2B 5074   8.846  17.383   9.163
    1HEX    H2C 5075   8.777   0.104   9.169
    1HEX    H2D 5076   9.013   0.194   9.221
    1HEX    H2E 5077   9.068   0.028   9.231
    1HEX    H2G 5078   8.533  17.328   8.685
    1HEX    H2H 5079   8.590   0.045   8.730
    1HEX    H2I 5080   8.536  17.259   9.127
    1HEX    H2J 5081   8.390  17.172   9.086
    1HEX    H2K 5082   8.280  17.391   9.018
    1HEX    H2M 5083   8.426   0.037   9.064
    1STR    S00 5084   9.178  17.293   8.051
    1STR    S0E 5085   8.510   0.701   8.536
    1STR    S0M 5086   8.154  16.909   8.101
    1STR    S0X 5087   9.255  17.334   9.023
    1STR    S14 5088   8.919   0.084   9.413
    1STR    S1B 5089   8.309  17.394   9.257
    1HEX    C01 5090   8.999  17.288  12.394
    1HEX    C02 5091   8.939  17.289  12.534
    1HEX    C03 5092   8.788  17.290  12.526
    1HEX    O04 5093   8.725  17.191  12.490
    1HEX    O05 5094   8.735  17.409  12.561
    1HEX    C06 5095   8.594  17.424  12.569
    1HEX    C07 5096   8.546  17.420  12.717
    1HEX    C08 5097   8.591   0.110  12.785
    1HEX    O09 5098   8.525   0.229  12.745
    1HEX    C0A 5099   8.458   0.300  12.838
    1HEX    O0B 5100   8.409   0.254  12.941
    1HEX    C0C 5101   8.456   0.449  12.807
    1HEX    C0D 5102   8.466   0.532  12.936
    1HEX    C0F 5103   8.391  17.413  12.718
    1HEX    O0G 5104   8.347  17.291  12.658
    1HEX    C0H 5105   8.291  17.292  12.535
    1HEX    O0I 5106   8.255  17.391  12.472
    1HEX    C0J 5107   8.279  17.152  12.476
    1HEX    C0K 5108   8.159  17.077  12.534
    1HEX    C0N 5109   8.600  17.294  12.793
    1HEX    O0O 5110   8.737  17.289  12.839
    1HEX    C0P 5111   8.795  17.370  12.944
    1HEX    C0Q 5112   8.755  17.349  13.094
    1HEX    C0R 5113   8.786  17.202  13.133
    1HEX    O0S 5114   8.927  17.177  13.126
    1HEX    C0T 5115   9.000  17.159  13.239
    1HEX    O0U 5116   8.956  17.156  13.353
    1HEX    C0V 5117   9.148  17.141  13.210
    1HEX    C0W 5118   9.226  17.274  13.209
    1HEX    C0Y 5119   8.841   0.004  13.183
    1HEX    O0Z 5120   8.807  17.422  13.319
    1HEX    C10 5121   8.863   0.049  13.420
    1HEX    O11 5122   8.954   0.132  13.410
    1HEX    C12 5123   8.793   0.015  13.551
    1HEX    C13 5124   8.863   0.061  13.681
    1HEX    C15 5125   8.606  17.387  13.119
    1HEX    O16 5126   8.560  17.365  13.251
    1HEX    C17 5127   8.491  17.255  13.283
    1HEX    O18 5128   8.466  17.161  13.207
    1HEX    C19 5129   8.442  17.259  13.426
    1HEX    C1A 5130   8.362  17.387  13.452
    1HEX    H1D 5131   8.968  17.199  12.340
    1HEX    H1E 5132   8.965  17.374  12.336
    1HEX    H1F 5133   8.972  17.376  12.591
    1HEX    H1G 5134   8.969  17.201  12.591
    1HEX    H1H 5135   8.544  17.348  12.508
    1HEX    H1I 5136   8.566   0.079  12.523
    1HEX    H1J 5137   8.696   0.127  12.761
    1HEX    H1K 5138   8.585   0.098  12.893
    1HEX    H1M 5139   8.367   0.474  12.750
    1HEX    H1N 5140   8.542   0.470  12.743
    1HEX    H1O 5141   8.543   0.491  13.003
    1HEX    H1P 5142   8.372   0.529  12.991
    1HEX    H1R 5143   8.347   0.061  12.669
    1HEX    H1S 5144   8.352  17.417  12.820
    1HEX    H1T 5145   8.372  17.099  12.495
    1HEX    H1U 5146   8.270  17.161  12.368
    1HEX    H1V 5147   8.066  17.129  12.512
    1HEX    H1W 5148   8.168  17.069  12.642
    1HEX    H1Y 5149   8.592  17.211  12.723
    1HEX    H1Z 5150   8.531  17.260  12.870
    1HEX    H20 5151   8.796   0.035  12.919
    1HEX    H21 5152   8.901  17.344  12.937
    1HEX    H22 5153   8.735  17.133  13.066
    1HEX    H23 5154   8.748  17.181  13.233
    1HEX    H24 5155   9.157  17.092  13.113
    1HEX    H25 5156   9.190  17.072  13.284
    1HEX    H26 5157   9.172  17.351  13.154
    1HEX    H27 5158   9.323  17.261  13.160
    1HEX    H29 5159   8.824   0.109  13.158
    1HEX    H2A 5160   8.948  17.427  13.170
    1HEX    H2B 5161   8.781  17.347  13.552
    1HEX    H2C 5162   8.694   0.058  13.545
    1HEX    H2D 5163   8.882   0.168  13.681
    1HEX    H2E 5164   8.961   0.013  13.691
    1HEX    H2G 5165   8.538  17.338  13.051
    1HEX    H2H 5166   8.593   0.054  13.102
    1HEX    H2I 5167   8.529  17.254  13.492
    1HEX    H2J 5168   8.382  17.170  13.445
    1HEX    H2K 5169   8.274  17.390  13.388
    1HEX    H2M 5170   8.421   0.036  13.429
    1STR    S00 5171   9.180  17.292  12.408
    1STR    S0E 5172   8.509   0.703  12.895
    1STR    S0M 5173   8.155  16.911  12.461
    1STR    S0X 5174   9.256  17.332  13.379
    1STR    S14 5175   8.756   0.014  13.822
    1STR    S1B 5176   8.313  17.392  13.626
    1HEX    C01 5177   8.997   4.207  16.753
    1HEX    C02 5178   8.934   4.209  16.893
    1HEX    C03 5179   8.783   4.210  16.882
    1HEX    O04 5180   8.721   4.110  16.843
    1HEX    O05 5181   8.729   4.328  16.916
    1HEX    C06 5182   8.588   4.343  16.921
    1HEX    C07 5183   8.537   4.338  17.068
    1HEX    C08 5184   8.586   4.466  17.138
    1HEX    O09 5185   8.521   4.587  17.102
    1HEX    C0A 5186   8.459   4.658  17.197
    1HEX    O0B 5187   8.412   4.612  17.302
    1HEX    C0C 5188   8.456   4.807  17.167
    1HEX    C0D 5189   8.466   4.890  17.297
    1HEX    C0F 5190   8.382   4.337  17.069
    1HEX    O0G 5191   8.335   4.215  17.011
    1HEX    C0H 5192   8.286   4.213  16.887
    1HEX    O0I 5193   8.256   4.311  16.819
    1HEX    C0J 5194   8.276   4.072  16.831
    1HEX    C0K 5195   8.158   3.996  16.892
    1HEX    C0N 5196   8.583   4.207  17.142
    1HEX    O0O 5197   8.720   4.188  17.184
    1HEX    C0P 5198   8.787   4.270  17.281
    1HEX    C0Q 5199   8.753   4.260  17.433
    1HEX    C0R 5200   8.787   4.118   0.044
    1HEX    O0S 5201   8.928   4.094   0.040
    1HEX    C0T 5202   9.000   4.085   0.154
    1HEX    O0U 5203   8.955   4.090   0.269
    1HEX    C0V 5204   9.149   4.068   0.128
    1HEX    C0W 5205   9.226   4.201   0.132
    1HEX    C0Y 5206   8.843   4.365   0.063
    1HEX    O0Z 5207   8.825   4.359   0.203
    1HEX    C10 5208   8.903   4.431   0.282
    1HEX    O11 5209   8.992   4.507   0.245
    1HEX    C12 5210   8.868   4.410   0.429
    1HEX    C13 5211   8.981   4.453   0.523
    1HEX    C15 5212   8.606   4.299   0.027
    1HEX    O16 5213   8.568   4.279   0.163
    1HEX    C17 5214   8.494   4.173   0.199
    1HEX    O18 5215   8.462   4.080   0.126
    1HEX    C19 5216   8.449   4.182   0.343
    1HEX    C1A 5217   8.366   4.309   0.365
    1HEX    H1D 5218   8.967   4.117  16.699
    1HEX    H1E 5219   8.964   4.293  16.695
    1HEX    H1F 5220   8.966   4.296  16.949
    1HEX    H1G 5221   8.963   4.121  16.950
    1HEX    H1H 5222   8.539   4.267  16.859
    1HEX    H1I 5223   8.561   4.438  16.876
    1HEX    H1J 5224   8.691   4.484  17.112
    1HEX    H1K 5225   8.583   4.452  17.246
    1HEX    H1M 5226   8.367   4.833  17.110
    1HEX    H1N 5227   8.543   4.829  17.104
    1HEX    H1O 5228   8.543   4.849  17.363
    1HEX    H1P 5229   8.372   4.887  17.352
    1HEX    H1R 5230   8.341   4.425  17.018
    1HEX    H1S 5231   8.344   4.344  17.171
    1HEX    H1T 5232   8.370   4.021  16.850
    1HEX    H1U 5233   8.265   4.079  16.722
    1HEX    H1V 5234   8.064   4.047  16.871
    1HEX    H1W 5235   8.168   3.990  17.000
    1HEX    H1Y 5236   8.568   4.126  17.071
    1HEX    H1Z 5237   8.514   4.178  17.220
    1HEX    H20 5238   8.796   4.373  17.250
    1HEX    H21 5239   8.890   4.236  17.272
    1HEX    H22 5240   8.736   4.043  17.424
    1HEX    H23 5241   8.750   4.104   0.146
    1HEX    H24 5242   9.160   4.020   0.031
    1HEX    H25 5243   9.189   3.998   0.202
    1HEX    H26 5244   9.172   4.279   0.079
    1HEX    H27 5245   9.323   4.190   0.083
    1HEX    H29 5246   8.822   4.466   0.029
    1HEX    H2A 5247   8.949   4.347   0.040
    1HEX    H2B 5248   8.846   4.304   0.443
    1HEX    H2C 5249   8.777   4.465   0.449
    1HEX    H2D 5250   9.013   4.554   0.501
    1HEX    H2E 5251   9.068   4.388   0.510
    1HEX    H2G 5252   8.533   4.249  17.405
    1HEX    H2H 5253   8.590   4.406   0.010
    1HEX    H2I 5254   8.537   4.180   0.407
    1HEX    H2J 5255   8.390   4.093   0.366
    1HEX    H2K 5256   8.280   4.311   0.298
    1HEX    H2M 5257   8.426   4.398   0.344
    1STR    S00 5258   9.178   4.212  16.771
    1STR    S0E 5259   8.510   5.061  17.256
    1STR    S0M 5260   8.154   3.829  16.821
    1STR    S0X 5261   9.255   4.255   0.303
    1STR    S14 5262   8.919   4.444   0.693
    1STR    S1B 5263   8.309   4.315   0.537
    1HEX    C01 5264   8.997   4.207   3.675
    1HEX    C02 5265   8.935   4.209   3.815
    1HEX    C03 5266   8.784   4.209   3.806
    1HEX    O04 5267   8.722   4.111   3.766
    1HEX    O05 5268   8.730   4.327   3.844
    1HEX    C06 5269   8.589   4.342   3.849
    1HEX    C07 5270   8.538   4.334   3.995
    1HEX    C08 5271   8.585   4.462   4.068
    1HEX    O09 5272   8.520   4.583   4.030
    1HEX    C0A 5273   8.460   4.656   4.125
    1HEX    O0B 5274   8.417   4.614   4.232
    1HEX    C0C 5275   8.456   4.805   4.090
    1HEX    C0D 5276   8.466   4.891   4.217
    1HEX    C0F 5277   8.383   4.333   3.995
    1HEX    O0G 5278   8.337   4.212   3.935
    1HEX    C0H 5279   8.285   4.212   3.812
    1HEX    O0I 5280   8.254   4.311   3.746
    1HEX    C0J 5281   8.274   4.072   3.754
    1HEX    C0K 5282   8.156   3.996   3.816
    1HEX    C0N 5283   8.586   4.202   4.066
    1HEX    O0O 5284   8.720   4.184   4.117
    1HEX    C0P 5285   8.786   4.269   4.213
    1HEX    C0Q 5286   8.754   4.265   4.367
    1HEX    C0R 5287   8.814   4.135   4.428
    1HEX    O0S 5288   8.957   4.124   4.407
    1HEX    C0T 5289   9.048   4.139   4.508
    1HEX    O0U 5290   9.020   4.168   4.624
    1HEX    C0V 5291   9.194   4.108   4.469
    1HEX    C0W 5292   9.288   4.229   4.442
    1HEX    C0Y 5293   8.829   4.385   4.430
    1HEX    O0Z 5294   8.806   4.386   4.569
    1HEX    C10 5295   8.895   4.442   4.650
    1HEX    O11 5296   8.994   4.506   4.615
    1HEX    C12 5297   8.860   4.417   4.796
    1HEX    C13 5298   8.974   4.457   4.891
    1HEX    C15 5299   8.600   4.288   4.392
    1HEX    O16 5300   8.531   4.244   4.510
    1HEX    C17 5301   8.413   4.175   4.494
    1HEX    O18 5302   8.391   4.096   4.403
    1HEX    C19 5303   8.302   4.211   4.594
    1HEX    C1A 5304   8.183   4.287   4.525
    1HEX    H1D 5305   8.966   4.118   3.620
    1HEX    H1E 5306   8.963   4.294   3.617
    1HEX    H1F 5307   8.968   4.296   3.871
    1HEX    H1G 5308   8.965   4.121   3.871
    1HEX    H1H 5309   8.540   4.268   3.786
    1HEX    H1I 5310   8.562   4.438   3.805
    1HEX    H1J 5311   8.689   4.481   4.043
    1HEX    H1K 5312   8.581   4.448   4.176
    1HEX    H1M 5313   8.367   4.828   4.033
    1HEX    H1N 5314   8.542   4.825   4.026
    1HEX    H1O 5315   8.542   4.852   4.285
    1HEX    H1P 5316   8.372   4.890   4.272
    1HEX    H1R 5317   8.342   4.421   3.946
    1HEX    H1S 5318   8.344   4.337   4.097
    1HEX    H1T 5319   8.368   4.019   3.772
    1HEX    H1U 5320   8.262   4.080   3.646
    1HEX    H1V 5321   8.063   4.050   3.800
    1HEX    H1W 5322   8.170   3.986   3.924
    1HEX    H1Y 5323   8.578   4.123   3.991
    1HEX    H1Z 5324   8.511   4.164   4.136
    1HEX    H20 5325   8.794   4.371   4.178
    1HEX    H21 5326   8.890   4.238   4.203
    1HEX    H22 5327   8.765   4.048   4.383
    1HEX    H23 5328   8.790   4.129   4.535
    1HEX    H24 5329   9.194   4.038   4.385
    1HEX    H25 5330   9.233   4.051   4.553
    1HEX    H26 5331   9.242   4.323   4.472
    1HEX    H27 5332   9.306   4.237   4.334
    1HEX    H29 5333   8.797   4.481   4.388
    1HEX    H2A 5334   8.936   4.377   4.409
    1HEX    H2B 5335   8.838   4.311   4.807
    1HEX    H2C 5336   8.769   4.473   4.818
    1HEX    H2D 5337   9.008   4.559   4.870
    1HEX    H2E 5338   9.060   4.391   4.876
    1HEX    H2G 5339   8.544   4.253   4.308
    1HEX    H2H 5340   8.580   4.396   4.390
    1HEX    H2I 5341   8.345   4.271   4.674
    1HEX    H2J 5342   8.267   4.119   4.640
    1HEX    H2K 5343   8.212   4.314   4.423
    1HEX    H2M 5344   8.164   4.381   4.576
    1STR    S00 5345   9.177   4.211   3.690
    1STR    S0E 5346   8.510   5.061   4.172
    1STR    S0M 5347   8.145   3.832   3.740
    1STR    S0X 5348   9.452   4.211   4.525
    1STR    S14 5349   8.913   4.446   5.061
    1STR    S1B 5350   8.024   4.195   4.513
    1HEX    C01 5351   8.999   4.207   8.034
    1HEX    C02 5352   8.938   4.208   8.174
    1HEX    C03 5353   8.787   4.210   8.165
    1HEX    O04 5354   8.724   4.111   8.127
    1HEX    O05 5355   8.735   4.329   8.200
    1HEX    C06 5356   8.594   4.345   8.207
    1HEX    C07 5357   8.544   4.340   8.354
    1HEX    C08 5358   8.590   4.468   8.425
    1HEX    O09 5359   8.523   4.588   8.387
    1HEX    C0A 5360   8.459   4.659   8.481
    1HEX    O0B 5361   8.412   4.613   8.586
    1HEX    C0C 5362   8.456   4.807   8.449
    1HEX    C0D 5363   8.466   4.891   8.578
    1HEX    C0F 5364   8.389   4.336   8.353
    1HEX    O0G 5365   8.343   4.214   8.294
    1HEX    C0H 5366   8.290   4.213   8.171
    1HEX    O0I 5367   8.257   4.312   8.106
    1HEX    C0J 5368   8.278   4.073   8.113
    1HEX    C0K 5369   8.159   3.997   8.173
    1HEX    C0N 5370   8.592   4.210   8.429
    1HEX    O0O 5371   8.730   4.189   8.468
    1HEX    C0P 5372   8.806   4.274   8.557
    1HEX    C0Q 5373   8.790   4.263   8.712
    1HEX    C0R 5374   8.862   4.136   8.766
    1HEX    O0S 5375   9.004   4.134   8.739
    1HEX    C0T 5376   9.095   4.149   8.839
    1HEX    O0U 5377   9.068   4.178   8.955
    1HEX    C0V 5378   9.240   4.119   8.797
    1HEX    C0W 5379   9.328   4.242   8.762
    1HEX    C0Y 5380   8.857   4.388   8.775
    1HEX    O0Z 5381   8.833   4.386   8.915
    1HEX    C10 5382   8.915   4.446   9.000
    1HEX    O11 5383   9.013   4.514   8.971
    1HEX    C12 5384   8.871   4.421   9.143
    1HEX    C13 5385   8.978   4.459   9.246
    1HEX    C15 5386   8.639   4.261   8.751
    1HEX    O16 5387   8.610   4.241   8.889
    1HEX    C17 5388   8.510   4.158   8.925
    1HEX    O18 5389   8.454   4.076   8.852
    1HEX    C19 5390   8.464   4.178   9.068
    1HEX    C1A 5391   8.379   4.306   9.077
    1HEX    H1D 5392   8.968   4.118   7.979
    1HEX    H1E 5393   8.965   4.293   7.976
    1HEX    H1F 5394   8.971   4.295   8.230
    1HEX    H1G 5395   8.968   4.120   8.230
    1HEX    H1H 5396   8.544   4.270   8.145
    1HEX    H1I 5397   8.567   4.440   8.162
    1HEX    H1J 5398   8.694   4.489   8.398
    1HEX    H1K 5399   8.588   4.455   8.533
    1HEX    H1M 5400   8.367   4.832   8.392
    1HEX    H1N 5401   8.542   4.828   8.386
    1HEX    H1O 5402   8.543   4.851   8.644
    1HEX    H1P 5403   8.372   4.889   8.633
    1HEX    H1R 5404   8.347   4.423   8.303
    1HEX    H1S 5405   8.349   4.341   8.455
    1HEX    H1T 5406   8.372   4.020   8.132
    1HEX    H1U 5407   8.268   4.081   8.005
    1HEX    H1V 5408   8.066   4.049   8.151
    1HEX    H1W 5409   8.169   3.990   8.281
    1HEX    H1Y 5410   8.573   4.127   8.360
    1HEX    H1Z 5411   8.523   4.188   8.509
    1HEX    H20 5412   8.806   4.377   8.525
    1HEX    H21 5413   8.910   4.245   8.536
    1HEX    H22 5414   8.816   4.048   8.721
    1HEX    H23 5415   8.842   4.127   8.873
    1HEX    H24 5416   9.239   4.045   8.717
    1HEX    H25 5417   9.284   4.068   8.883
    1HEX    H26 5418   9.313   4.322   8.834
    1HEX    H27 5419   9.297   4.282   8.665
    1HEX    H29 5420   8.817   4.482   8.735
    1HEX    H2A 5421   8.964   4.389   8.755
    1HEX    H2B 5422   8.846   4.315   9.152
    1HEX    H2C 5423   8.779   4.477   9.160
    1HEX    H2D 5424   9.011   4.562   9.231
    1HEX    H2E 5425   9.066   4.395   9.234
    1HEX    H2G 5426   8.593   4.181   8.695
    1HEX    H2H 5427   8.590   4.354   8.722
    1HEX    H2I 5428   8.550   4.183   9.134
    1HEX    H2J 5429   8.405   4.091   9.097
    1HEX    H2K 5430   8.295   4.301   9.007
    1HEX    H2M 5431   8.438   4.393   9.050
    1STR    S00 5432   9.180   4.210   8.049
    1STR    S0E 5433   8.509   5.062   8.535
    1STR    S0M 5434   8.155   3.831   8.102
    1STR    S0X 5435   9.507   4.198   8.753
    1STR    S14 5436   8.908   4.440   9.412
    1STR    S1B 5437   8.316   4.324   9.246
    1HEX    C01 5438   8.997   4.207  12.393
    1HEX    C02 5439   8.934   4.209  12.533
    1HEX    C03 5440   8.783   4.210  12.522
    1HEX    O04 5441   8.721   4.110  12.483
    1HEX    O05 5442   8.729   4.328  12.556
    1HEX    C06 5443   8.588   4.343  12.561
    1HEX    C07 5444   8.537   4.338  12.708
    1HEX    C08 5445   8.586   4.466  12.778
    1HEX    O09 5446   8.521   4.587  12.742
    1HEX    C0A 5447   8.458   4.658  12.837
    1HEX    O0B 5448   8.412   4.612  12.942
    1HEX    C0C 5449   8.456   4.807  12.807
    1HEX    C0D 5450   8.466   4.890  12.937
    1HEX    C0F 5451   8.382   4.337  12.709
    1HEX    O0G 5452   8.335   4.215  12.651
    1HEX    C0H 5453   8.286   4.213  12.527
    1HEX    O0I 5454   8.256   4.311  12.459
    1HEX    C0J 5455   8.276   4.072  12.471
    1HEX    C0K 5456   8.158   3.996  12.532
    1HEX    C0N 5457   8.583   4.207  12.782
    1HEX    O0O 5458   8.720   4.188  12.824
    1HEX    C0P 5459   8.787   4.270  12.921
    1HEX    C0Q 5460   8.753   4.260  13.073
    1HEX    C0R 5461   8.787   4.118  13.124
    1HEX    O0S 5462   8.928   4.094  13.120
    1HEX    C0T 5463   9.000   4.085  13.234
    1HEX    O0U 5464   8.955   4.090  13.349
    1HEX    C0V 5465   9.149   4.068  13.208
    1HEX    C0W 5466   9.226   4.201  13.212
    1HEX    C0Y 5467   8.843   4.365  13.143
    1HEX    O0Z 5468   8.825   4.359  13.283
    1HEX    C10 5469   8.903   4.431  13.362
    1HEX    O11 5470   8.992   4.507  13.325
    1HEX    C12 5471   8.868   4.410  13.509
    1HEX    C13 5472   8.981   4.453  13.603
    1HEX    C15 5473   8.606   4.299  13.107
    1HEX    O16 5474   8.568   4.279  13.243
    1HEX    C17 5475   8.494   4.173  13.279
    1HEX    O18 5476   8.462   4.080  13.206
    1HEX    C19 5477   8.449   4.182  13.423
    1HEX    C1A 5478   8.366   4.309  13.445
    1HEX    H1D 5479   8.968   4.117  12.339
    1HEX    H1E 5480   8.964   4.293  12.335
    1HEX    H1F 5481   8.966   4.296  12.589
    1HEX    H1G 5482   8.963   4.121  12.590
    1HEX    H1H 5483   8.539   4.267  12.499
    1HEX    H1I 5484   8.561   4.438  12.516
    1HEX    H1J 5485   8.691   4.484  12.752
    1HEX    H1K 5486   8.583   4.452  12.886
    1HEX    H1M 5487   8.367   4.833  12.750
    1HEX    H1N 5488   8.542   4.829  12.744
    1HEX    H1O 5489   8.543   4.849  13.003
    1HEX    H1P 5490   8.372   4.887  12.992
    1HEX    H1R 5491   8.341   4.425  12.658
    1HEX    H1S 5492   8.344   4.344  12.811
    1HEX    H1T 5493   8.370   4.021  12.490
    1HEX    H1U 5494   8.265   4.079  12.362
    1HEX    H1V 5495   8.064   4.047  12.511
    1HEX    H1W 5496   8.168   3.990  12.640
    1HEX    H1Y 5497   8.568   4.126  12.711
    1HEX    H1Z 5498   8.514   4.178  12.860
    1HEX    H20 5499   8.796   4.373  12.890
    1HEX    H21 5500   8.890   4.236  12.912
    1HEX    H22 5501   8.736   4.043  13.064
    1HEX    H23 5502   8.750   4.104  13.226
    1HEX    H24 5503   9.160   4.020  13.111
    1HEX    H25 5504   9.189   3.998  13.282
    1HEX    H26 5505   9.172   4.279  13.159
    1HEX    H27 5506   9.323   4.190  13.163
    1HEX    H29 5507   8.822   4.466  13.109
    1HEX    H2A 5508   8.949   4.347  13.120
    1HEX    H2B 5509   8.846   4.304  13.523
    1HEX    H2C 5510   8.777   4.465  13.529
    1HEX    H2D 5511   9.013   4.554  13.581
    1HEX    H2E 5512   9.068   4.388  13.590
    1HEX    H2G 5513   8.533   4.249  13.045
    1HEX    H2H 5514   8.590   4.406  13.090
    1HEX    H2I 5515   8.537   4.180  13.487
    1HEX    H2J 5516   8.390   4.093  13.446
    1HEX    H2K 5517   8.280   4.311  13.378
    1HEX    H2M 5518   8.426   4.398  13.424
    1STR    S00 5519   9.178   4.212  12.411
    1STR    S0E 5520   8.510   5.061  12.896
    1STR    S0M 5521   8.154   3.829  12.461
    1STR    S0X 5522   9.255   4.255  13.383
    1STR    S14 5523   8.919   4.444  13.773
    1STR    S1B 5524   8.309   4.315  13.617
    1HEX    C01 5525   8.997   8.568  16.753
    1HEX    C02 5526   8.934   8.569  16.893
    1HEX    C03 5527   8.783   8.570  16.882
    1HEX    O04 5528   8.721   8.471  16.843
    1HEX    O05 5529   8.729   8.688  16.916
    1HEX    C06 5530   8.588   8.703  16.921
    1HEX    C07 5531   8.537   8.698  17.068
    1HEX    C08 5532   8.586   8.826  17.139
    1HEX    O09 5533   8.521   8.947  17.103
    1HEX    C0A 5534   8.459   9.018  17.198
    1HEX    O0B 5535   8.413   8.973  17.302
    1HEX    C0C 5536   8.456   9.168  17.167
    1HEX    C0D 5537   8.466   9.250  17.297
    1HEX    C0F 5538   8.382   8.697  17.069
    1HEX    O0G 5539   8.335   8.575  17.011
    1HEX    C0H 5540   8.286   8.573  16.887
    1HEX    O0I 5541   8.256   8.671  16.819
    1HEX    C0J 5542   8.276   8.432  16.831
    1HEX    C0K 5543   8.158   8.356  16.892
    1HEX    C0N 5544   8.583   8.567  17.142
    1HEX    O0O 5545   8.720   8.549  17.184
    1HEX    C0P 5546   8.787   8.630  17.281
    1HEX    C0Q 5547   8.753   8.621  17.433
    1HEX    C0R 5548   8.787   8.478   0.044
    1HEX    O0S 5549   8.928   8.454   0.040
    1HEX    C0T 5550   9.000   8.445   0.154
    1HEX    O0U 5551   8.955   8.450   0.269
    1HEX    C0V 5552   9.149   8.427   0.128
    1HEX    C0W 5553   9.227   8.560   0.132
    1HEX    C0Y 5554   8.844   8.725   0.063
    1HEX    O0Z 5555   8.825   8.719   0.203
    1HEX    C10 5556   8.903   8.791   0.283
    1HEX    O11 5557   8.992   8.867   0.245
    1HEX    C12 5558   8.868   8.769   0.429
    1HEX    C13 5559   8.981   8.812   0.523
    1HEX    C15 5560   8.606   8.659   0.027
    1HEX    O16 5561   8.568   8.639   0.163
    1HEX    C17 5562   8.494   8.533   0.198
    1HEX    O18 5563   8.462   8.440   0.125
    1HEX    C19 5564   8.449   8.542   0.343
    1HEX    C1A 5565   8.366   8.669   0.365
    1HEX    H1D 5566   8.968   8.478  16.699
    1HEX    H1E 5567   8.964   8.654  16.695
    1HEX    H1F 5568   8.966   8.657  16.950
    1HEX    H1G 5569   8.963   8.481  16.950
    1HEX    H1H 5570   8.539   8.628  16.859
    1HEX    H1I 5571   8.561   8.798  16.876
    1HEX    H1J 5572   8.690   8.844  17.112
    1HEX    H1K 5573   8.583   8.812  17.246
    1HEX    H1M 5574   8.367   9.193  17.110
    1HEX    H1N 5575   8.542   9.189  17.104
    1HEX    H1O 5576   8.543   9.209  17.363
    1HEX    H1P 5577   8.372   9.247  17.352
    1HEX    H1R 5578   8.341   8.785  17.018
    1HEX    H1S 5579   8.344   8.704  17.171
    1HEX    H1T 5580   8.370   8.381  16.850
    1HEX    H1U 5581   8.265   8.439  16.722
    1HEX    H1V 5582   8.064   8.407  16.871
    1HEX    H1W 5583   8.168   8.350  17.000
    1HEX    H1Y 5584   8.568   8.486  17.070
    1HEX    H1Z 5585   8.514   8.538  17.220
    1HEX    H20 5586   8.796   8.733  17.250
    1HEX    H21 5587   8.890   8.596  17.272
    1HEX    H22 5588   8.736   8.403  17.424
    1HEX    H23 5589   8.750   8.464   0.146
    1HEX    H24 5590   9.160   8.380   0.031
    1HEX    H25 5591   9.189   8.357   0.202
    1HEX    H26 5592   9.172   8.638   0.079
    1HEX    H27 5593   9.323   8.549   0.083
    1HEX    H29 5594   8.822   8.826   0.030
    1HEX    H2A 5595   8.949   8.707   0.041
    1HEX    H2B 5596   8.846   8.664   0.443
    1HEX    H2C 5597   8.777   8.825   0.449
    1HEX    H2D 5598   9.013   8.914   0.501
    1HEX    H2E 5599   9.068   8.748   0.511
    1HEX    H2G 5600   8.533   8.609  17.405
    1HEX    H2H 5601   8.590   8.766   0.010
    1HEX    H2I 5602   8.536   8.540   0.407
    1HEX    H2J 5603   8.390   8.453   0.366
    1HEX    H2K 5604   8.280   8.671   0.298
    1HEX    H2M 5605   8.426   8.758   0.344
    1STR    S00 5606   9.178   8.572  16.771
    1STR    S0E 5607   8.509   9.421  17.256
    1STR    S0M 5608   8.154   8.189  16.821
    1STR    S0X 5609   9.255   8.615   0.302
    1STR    S14 5610   8.919   8.804   0.693
    1STR    S1B 5611   8.309   8.675   0.537
    1HEX    C01 5612   8.996   8.568   3.675
    1HEX    C02 5613   8.934   8.569   3.815
    1HEX    C03 5614   8.783   8.568   3.806
    1HEX    O04 5615   8.722   8.469   3.767
    1HEX    O05 5616   8.728   8.686   3.842
    1HEX    C06 5617   8.586   8.700   3.845
    1HEX    C07 5618   8.534   8.696   3.991
    1HEX    C08 5619   8.583   8.824   4.062
    1HEX    O09 5620   8.519   8.945   4.025
    1HEX    C0A 5621   8.458   9.018   4.120
    1HEX    O0B 5622   8.415   8.974   4.227
    1HEX    C0C 5623   8.456   9.167   4.088
    1HEX    C0D 5624   8.466   9.251   4.217
    1HEX    C0F 5625   8.378   8.696   3.990
    1HEX    O0G 5626   8.331   8.575   3.931
    1HEX    C0H 5627   8.285   8.573   3.805
    1HEX    O0I 5628   8.260   8.672   3.736
    1HEX    C0J 5629   8.274   8.432   3.750
    1HEX    C0K 5630   8.157   8.357   3.813
    1HEX    C0N 5631   8.577   8.564   4.065
    1HEX    O0O 5632   8.711   8.546   4.115
    1HEX    C0P 5633   8.772   8.629   4.216
    1HEX    C0Q 5634   8.727   8.625   4.366
    1HEX    C0R 5635   8.758   8.484   4.424
    1HEX    O0S 5636   8.898   8.455   4.415
    1HEX    C0T 5637   8.977   8.451   4.525
    1HEX    O0U 5638   8.939   8.462   4.641
    1HEX    C0V 5639   9.124   8.429   4.491
    1HEX    C0W 5640   9.207   8.559   4.492
    1HEX    C0Y 5641   8.818   8.729   4.436
    1HEX    O0Z 5642   8.799   8.728   4.575
    1HEX    C10 5643   8.888   8.791   4.652
    1HEX    O11 5644   8.982   8.859   4.611
    1HEX    C12 5645   8.860   8.768   4.800
    1HEX    C13 5646   8.977   8.812   4.888
    1HEX    C15 5647   8.578   8.670   4.388
    1HEX    O16 5648   8.509   8.641   4.511
    1HEX    C17 5649   8.395   8.567   4.505
    1HEX    O18 5650   8.375   8.478   4.424
    1HEX    C19 5651   8.285   8.611   4.602
    1HEX    C1A 5652   8.180   8.702   4.531
    1HEX    H1D 5653   8.966   8.478   3.621
    1HEX    H1E 5654   8.962   8.654   3.617
    1HEX    H1F 5655   8.965   8.657   3.872
    1HEX    H1G 5656   8.964   8.481   3.872
    1HEX    H1H 5657   8.539   8.625   3.783
    1HEX    H1I 5658   8.560   8.795   3.799
    1HEX    H1J 5659   8.688   8.841   4.036
    1HEX    H1K 5660   8.579   8.811   4.169
    1HEX    H1M 5661   8.366   9.191   4.031
    1HEX    H1N 5662   8.542   9.187   4.024
    1HEX    H1O 5663   8.543   9.211   4.283
    1HEX    H1P 5664   8.372   9.248   4.272
    1HEX    H1R 5665   8.339   8.785   3.939
    1HEX    H1S 5666   8.339   8.703   4.092
    1HEX    H1T 5667   8.368   8.381   3.769
    1HEX    H1U 5668   8.262   8.438   3.642
    1HEX    H1V 5669   8.062   8.408   3.793
    1HEX    H1W 5670   8.168   8.351   3.921
    1HEX    H1Y 5671   8.567   8.484   3.991
    1HEX    H1Z 5672   8.504   8.531   4.138
    1HEX    H20 5673   8.785   8.731   4.182
    1HEX    H21 5674   8.875   8.593   4.213
    1HEX    H22 5675   8.703   8.408   4.369
    1HEX    H23 5676   8.723   8.478   4.528
    1HEX    H24 5677   9.129   8.383   4.392
    1HEX    H25 5678   9.166   8.357   4.561
    1HEX    H26 5679   9.154   8.640   4.443
    1HEX    H27 5680   9.301   8.545   4.439
    1HEX    H29 5681   8.800   8.830   4.399
    1HEX    H2A 5682   8.923   8.709   4.414
    1HEX    H2B 5683   8.840   8.662   4.814
    1HEX    H2C 5684   8.770   8.823   4.824
    1HEX    H2D 5685   9.010   8.913   4.863
    1HEX    H2E 5686   9.063   8.746   4.874
    1HEX    H2G 5687   8.516   8.636   4.307
    1HEX    H2H 5688   8.573   8.778   4.381
    1HEX    H2I 5689   8.329   8.659   4.690
    1HEX    H2J 5690   8.237   8.520   4.639
    1HEX    H2K 5691   8.195   8.697   4.423
    1HEX    H2M 5692   8.197   8.807   4.557
    1STR    S00 5693   9.176   8.574   3.692
    1STR    S0E 5694   8.507   9.422   4.174
    1STR    S0M 5695   8.152   8.190   3.743
    1STR    S0X 5696   9.247   8.610   4.662
    1STR    S14 5697   8.923   8.809   5.061
    1STR    S1B 5698   8.002   8.660   4.559
    1HEX    C01 5699   8.997   8.568   8.033
    1HEX    C02 5700   8.934   8.569   8.173
    1HEX    C03 5701   8.783   8.570   8.162
    1HEX    O04 5702   8.721   8.471   8.123
    1HEX    O05 5703   8.729   8.688   8.196
    1HEX    C06 5704   8.588   8.703   8.201
    1HEX    C07 5705   8.537   8.698   8.348
    1HEX    C08 5706   8.586   8.826   8.419
    1HEX    O09 5707   8.521   8.947   8.383
    1HEX    C0A 5708   8.459   9.018   8.478
    1HEX    O0B 5709   8.413   8.973   8.582
    1HEX    C0C 5710   8.456   9.168   8.447
    1HEX    C0D 5711   8.466   9.250   8.577
    1HEX    C0F 5712   8.382   8.697   8.349
    1HEX    O0G 5713   8.335   8.575   8.291
    1HEX    C0H 5714   8.286   8.573   8.167
    1HEX    O0I 5715   8.256   8.671   8.099
    1HEX    C0J 5716   8.276   8.432   8.111
    1HEX    C0K 5717   8.158   8.356   8.172
    1HEX    C0N 5718   8.583   8.567   8.422
    1HEX    O0O 5719   8.720   8.549   8.464
    1HEX    C0P 5720   8.787   8.630   8.561
    1HEX    C0Q 5721   8.753   8.621   8.713
    1HEX    C0R 5722   8.787   8.478   8.764
    1HEX    O0S 5723   8.928   8.454   8.760
    1HEX    C0T 5724   9.000   8.445   8.874
    1HEX    O0U 5725   8.955   8.450   8.989
    1HEX    C0V 5726   9.149   8.427   8.848
    1HEX    C0W 5727   9.227   8.560   8.852
    1HEX    C0Y 5728   8.844   8.725   8.783
    1HEX    O0Z 5729   8.825   8.719   8.923
    1HEX    C10 5730   8.903   8.791   9.003
    1HEX    O11 5731   8.992   8.867   8.965
    1HEX    C12 5732   8.868   8.769   9.149
    1HEX    C13 5733   8.981   8.812   9.243
    1HEX    C15 5734   8.606   8.659   8.747
    1HEX    O16 5735   8.568   8.639   8.883
    1HEX    C17 5736   8.494   8.533   8.918
    1HEX    O18 5737   8.462   8.440   8.845
    1HEX    C19 5738   8.449   8.542   9.063
    1HEX    C1A 5739   8.366   8.669   9.085
    1HEX    H1D 5740   8.968   8.478   7.979
    1HEX    H1E 5741   8.964   8.654   7.975
    1HEX    H1F 5742   8.966   8.657   8.230
    1HEX    H1G 5743   8.963   8.481   8.230
    1HEX    H1H 5744   8.539   8.628   8.139
    1HEX    H1I 5745   8.561   8.798   8.156
    1HEX    H1J 5746   8.690   8.844   8.392
    1HEX    H1K 5747   8.583   8.812   8.526
    1HEX    H1M 5748   8.367   9.193   8.390
    1HEX    H1N 5749   8.542   9.189   8.384
    1HEX    H1O 5750   8.543   9.209   8.643
    1HEX    H1P 5751   8.372   9.247   8.632
    1HEX    H1R 5752   8.341   8.785   8.298
    1HEX    H1S 5753   8.344   8.704   8.451
    1HEX    H1T 5754   8.370   8.381   8.130
    1HEX    H1U 5755   8.265   8.439   8.002
    1HEX    H1V 5756   8.064   8.407   8.151
    1HEX    H1W 5757   8.168   8.350   8.280
    1HEX    H1Y 5758   8.568   8.486   8.350
    1HEX    H1Z 5759   8.514   8.538   8.500
    1HEX    H20 5760   8.796   8.733   8.530
    1HEX    H21 5761   8.890   8.596   8.552
    1HEX    H22 5762   8.736   8.403   8.704
    1HEX    H23 5763   8.750   8.464   8.866
    1HEX    H24 5764   9.160   8.380   8.751
    1HEX    H25 5765   9.189   8.357   8.922
    1HEX    H26 5766   9.172   8.638   8.799
    1HEX    H27 5767   9.323   8.549   8.803
    1HEX    H29 5768   8.822   8.826   8.750
    1HEX    H2A 5769   8.949   8.707   8.761
    1HEX    H2B 5770   8.846   8.664   9.163
    1HEX    H2C 5771   8.777   8.825   9.169
    1HEX    H2D 5772   9.013   8.914   9.221
    1HEX    H2E 5773   9.068   8.748   9.231
    1HEX    H2G 5774   8.533   8.609   8.685
    1HEX    H2H 5775   8.590   8.766   8.730
    1HEX    H2I 5776   8.536   8.540   9.127
    1HEX    H2J 5777   8.390   8.453   9.086
    1HEX    H2K 5778   8.280   8.671   9.018
    1HEX    H2M 5779   8.426   8.758   9.064
    1STR    S00 5780   9.178   8.572   8.051
    1STR    S0E 5781   8.510   9.421   8.536
    1STR    S0M 5782   8.154   8.189   8.101
    1STR    S0X 5783   9.255   8.615   9.022
    1STR    S14 5784   8.919   8.804   9.413
    1STR    S1B 5785   8.309   8.675   9.257
    1HEX    C01 5786   8.997   8.568  12.393
    1HEX    C02 5787   8.934   8.569  12.533
    1HEX    C03 5788   8.783   8.570  12.522
    1HEX    O04 5789   8.721   8.471  12.483
    1HEX    O05 5790   8.729   8.688  12.556
    1HEX    C06 5791   8.588   8.703  12.561
    1HEX    C07 5792   8.537   8.698  12.708
    1HEX    C08 5793   8.586   8.826  12.779
    1HEX    O09 5794   8.521   8.947  12.743
    1HEX    C0A 5795   8.459   9.018  12.838
    1HEX    O0B 5796   8.413   8.973  12.942
    1HEX    C0C 5797   8.456   9.168  12.807
    1HEX    C0D 5798   8.466   9.250  12.937
    1HEX    C0F 5799   8.382   8.697  12.709
    1HEX    O0G 5800   8.335   8.575  12.651
    1HEX    C0H 5801   8.286   8.573  12.527
    1HEX    O0I 5802   8.256   8.671  12.459
    1HEX    C0J 5803   8.276   8.432  12.471
    1HEX    C0K 5804   8.158   8.356  12.532
    1HEX    C0N 5805   8.583   8.567  12.782
    1HEX    O0O 5806   8.720   8.549  12.824
    1HEX    C0P 5807   8.787   8.630  12.921
    1HEX    C0Q 5808   8.753   8.621  13.073
    1HEX    C0R 5809   8.787   8.478  13.124
    1HEX    O0S 5810   8.928   8.454  13.120
    1HEX    C0T 5811   9.000   8.445  13.234
    1HEX    O0U 5812   8.955   8.450  13.349
    1HEX    C0V 5813   9.149   8.427  13.208
    1HEX    C0W 5814   9.226   8.560  13.212
    1HEX    C0Y 5815   8.844   8.725  13.143
    1HEX    O0Z 5816   8.825   8.719  13.283
    1HEX    C10 5817   8.903   8.791  13.363
    1HEX    O11 5818   8.992   8.867  13.325
    1HEX    C12 5819   8.868   8.769  13.509
    1HEX    C13 5820   8.981   8.812  13.603
    1HEX    C15 5821   8.606   8.659  13.107
    1HEX    O16 5822   8.568   8.639  13.243
    1HEX    C17 5823   8.494   8.533  13.278
    1HEX    O18 5824   8.462   8.440  13.205
    1HEX    C19 5825   8.449   8.542  13.423
    1HEX    C1A 5826   8.366   8.669  13.445
    1HEX    H1D 5827   8.968   8.478  12.339
    1HEX    H1E 5828   8.964   8.654  12.335
    1HEX    H1F 5829   8.966   8.657  12.590
    1HEX    H1G 5830   8.963   8.481  12.590
    1HEX    H1H 5831   8.539   8.628  12.499
    1HEX    H1I 5832   8.561   8.798  12.516
    1HEX    H1J 5833   8.690   8.844  12.752
    1HEX    H1K 5834   8.583   8.812  12.886
    1HEX    H1M 5835   8.367   9.193  12.750
    1HEX    H1N 5836   8.542   9.189  12.744
    1HEX    H1O 5837   8.543   9.209  13.003
    1HEX    H1P 5838   8.372   9.247  12.992
    1HEX    H1R 5839   8.341   8.785  12.658
    1HEX    H1S 5840   8.344   8.704  12.811
    1HEX    H1T 5841   8.370   8.381  12.490
    1HEX    H1U 5842   8.265   8.439  12.362
    1HEX    H1V 5843   8.064   8.407  12.510
    1HEX    H1W 5844   8.168   8.350  12.640
    1HEX    H1Y 5845   8.568   8.486  12.710
    1HEX    H1Z 5846   8.514   8.538  12.860
    1HEX    H20 5847   8.796   8.733  12.890
    1HEX    H21 5848   8.890   8.596  12.912
    1HEX    H22 5849   8.736   8.403  13.064
    1HEX    H23 5850   8.750   8.464  13.226
    1HEX    H24 5851   9.160   8.380  13.111
    1HEX    H25 5852   9.189   8.357  13.282
    1HEX    H26 5853   9.172   8.639  13.159
    1HEX    H27 5854   9.323   8.549  13.163
    1HEX    H29 5855   8.822   8.826  13.110
    1HEX    H2A 5856   8.949   8.707  13.121
    1HEX    H2B 5857   8.846   8.664  13.523
    1HEX    H2C 5858   8.777   8.825  13.529
    1HEX    H2D 5859   9.013   8.914  13.581
    1HEX    H2E 5860   9.068   8.748  13.591
    1HEX    H2G 5861   8.533   8.609  13.045
    1HEX    H2H 5862   8.590   8.766  13.090
    1HEX    H2I 5863   8.536   8.540  13.487
    1HEX    H2J 5864   8.390   8.453  13.446
    1HEX    H2K 5865   8.280   8.671  13.378
    1HEX    H2M 5866   8.426   8.758  13.424
    1STR    S00 5867   9.178   8.572  12.411
    1STR    S0E 5868   8.510   9.421  12.896
    1STR    S0M 5869   8.154   8.189  12.461
    1STR    S0X 5870   9.255   8.614  13.382
    1STR    S14 5871   8.919   8.804  13.774
    1STR    S1B 5872   8.309   8.675  13.617
    1HEX    C01 5873   8.997  12.928  16.753
    1HEX    C02 5874   8.934  12.930  16.893
    1HEX    C03 5875   8.783  12.930  16.882
    1HEX    O04 5876   8.721  12.831  16.843
    1HEX    O05 5877   8.729  13.048  16.916
    1HEX    C06 5878   8.588  13.063  16.921
    1HEX    C07 5879   8.537  13.058  17.068
    1HEX    C08 5880   8.586  13.186  17.139
    1HEX    O09 5881   8.521  13.307  17.102
    1HEX    C0A 5882   8.459  13.378  17.197
    1HEX    O0B 5883   8.413  13.333  17.302
    1HEX    C0C 5884   8.456  13.528  17.167
    1HEX    C0D 5885   8.466  13.610  17.297
    1HEX    C0F 5886   8.382  13.057  17.069
    1HEX    O0G 5887   8.335  12.936  17.011
    1HEX    C0H 5888   8.286  12.933  16.886
    1HEX    O0I 5889   8.256  13.032  16.819
    1HEX    C0J 5890   8.276  12.792  16.831
    1HEX    C0K 5891   8.158  12.716  16.892
    1HEX    C0N 5892   8.583  12.927  17.142
    1HEX    O0O 5893   8.720  12.909  17.184
    1HEX    C0P 5894   8.787  12.990  17.281
    1HEX    C0Q 5895   8.753  12.981  17.433
    1HEX    C0R 5896   8.787  12.838   0.044
    1HEX    O0S 5897   8.928  12.815   0.040
    1HEX    C0T 5898   9.000  12.806   0.154
    1HEX    O0U 5899   8.955  12.810   0.269
    1HEX    C0V 5900   9.149  12.788   0.128
    1HEX    C0W 5901   9.227  12.921   0.132
    1HEX    C0Y 5902   8.843  13.085   0.063
    1HEX    O0Z 5903   8.825  13.079   0.203
    1HEX    C10 5904   8.903  13.151   0.283
    1HEX    O11 5905   8.992  13.227   0.245
    1HEX    C12 5906   8.868  13.130   0.429
    1HEX    C13 5907   8.981  13.173   0.523
    1HEX    C15 5908   8.605  13.019   0.027
    1HEX    O16 5909   8.568  12.999   0.163
    1HEX    C17 5910   8.494  12.893   0.199
    1HEX    O18 5911   8.462  12.800   0.126
    1HEX    C19 5912   8.449  12.902   0.343
    1HEX    C1A 5913   8.366  13.029   0.365
    1HEX    H1D 5914   8.968  12.838  16.699
    1HEX    H1E 5915   8.964  13.014  16.695
    1HEX    H1F 5916   8.966  13.017  16.949
    1HEX    H1G 5917   8.963  12.841  16.950
    1HEX    H1H 5918   8.539  12.988  16.859
    1HEX    H1I 5919   8.561  13.158  16.876
    1HEX    H1J 5920   8.690  13.204  17.112
    1HEX    H1K 5921   8.583  13.172  17.246
    1HEX    H1M 5922   8.367  13.553  17.110
    1HEX    H1N 5923   8.543  13.549  17.104
    1HEX    H1O 5924   8.543  13.569  17.363
    1HEX    H1P 5925   8.372  13.607  17.352
    1HEX    H1R 5926   8.341  13.145  17.018
    1HEX    H1S 5927   8.344  13.064  17.171
    1HEX    H1T 5928   8.370  12.741  16.850
    1HEX    H1U 5929   8.265  12.799  16.722
    1HEX    H1V 5930   8.064  12.767  16.871
    1HEX    H1W 5931   8.168  12.710  17.000
    1HEX    H1Y 5932   8.568  12.846  17.070
    1HEX    H1Z 5933   8.514  12.898  17.220
    1HEX    H20 5934   8.796  13.093  17.250
    1HEX    H21 5935   8.890  12.956  17.272
    1HEX    H22 5936   8.736  12.763  17.424
    1HEX    H23 5937   8.750  12.824   0.146
    1HEX    H24 5938   9.160  12.740   0.031
    1HEX    H25 5939   9.189  12.718   0.202
    1HEX    H26 5940   9.172  12.999   0.079
    1HEX    H27 5941   9.323  12.910   0.083
    1HEX    H29 5942   8.822  13.186   0.030
    1HEX    H2A 5943   8.949  13.067   0.041
    1HEX    H2B 5944   8.846  13.024   0.443
    1HEX    H2C 5945   8.777  13.185   0.449
    1HEX    H2D 5946   9.013  13.274   0.501
    1HEX    H2E 5947   9.068  13.108   0.511
    1HEX    H2G 5948   8.533  12.969  17.405
    1HEX    H2H 5949   8.590  13.126   0.010
    1HEX    H2I 5950   8.536  12.900   0.407
    1HEX    H2J 5951   8.390  12.813   0.366
    1HEX    H2K 5952   8.281  13.032   0.298
    1HEX    H2M 5953   8.426  13.118   0.344
    1STR    S00 5954   9.178  12.933  16.771
    1STR    S0E 5955   8.510  13.781  17.256
    1STR    S0M 5956   8.154  12.549  16.821
    1STR    S0X 5957   9.255  12.975   0.303
    1STR    S14 5958   8.919  13.164   0.693
    1STR    S1B 5959   8.309  13.035   0.537
    1HEX    C01 5960   8.997  12.928   3.673
    1HEX    C02 5961   8.934  12.930   3.813
    1HEX    C03 5962   8.783  12.930   3.802
    1HEX    O04 5963   8.721  12.831   3.763
    1HEX    O05 5964   8.729  13.048   3.836
    1HEX    C06 5965   8.588  13.063   3.841
    1HEX    C07 5966   8.537  13.058   3.988
    1HEX    C08 5967   8.586  13.186   4.059
    1HEX    O09 5968   8.521  13.307   4.022
    1HEX    C0A 5969   8.459  13.378   4.117
    1HEX    O0B 5970   8.413  13.333   4.222
    1HEX    C0C 5971   8.456  13.528   4.087
    1HEX    C0D 5972   8.466  13.610   4.217
    1HEX    C0F 5973   8.382  13.057   3.989
    1HEX    O0G 5974   8.335  12.936   3.931
    1HEX    C0H 5975   8.286  12.933   3.806
    1HEX    O0I 5976   8.256  13.032   3.739
    1HEX    C0J 5977   8.276  12.792   3.751
    1HEX    C0K 5978   8.158  12.716   3.812
    1HEX    C0N 5979   8.583  12.927   4.062
    1HEX    O0O 5980   8.720  12.909   4.104
    1HEX    C0P 5981   8.787  12.990   4.201
    1HEX    C0Q 5982   8.753  12.981   4.353
    1HEX    C0R 5983   8.787  12.838   4.404
    1HEX    O0S 5984   8.928  12.815   4.400
    1HEX    C0T 5985   9.000  12.806   4.514
    1HEX    O0U 5986   8.955  12.810   4.629
    1HEX    C0V 5987   9.149  12.788   4.488
    1HEX    C0W 5988   9.226  12.921   4.492
    1HEX    C0Y 5989   8.843  13.085   4.423
    1HEX    O0Z 5990   8.825  13.079   4.563
    1HEX    C10 5991   8.903  13.151   4.643
    1HEX    O11 5992   8.992  13.227   4.605
    1HEX    C12 5993   8.868  13.130   4.789
    1HEX    C13 5994   8.981  13.172   4.883
    1HEX    C15 5995   8.605  13.019   4.387
    1HEX    O16 5996   8.568  12.999   4.523
    1HEX    C17 5997   8.494  12.893   4.559
    1HEX    O18 5998   8.462  12.800   4.486
    1HEX    C19 5999   8.449  12.902   4.703
    1HEX    C1A 6000   8.366  13.029   4.725
    1HEX    H1D 6001   8.968  12.838   3.619
    1HEX    H1E 6002   8.964  13.014   3.615
    1HEX    H1F 6003   8.966  13.017   3.869
    1HEX    H1G 6004   8.963  12.842   3.870
    1HEX    H1H 6005   8.539  12.988   3.779
    1HEX    H1I 6006   8.561  13.158   3.796
    1HEX    H1J 6007   8.690  13.204   4.032
    1HEX    H1K 6008   8.583  13.172   4.166
    1HEX    H1M 6009   8.367  13.553   4.030
    1HEX    H1N 6010   8.542  13.549   4.024
    1HEX    H1O 6011   8.543  13.569   4.283
    1HEX    H1P 6012   8.372  13.607   4.272
    1HEX    H1R 6013   8.341  13.145   3.938
    1HEX    H1S 6014   8.344  13.064   4.091
    1HEX    H1T 6015   8.370  12.741   3.770
    1HEX    H1U 6016   8.265  12.799   3.642
    1HEX    H1V 6017   8.064  12.767   3.791
    1HEX    H1W 6018   8.168  12.710   3.920
    1HEX    H1Y 6019   8.568  12.846   3.990
    1HEX    H1Z 6020   8.514  12.898   4.140
    1HEX    H20 6021   8.796  13.093   4.170
    1HEX    H21 6022   8.890  12.956   4.192
    1HEX    H22 6023   8.736  12.763   4.344
    1HEX    H23 6024   8.750  12.824   4.506
    1HEX    H24 6025   9.160  12.740   4.391
    1HEX    H25 6026   9.189  12.718   4.562
    1HEX    H26 6027   9.172  12.999   4.439
    1HEX    H27 6028   9.323  12.910   4.443
    1HEX    H29 6029   8.822  13.186   4.390
    1HEX    H2A 6030   8.949  13.067   4.401
    1HEX    H2B 6031   8.846  13.024   4.803
    1HEX    H2C 6032   8.777  13.185   4.809
    1HEX    H2D 6033   9.013  13.274   4.861
    1HEX    H2E 6034   9.068  13.108   4.871
    1HEX    H2G 6035   8.533  12.969   4.325
    1HEX    H2H 6036   8.590  13.126   4.370
    1HEX    H2I 6037   8.537  12.900   4.767
    1HEX    H2J 6038   8.390  12.813   4.726
    1HEX    H2K 6039   8.281  13.032   4.658
    1HEX    H2M 6040   8.426  13.118   4.704
    1STR    S00 6041   9.178  12.933   3.691
    1STR    S0E 6042   8.510  13.781   4.176
    1STR    S0M 6043   8.154  12.549   3.741
    1STR    S0X 6044   9.255  12.975   4.663
    1STR    S14 6045   8.919  13.164   5.053
    1STR    S1B 6046   8.309  13.035   4.897
    1HEX    C01 6047   9.000  12.928   8.034
    1HEX    C02 6048   8.940  12.929   8.175
    1HEX    C03 6049   8.789  12.930   8.168
    1HEX    O04 6050   8.726  12.831   8.131
    1HEX    O05 6051   8.736  13.049   8.204
    1HEX    C06 6052   8.595  13.064   8.212
    1HEX    C07 6053   8.547  13.061   8.360
    1HEX    C08 6054   8.592  13.191   8.428
    1HEX    O09 6055   8.527  13.310   8.387
    1HEX    C0A 6056   8.458  13.381   8.477
    1HEX    O0B 6057   8.407  13.335   8.580
    1HEX    C0C 6058   8.456  13.530   8.447
    1HEX    C0D 6059   8.466  13.612   8.576
    1HEX    C0F 6060   8.392  13.053   8.360
    1HEX    O0G 6061   8.349  12.931   8.299
    1HEX    C0H 6062   8.292  12.932   8.177
    1HEX    O0I 6063   8.256  13.032   8.115
    1HEX    C0J 6064   8.280  12.793   8.117
    1HEX    C0K 6065   8.160  12.717   8.174
    1HEX    C0N 6066   8.602  12.935   8.438
    1HEX    O0O 6067   8.738  12.933   8.487
    1HEX    C0P 6068   8.793  13.013   8.595
    1HEX    C0Q 6069   8.751  12.989   8.745
    1HEX    C0R 6070   8.783  12.842   8.781
    1HEX    O0S 6071   8.924  12.818   8.771
    1HEX    C0T 6072   8.999  12.801   8.882
    1HEX    O0U 6073   8.958  12.799   8.998
    1HEX    C0V 6074   9.147  12.783   8.850
    1HEX    C0W 6075   9.225  12.916   8.849
    1HEX    C0Y 6076   8.833  13.084   8.838
    1HEX    O0Z 6077   8.801  13.068   8.977
    1HEX    C10 6078   8.861  13.145   9.071
    1HEX    O11 6079   8.948  13.228   9.046
    1HEX    C12 6080   8.809  13.123   9.215
    1HEX    C13 6081   8.920  13.125   9.324
    1HEX    C15 6082   8.601  13.025   8.765
    1HEX    O16 6083   8.554  13.005   8.897
    1HEX    C17 6084   8.488  12.893   8.930
    1HEX    O18 6085   8.467  12.797   8.856
    1HEX    C19 6086   8.437  12.899   9.072
    1HEX    C1A 6087   8.357  13.028   9.094
    1HEX    H1D 6088   8.968  12.839   7.980
    1HEX    H1E 6089   8.965  13.014   7.977
    1HEX    H1F 6090   8.973  13.016   8.231
    1HEX    H1G 6091   8.970  12.841   8.231
    1HEX    H1H 6092   8.546  12.989   8.151
    1HEX    H1I 6093   8.568  13.159   8.166
    1HEX    H1J 6094   8.698  13.207   8.405
    1HEX    H1K 6095   8.584  13.179   8.535
    1HEX    H1M 6096   8.367  13.555   8.390
    1HEX    H1N 6097   8.542  13.551   8.383
    1HEX    H1O 6098   8.542  13.571   8.643
    1HEX    H1P 6099   8.372  13.610   8.631
    1HEX    H1R 6100   8.349  13.141   8.311
    1HEX    H1S 6101   8.353  13.056   8.462
    1HEX    H1T 6102   8.373  12.739   8.136
    1HEX    H1U 6103   8.271  12.803   8.009
    1HEX    H1V 6104   8.067  12.770   8.152
    1HEX    H1W 6105   8.168  12.709   8.283
    1HEX    H1Y 6106   8.597  12.852   8.367
    1HEX    H1Z 6107   8.532  12.900   8.512
    1HEX    H20 6108   8.792  13.119   8.572
    1HEX    H21 6109   8.899  12.990   8.589
    1HEX    H22 6110   8.731  12.774   8.714
    1HEX    H23 6111   8.747  12.819   8.881
    1HEX    H24 6112   9.154  12.734   8.753
    1HEX    H25 6113   9.190  12.714   8.923
    1HEX    H26 6114   9.170  12.992   8.793
    1HEX    H27 6115   9.321  12.903   8.800
    1HEX    H29 6116   8.816  13.189   8.811
    1HEX    H2A 6117   8.940  13.068   8.826
    1HEX    H2B 6118   8.758  13.027   9.218
    1HEX    H2C 6119   8.733  13.199   9.234
    1HEX    H2D 6120   9.007  13.174   9.281
    1HEX    H2E 6121   8.954  13.024   9.347
    1HEX    H2G 6122   8.535  12.973   8.697
    1HEX    H2H 6123   8.586  13.131   8.745
    1HEX    H2I 6124   8.523  12.894   9.139
    1HEX    H2J 6125   8.376  12.811   9.091
    1HEX    H2K 6126   8.273  13.034   9.024
    1HEX    H2M 6127   8.419  13.116   9.076
    1STR    S00 6128   9.180  12.932   8.048
    1STR    S0E 6129   8.510  13.783   8.535
    1STR    S0M 6130   8.155  12.552   8.101
    1STR    S0X 6131   9.254  12.976   9.018
    1STR    S14 6132   8.893  13.219   9.482
    1STR    S1B 6133   8.295  13.033   9.264
    1HEX    C01 6134   8.963  12.945  12.327
    1HEX    C02 6135   8.920  12.947  12.476
    1HEX    C03 6136   8.771  12.935  12.503
    1HEX    O04 6137   8.711  12.829  12.488
    1HEX    O05 6138   8.719  13.052  12.544
    1HEX    C06 6139   8.578  13.065  12.559
    1HEX    C07 6140   8.533  13.059  12.707
    1HEX    C08 6141   8.585  13.187  12.777
    1HEX    O09 6142   8.519  13.308  12.742
    1HEX    C0A 6143   8.459  13.379  12.838
    1HEX    O0B 6144   8.414  13.334  12.943
    1HEX    C0C 6145   8.457  13.528  12.808
    1HEX    C0D 6146   8.467  13.611  12.937
    1HEX    C0F 6147   8.378  13.058  12.712
    1HEX    O0G 6148   8.330  12.937  12.654
    1HEX    C0H 6149   8.281  12.935  12.529
    1HEX    O0I 6150   8.249  13.034  12.463
    1HEX    C0J 6151   8.274  12.795  12.471
    1HEX    C0K 6152   8.158  12.715  12.531
    1HEX    C0N 6153   8.581  12.928  12.780
    1HEX    O0O 6154   8.718  12.911  12.822
    1HEX    C0P 6155   8.785  12.991  12.920
    1HEX    C0Q 6156   8.752  12.981  13.072
    1HEX    C0R 6157   8.787  12.839  13.123
    1HEX    O0S 6158   8.928  12.816  13.119
    1HEX    C0T 6159   8.999  12.806  13.234
    1HEX    O0U 6160   8.954  12.811  13.348
    1HEX    C0V 6161   9.148  12.788  13.209
    1HEX    C0W 6162   9.226  12.921  13.213
    1HEX    C0Y 6163   8.842  13.085  13.142
    1HEX    O0Z 6164   8.824  13.080  13.282
    1HEX    C10 6165   8.903  13.150  13.362
    1HEX    O11 6166   8.994  13.225  13.325
    1HEX    C12 6167   8.868  13.129  13.508
    1HEX    C13 6168   8.981  13.172  13.602
    1HEX    C15 6169   8.604  13.019  13.106
    1HEX    O16 6170   8.567  13.000  13.242
    1HEX    C17 6171   8.494  12.893  13.279
    1HEX    O18 6172   8.462  12.799  13.206
    1HEX    C19 6173   8.449  12.902  13.423
    1HEX    C1A 6174   8.366  13.030  13.445
    1HEX    H1D 6175   9.014  12.851  12.308
    1HEX    H1E 6176   9.035  13.025  12.309
    1HEX    H1F 6177   8.954  13.039  12.523
    1HEX    H1G 6178   8.968  12.866  12.531
    1HEX    H1H 6179   8.529  12.990  12.498
    1HEX    H1I 6180   8.549  13.160  12.515
    1HEX    H1J 6181   8.688  13.203  12.748
    1HEX    H1K 6182   8.584  13.173  12.884
    1HEX    H1M 6183   8.368  13.554  12.751
    1HEX    H1N 6184   8.543  13.549  12.744
    1HEX    H1O 6185   8.544  13.571  13.003
    1HEX    H1P 6186   8.373  13.607  12.993
    1HEX    H1R 6187   8.336  13.146  12.662
    1HEX    H1S 6188   8.342  13.064  12.815
    1HEX    H1T 6189   8.370  12.745  12.491
    1HEX    H1U 6190   8.265  12.802  12.363
    1HEX    H1V 6191   8.063  12.765  12.510
    1HEX    H1W 6192   8.168  12.708  12.639
    1HEX    H1Y 6193   8.566  12.847  12.708
    1HEX    H1Z 6194   8.513  12.898  12.858
    1HEX    H20 6195   8.794  13.094  12.889
    1HEX    H21 6196   8.889  12.957  12.910
    1HEX    H22 6197   8.736  12.763  13.063
    1HEX    H23 6198   8.749  12.825  13.225
    1HEX    H24 6199   9.159  12.741  13.111
    1HEX    H25 6200   9.188  12.718  13.282
    1HEX    H26 6201   9.171  13.000  13.161
    1HEX    H27 6202   9.322  12.911  13.163
    1HEX    H29 6203   8.821  13.187  13.109
    1HEX    H2A 6204   8.947  13.068  13.119
    1HEX    H2B 6205   8.846  13.023  13.522
    1HEX    H2C 6206   8.777  13.185  13.528
    1HEX    H2D 6207   9.013  13.274  13.580
    1HEX    H2E 6208   9.068  13.108  13.590
    1HEX    H2G 6209   8.532  12.968  13.044
    1HEX    H2H 6210   8.588  13.125  13.089
    1HEX    H2I 6211   8.537  12.901  13.487
    1HEX    H2J 6212   8.390  12.813  13.447
    1HEX    H2K 6213   8.280  13.032  13.378
    1HEX    H2M 6214   8.426  13.118  13.424
    1STR    S00 6215   8.832  12.959  12.200
    1STR    S0E 6216   8.508  13.783  12.896
    1STR    S0M 6217   8.157  12.549  12.458
    1STR    S0X 6218   9.256  12.974  13.384
    1STR    S14 6219   8.919  13.164  13.773
    1STR    S1B 6220   8.309  13.035  13.617
    1HEX    C01 6221  13.357  17.288  16.753
    1HEX    C02 6222  13.294  17.289  16.893
    1HEX    C03 6223  13.143  17.290  16.882
    1HEX    O04 6224  13.081  17.190  16.843
    1HEX    O05 6225  13.089  17.408  16.916
    1HEX    C06 6226  12.948  17.423  16.921
    1HEX    C07 6227  12.897  17.418  17.068
    1HEX    C08 6228  12.946   0.106  17.139
    1HEX    O09 6229  12.881   0.227  17.102
    1HEX    C0A 6230  12.818   0.298  17.197
    1HEX    O0B 6231  12.772   0.252  17.302
    1HEX    C0C 6232  12.816   0.447  17.167
    1HEX    C0D 6233  12.826   0.530  17.297
    1HEX    C0F 6234  12.742  17.417  17.069
    1HEX    O0G 6235  12.695  17.295  17.011
    1HEX    C0H 6236  12.646  17.293  16.887
    1HEX    O0I 6237  12.616  17.391  16.819
    1HEX    C0J 6238  12.636  17.152  16.831
    1HEX    C0K 6239  12.518  17.076  16.892
    1HEX    C0N 6240  12.943  17.287  17.142
    1HEX    O0O 6241  13.080  17.268  17.184
    1HEX    C0P 6242  13.147  17.350  17.281
    1HEX    C0Q 6243  13.113  17.340  17.433
    1HEX    C0R 6244  13.147  17.198   0.044
    1HEX    O0S 6245  13.288  17.174   0.040
    1HEX    C0T 6246  13.360  17.165   0.154
    1HEX    O0U 6247  13.315  17.170   0.269
    1HEX    C0V 6248  13.509  17.147   0.128
    1HEX    C0W 6249  13.586  17.280   0.132
    1HEX    C0Y 6250  13.203   0.004   0.063
    1HEX    O0Z 6251  13.185  17.439   0.203
    1HEX    C10 6252  13.263   0.070   0.283
    1HEX    O11 6253  13.352   0.147   0.245
    1HEX    C12 6254  13.228   0.049   0.429
    1HEX    C13 6255  13.341   0.092   0.523
    1HEX    C15 6256  12.965  17.379   0.027
    1HEX    O16 6257  12.928  17.359   0.163
    1HEX    C17 6258  12.854  17.253   0.198
    1HEX    O18 6259  12.822  17.159   0.126
    1HEX    C19 6260  12.809  17.261   0.343
    1HEX    C1A 6261  12.726  17.389   0.365
    1HEX    H1D 6262  13.328  17.198  16.699
    1HEX    H1E 6263  13.324  17.374  16.695
    1HEX    H1F 6264  13.326  17.377  16.949
    1HEX    H1G 6265  13.323  17.201  16.950
    1HEX    H1H 6266  12.899  17.347  16.859
    1HEX    H1I 6267  12.921   0.078  16.876
    1HEX    H1J 6268  13.050   0.124  17.112
    1HEX    H1K 6269  12.943   0.092  17.246
    1HEX    H1M 6270  12.727   0.473  17.110
    1HEX    H1N 6271  12.902   0.468  17.104
    1HEX    H1O 6272  12.903   0.489  17.363
    1HEX    H1P 6273  12.732   0.527  17.352
    1HEX    H1R 6274  12.701   0.065  17.018
    1HEX    H1S 6275  12.704  17.423  17.171
    1HEX    H1T 6276  12.730  17.100  16.850
    1HEX    H1U 6277  12.625  17.158  16.722
    1HEX    H1V 6278  12.424  17.127  16.870
    1HEX    H1W 6279  12.528  17.069  17.000
    1HEX    H1Y 6280  12.928  17.205  17.070
    1HEX    H1Z 6281  12.874  17.258  17.220
    1HEX    H20 6282  13.155   0.013  17.250
    1HEX    H21 6283  13.250  17.316  17.272
    1HEX    H22 6284  13.096  17.122  17.424
    1HEX    H23 6285  13.110  17.184   0.146
    1HEX    H24 6286  13.520  17.100   0.031
    1HEX    H25 6287  13.549  17.077   0.202
    1HEX    H26 6288  13.532  17.359   0.079
    1HEX    H27 6289  13.683  17.269   0.083
    1HEX    H29 6290  13.182   0.106   0.030
    1HEX    H2A 6291  13.309  17.427   0.040
    1HEX    H2B 6292  13.206  17.383   0.443
    1HEX    H2C 6293  13.137   0.104   0.449
    1HEX    H2D 6294  13.373   0.194   0.501
    1HEX    H2E 6295  13.428   0.028   0.511
    1HEX    H2G 6296  12.893  17.328  17.405
    1HEX    H2H 6297  12.950   0.045   0.010
    1HEX    H2I 6298  12.896  17.259   0.407
    1HEX    H2J 6299  12.750  17.173   0.366
    1HEX    H2K 6300  12.640  17.391   0.298
    1HEX    H2M 6301  12.786   0.037   0.344
    1STR    S00 6302  13.538  17.293  16.771
    1STR    S0E 6303  12.870   0.701  17.256
    1STR    S0M 6304  12.514  16.909  16.821
    1STR    S0X 6305  13.615  17.334   0.303
    1STR    S14 6306  13.279   0.084   0.693
    1STR    S1B 6307  12.669  17.394   0.537
    1HEX    C01 6308  13.351  17.291   3.678
    1HEX    C02 6309  13.288  17.298   3.818
    1HEX    C03 6310  13.137  17.310   3.807
    1HEX    O04 6311  13.069  17.217   3.763
    1HEX    O05 6312  13.090  17.429   3.849
    1HEX    C06 6313  12.950   0.014   3.851
    1HEX    C07 6314  12.892   0.005   3.994
    1HEX    C08 6315  12.933   0.132   4.075
    1HEX    O09 6316  12.877   0.260   4.042
    1HEX    C0A 6317  12.867   0.354   4.142
    1HEX    O0B 6318  12.863   0.327   4.262
    1HEX    C0C 6319  12.865   0.501   4.095
    1HEX    C0D 6320  12.892   0.602   4.212
    1HEX    C0F 6321  12.737   0.000   3.986
    1HEX    O0G 6322  12.695  17.315   3.931
    1HEX    C0H 6323  12.648  17.306   3.806
    1HEX    O0I 6324  12.616  17.401   3.735
    1HEX    C0J 6325  12.642  17.163   3.755
    1HEX    C0K 6326  12.523  17.086   3.815
    1HEX    C0N 6327  12.935  17.311   4.064
    1HEX    O0O 6328  13.071  17.284   4.105
    1HEX    C0P 6329  13.143  17.360   4.202
    1HEX    C0Q 6330  13.113  17.346   4.355
    1HEX    C0R 6331  13.147  17.202   4.402
    1HEX    O0S 6332  13.288  17.178   4.397
    1HEX    C0T 6333  13.360  17.166   4.512
    1HEX    O0U 6334  13.314  17.168   4.626
    1HEX    C0V 6335  13.509  17.148   4.486
    1HEX    C0W 6336  13.586  17.281   4.492
    1HEX    C0Y 6337  13.205   0.008   4.425
    1HEX    O0Z 6338  13.188   0.000   4.565
    1HEX    C10 6339  13.266   0.071   4.645
    1HEX    O11 6340  13.357   0.146   4.608
    1HEX    C12 6341  13.230   0.050   4.791
    1HEX    C13 6342  13.342   0.093   4.886
    1HEX    C15 6343  12.967  17.384   4.392
    1HEX    O16 6344  12.931  17.361   4.527
    1HEX    C17 6345  12.855  17.255   4.560
    1HEX    O18 6346  12.821  17.164   4.485
    1HEX    C19 6347  12.809  17.261   4.705
    1HEX    C1A 6348  12.726  17.388   4.727
    1HEX    H1D 6349  13.318  17.201   3.626
    1HEX    H1E 6350  13.320  17.376   3.617
    1HEX    H1F 6351  13.326  17.384   3.873
    1HEX    H1G 6352  13.312  17.209   3.875
    1HEX    H1H 6353  12.899  17.385   3.783
    1HEX    H1I 6354  12.931   0.113   3.809
    1HEX    H1J 6355  13.040   0.148   4.062
    1HEX    H1K 6356  12.916   0.110   4.180
    1HEX    H1M 6357  12.768   0.522   4.048
    1HEX    H1N 6358  12.941   0.513   4.018
    1HEX    H1O 6359  12.992   0.584   4.252
    1HEX    H1P 6360  12.825   0.581   4.295
    1HEX    H1R 6361  12.697   0.085   3.931
    1HEX    H1S 6362  12.694   0.008   4.086
    1HEX    H1T 6363  12.736  17.113   3.779
    1HEX    H1U 6364  12.634  17.165   3.646
    1HEX    H1V 6365  12.429  17.137   3.792
    1HEX    H1W 6366  12.531  17.080   3.923
    1HEX    H1Y 6367  12.919  17.232   3.991
    1HEX    H1Z 6368  12.865  17.280   4.141
    1HEX    H20 6369  13.152   0.024   4.174
    1HEX    H21 6370  13.246  17.324   4.189
    1HEX    H22 6371  13.096  17.128   4.340
    1HEX    H23 6372  13.110  17.185   4.503
    1HEX    H24 6373  13.520  17.101   4.389
    1HEX    H25 6374  13.548  17.077   4.559
    1HEX    H26 6375  13.532  17.360   4.440
    1HEX    H27 6376  13.683  17.270   4.442
    1HEX    H29 6377  13.184   0.110   4.393
    1HEX    H2A 6378  13.310  17.430   4.401
    1HEX    H2B 6379  13.207  17.384   4.804
    1HEX    H2C 6380  13.138   0.105   4.810
    1HEX    H2D 6381  13.373   0.195   4.864
    1HEX    H2E 6382  13.429   0.029   4.873
    1HEX    H2G 6383  12.894  17.335   4.329
    1HEX    H2H 6384  12.952   0.051   4.378
    1HEX    H2I 6385  12.896  17.259   4.770
    1HEX    H2J 6386  12.750  17.172   4.727
    1HEX    H2K 6387  12.641  17.391   4.659
    1HEX    H2M 6388  12.786   0.037   4.707
    1STR    S00 6389  13.531  17.291   3.695
    1STR    S0E 6390  12.873   0.781   4.172
    1STR    S0M 6391  12.520  16.919   3.744
    1STR    S0X 6392  13.616  17.332   4.664
    1STR    S14 6393  13.279   0.083   5.056
    1STR    S1B 6394  12.667  17.392   4.898
    1HEX    C01 6395  13.348  17.291   8.031
    1HEX    C02 6396  13.280  17.293   8.168
    1HEX    C03 6397  13.130  17.273   8.155
    1HEX    O04 6398  13.082  17.166   8.119
    1HEX    O05 6399  13.060  17.383   8.190
    1HEX    C06 6400  12.920  17.373   8.214
    1HEX    C07 6401  12.892  17.368   8.366
    1HEX    C08 6402  12.922   0.070   8.422
    1HEX    O09 6403  12.841   0.181   8.385
    1HEX    C0A 6404  12.806   0.268   8.483
    1HEX    O0B 6405  12.779   0.237   8.599
    1HEX    C0C 6406  12.814   0.415   8.441
    1HEX    C0D 6407  12.826   0.508   8.563
    1HEX    C0F 6408  12.743  17.326   8.392
    1HEX    O0G 6409  12.733  17.183   8.412
    1HEX    C0H 6410  12.705  17.099   8.311
    1HEX    O0I 6411  12.649  17.133   8.207
    1HEX    C0J 6412  12.759  16.956   8.330
    1HEX    C0K 6413  12.698  16.867   8.442
    1HEX    C0N 6414  12.981  17.260   8.438
    1HEX    O0O 6415  13.119  17.285   8.462
    1HEX    C0P 6416  13.164  17.371   8.568
    1HEX    C0Q 6417  13.122  17.349   8.717
    1HEX    C0R 6418  13.154  17.204   8.760
    1HEX    O0S 6419  13.294  17.179   8.758
    1HEX    C0T 6420  13.363  17.165   8.873
    1HEX    O0U 6421  13.316  17.166   8.987
    1HEX    C0V 6422  13.512  17.146   8.849
    1HEX    C0W 6423  13.590  17.279   8.852
    1HEX    C0Y 6424  13.211   0.009   8.794
    1HEX    O0Z 6425  13.190  17.439   8.933
    1HEX    C10 6426  13.264   0.073   9.014
    1HEX    O11 6427  13.351   0.154   8.979
    1HEX    C12 6428  13.228   0.049   9.160
    1HEX    C13 6429  13.341   0.092   9.254
    1HEX    C15 6430  12.974  17.388   8.749
    1HEX    O16 6431  12.934  17.364   8.883
    1HEX    C17 6432  12.859  17.257   8.914
    1HEX    O18 6433  12.828  17.166   8.837
    1HEX    C19 6434  12.811  17.261   9.058
    1HEX    C1A 6435  12.727  17.388   9.082
    1HEX    H1D 6436  13.323  17.199   7.977
    1HEX    H1E 6437  13.314  17.375   7.970
    1HEX    H1F 6438  13.300  17.385   8.221
    1HEX    H1G 6439  13.317  17.211   8.230
    1HEX    H1H 6440  12.876  17.287   8.162
    1HEX    H1I 6441  12.872   0.020   8.169
    1HEX    H1J 6442  13.022   0.099   8.389
    1HEX    H1K 6443  12.928   0.064   8.529
    1HEX    H1M 6444  12.728   0.442   8.380
    1HEX    H1N 6445  12.902   0.427   8.378
    1HEX    H1O 6446  12.902   0.472   8.633
    1HEX    H1P 6447  12.732   0.512   8.619
    1HEX    H1R 6448  12.677  17.361   8.313
    1HEX    H1S 6449  12.706  17.374   8.483
    1HEX    H1T 6450  12.867  16.964   8.342
    1HEX    H1U 6451  12.746  16.905   8.234
    1HEX    H1V 6452  12.636  16.790   8.396
    1HEX    H1W 6453  12.631  16.925   8.505
    1HEX    H1Y 6454  12.981  17.173   8.373
    1HEX    H1Z 6455  12.936  17.220   8.528
    1HEX    H20 6456  13.154   0.035   8.540
    1HEX    H21 6457  13.272  17.355   8.563
    1HEX    H22 6458  13.104  17.132   8.695
    1HEX    H23 6459  13.114  17.185   8.860
    1HEX    H24 6460  13.524  17.098   8.752
    1HEX    H25 6461  13.552  17.077   8.924
    1HEX    H26 6462  13.536  17.356   8.796
    1HEX    H27 6463  13.687  17.268   8.805
    1HEX    H29 6464  13.191   0.112   8.764
    1HEX    H2A 6465  13.317  17.432   8.774
    1HEX    H2B 6466  13.206  17.383   9.172
    1HEX    H2C 6467  13.137   0.104   9.180
    1HEX    H2D 6468  13.372   0.194   9.233
    1HEX    H2E 6469  13.428   0.028   9.240
    1HEX    H2G 6470  12.900  17.344   8.683
    1HEX    H2H 6471  12.962   0.056   8.737
    1HEX    H2I 6472  12.898  17.259   9.124
    1HEX    H2J 6473  12.752  17.172   9.078
    1HEX    H2K 6474  12.641  17.390   9.015
    1HEX    H2M 6475  12.786   0.037   9.061
    1STR    S00 6476  13.527  17.300   8.055
    1STR    S0E 6477  12.871   0.675   8.509
    1STR    S0M 6478  12.825  16.782   8.548
    1STR    S0X 6479  13.615  17.336   9.022
    1STR    S14 6480  13.280   0.081   9.425
    1STR    S1B 6481  12.671  17.391   9.254
    1HEX    C01 6482  13.358  17.290  12.388
    1HEX    C02 6483  13.292  17.291  12.526
    1HEX    C03 6484  13.142  17.271  12.514
    1HEX    O04 6485  13.095  17.163  12.479
    1HEX    O05 6486  13.072  17.381  12.549
    1HEX    C06 6487  12.932  17.370  12.570
    1HEX    C07 6488  12.901  17.355  12.722
    1HEX    C08 6489  12.913   0.057  12.784
    1HEX    O09 6490  12.830   0.167  12.745
    1HEX    C0A 6491  12.802   0.259  12.841
    1HEX    O0B 6492  12.778   0.232  12.959
    1HEX    C0C 6493  12.813   0.405  12.796
    1HEX    C0D 6494  12.826   0.501  12.916
    1HEX    C0F 6495  12.760  17.289  12.740
    1HEX    O0G 6496  12.773  17.145  12.747
    1HEX    C0H 6497  12.767  17.067  12.636
    1HEX    O0I 6498  12.709  17.101  12.533
    1HEX    C0J 6499  12.848  16.935  12.640
    1HEX    C0K 6500  12.857  16.851  12.772
    1HEX    C0N 6501  12.999  17.258  12.797
    1HEX    O0O 6502  13.134  17.295  12.822
    1HEX    C0P 6503  13.171  17.381  12.931
    1HEX    C0Q 6504  13.127  17.353  13.078
    1HEX    C0R 6505  13.159  17.207  13.119
    1HEX    O0S 6506  13.300  17.182  13.117
    1HEX    C0T 6507  13.367  17.166  13.233
    1HEX    O0U 6508  13.319  17.165  13.346
    1HEX    C0V 6509  13.516  17.147  13.210
    1HEX    C0W 6510  13.593  17.280  13.212
    1HEX    C0Y 6511  13.214   0.012  13.159
    1HEX    O0Z 6512  13.192  -0.000  13.298
    1HEX    C10 6513  13.264   0.074  13.380
    1HEX    O11 6514  13.350   0.156  13.346
    1HEX    C12 6515  13.228   0.050  13.525
    1HEX    C13 6516  13.341   0.092  13.620
    1HEX    C15 6517  12.978  17.388  13.109
    1HEX    O16 6518  12.937  17.363  13.242
    1HEX    C17 6519  12.861  17.257  13.272
    1HEX    O18 6520  12.830  17.167  13.195
    1HEX    C19 6521  12.812  17.261  13.416
    1HEX    C1A 6522  12.728  17.387  13.440
    1HEX    H1D 6523  13.332  17.199  12.334
    1HEX    H1E 6524  13.324  17.375  12.328
    1HEX    H1F 6525  13.312  17.384  12.580
    1HEX    H1G 6526  13.330  17.210  12.588
    1HEX    H1H 6527  12.890  17.288  12.511
    1HEX    H1I 6528  12.885   0.020  12.531
    1HEX    H1J 6529  13.013   0.094  12.762
    1HEX    H1K 6530  12.907   0.046  12.891
    1HEX    H1M 6531  12.728   0.432  12.734
    1HEX    H1N 6532  12.902   0.413  12.734
    1HEX    H1O 6533  12.901   0.466  12.987
    1HEX    H1P 6534  12.732   0.507  12.972
    1HEX    H1R 6535  12.690  17.321  12.662
    1HEX    H1S 6536  12.715  17.323  12.833
    1HEX    H1T 6537  12.948  16.962  12.607
    1HEX    H1U 6538  12.808  16.872  12.560
    1HEX    H1V 6539  12.768  16.788  12.779
    1HEX    H1W 6540  12.854  16.916  12.859
    1HEX    H1Y 6541  13.010  17.170  12.733
    1HEX    H1Z 6542  12.956  17.216  12.887
    1HEX    H20 6543  13.154   0.045  12.905
    1HEX    H21 6544  13.280  17.372  12.927
    1HEX    H22 6545  13.110  17.136  13.052
    1HEX    H23 6546  13.118  17.185  13.217
    1HEX    H24 6547  13.528  17.098  13.113
    1HEX    H25 6548  13.555  17.078  13.285
    1HEX    H26 6549  13.539  17.357  13.157
    1HEX    H27 6550  13.691  17.269  13.165
    1HEX    H29 6551  13.193   0.115  13.130
    1HEX    H2A 6552  13.320  17.436  13.140
    1HEX    H2B 6553  13.206  17.383  13.537
    1HEX    H2C 6554  13.137   0.105  13.545
    1HEX    H2D 6555  13.373   0.194  13.599
    1HEX    H2E 6556  13.428   0.028  13.605
    1HEX    H2G 6557  12.908  17.339  13.043
    1HEX    H2H 6558  12.963   0.055  13.095
    1HEX    H2I 6559  12.898  17.258  13.482
    1HEX    H2J 6560  12.753  17.171  13.436
    1HEX    H2K 6561  12.641  17.389  13.373
    1HEX    H2M 6562  12.786   0.037  13.418
    1STR    S00 6563  13.538  17.298  12.410
    1STR    S0E 6564  12.873   0.666  12.859
    1STR    S0M 6565  13.008  16.741  12.783
    1STR    S0X 6566  13.617  17.338  13.383
    1STR    S14 6567  13.280   0.081  13.790
    1STR    S1B 6568  12.673  17.391  13.612
    1HEX    C01 6569  13.291   4.228  16.714
    1HEX    C02 6570  13.298   4.275  16.860
    1HEX    C03 6571  13.158   4.263  16.920
    1HEX    O04 6572  13.104   4.152  16.927
    1HEX    O05 6573  13.101   4.381  16.946
    1HEX    C06 6574  12.960   4.391  16.944
    1HEX    C07 6575  12.893   4.386  17.084
    1HEX    C08 6576  12.933   4.511  17.170
    1HEX    O09 6577  12.890   4.647  17.143
    1HEX    C0A 6578  12.896   4.738  17.248
    1HEX    O0B 6579  12.897   4.704  17.367
    1HEX    C0C 6580  12.906   4.889  17.212
    1HEX    C0D 6581  12.946   4.979  17.337
    1HEX    C0F 6582  12.739   4.383  17.063
    1HEX    O0G 6583  12.701   4.255  17.010
    1HEX    C0H 6584  12.648   4.242  16.887
    1HEX    O0I 6585  12.603   4.334  16.819
    1HEX    C0J 6586  12.650   4.098  16.836
    1HEX    C0K 6587  12.532   4.016  16.891
    1HEX    C0N 6588  12.927   4.250  17.156
    1HEX    O0O 6589  13.058   4.211  17.199
    1HEX    C0P 6590  13.140   4.285  17.289
    1HEX    C0Q 6591  13.113   4.270   0.002
    1HEX    C0R 6592  13.148   4.126   0.047
    1HEX    O0S 6593  13.289   4.102   0.041
    1HEX    C0T 6594  13.360   4.088   0.154
    1HEX    O0U 6595  13.316   4.089   0.269
    1HEX    C0V 6596  13.509   4.069   0.128
    1HEX    C0W 6597  13.587   4.202   0.133
    1HEX    C0Y 6598  13.207   4.372   0.070
    1HEX    O0Z 6599  13.190   4.364   0.210
    1HEX    C10 6600  13.269   4.433   0.289
    1HEX    O11 6601  13.360   4.508   0.253
    1HEX    C12 6602  13.232   4.412   0.435
    1HEX    C13 6603  13.344   4.454   0.530
    1HEX    C15 6604  12.967   4.308   0.040
    1HEX    O16 6605  12.932   4.283   0.175
    1HEX    C17 6606  12.857   4.177   0.207
    1HEX    O18 6607  12.824   4.085   0.132
    1HEX    C19 6608  12.808   4.183   0.351
    1HEX    C1A 6609  12.725   4.310   0.372
    1HEX    H1D 6610  13.366   4.153  16.689
    1HEX    H1E 6611  13.197   4.175  16.706
    1HEX    H1F 6612  13.337   4.376  16.872
    1HEX    H1G 6613  13.361   4.208  16.918
    1HEX    H1H 6614  12.919   4.313  16.879
    1HEX    H1I 6615  12.934   4.484  16.894
    1HEX    H1J 6616  13.041   4.522  17.164
    1HEX    H1K 6617  12.908   4.486  17.273
    1HEX    H1M 6618  12.810   4.921  17.170
    1HEX    H1N 6619  12.980   4.900  17.133
    1HEX    H1O 6620  13.045   4.950  17.372
    1HEX    H1P 6621  12.879   4.954  17.419
    1HEX    H1R 6622  12.705   4.466  17.001
    1HEX    H1S 6623  12.687   4.394  17.159
    1HEX    H1T 6624  12.745   4.052  16.863
    1HEX    H1U 6625  12.647   4.101  16.727
    1HEX    H1V 6626  12.437   4.064  16.866
    1HEX    H1W 6627  12.538   4.007  16.999
    1HEX    H1Y 6628  12.908   4.171  17.083
    1HEX    H1Z 6629  12.851   4.224  17.229
    1HEX    H20 6630  13.152   4.388  17.259
    1HEX    H21 6631  13.239   4.244  17.272
    1HEX    H22 6632  13.096   4.053  17.424
    1HEX    H23 6633  13.111   4.108   0.147
    1HEX    H24 6634  13.519   4.023   0.029
    1HEX    H25 6635  13.549   3.998   0.200
    1HEX    H26 6636  13.532   4.281   0.083
    1HEX    H27 6637  13.683   4.192   0.082
    1HEX    H29 6638  13.185   4.474   0.039
    1HEX    H2A 6639  13.311   4.354   0.045
    1HEX    H2B 6640  13.209   4.306   0.448
    1HEX    H2C 6641  13.140   4.468   0.454
    1HEX    H2D 6642  13.375   4.556   0.509
    1HEX    H2E 6643  13.431   4.390   0.517
    1HEX    H2G 6644  12.896   4.256  17.418
    1HEX    H2H 6645  12.951   4.414   0.025
    1HEX    H2I 6646  12.895   4.181   0.417
    1HEX    H2J 6647  12.749   4.094   0.372
    1HEX    H2K 6648  12.640   4.312   0.302
    1HEX    H2M 6649  12.785   4.399   0.352
    1STR    S00 6650  13.274   4.352  16.581
    1STR    S0E 6651  12.939   5.165  17.323
    1STR    S0M 6652  12.537   3.851  16.816
    1STR    S0X 6653  13.618   4.252   0.305
    1STR    S14 6654  13.281   4.443   0.700
    1STR    S1B 6655  12.663   4.314   0.542
    1HEX    C01 6656  13.350   4.208   3.673
    1HEX    C02 6657  13.284   4.208   3.811
    1HEX    C03 6658  13.134   4.196   3.799
    1HEX    O04 6659  13.081   4.091   3.761
    1HEX    O05 6660  13.069   4.308   3.834
    1HEX    C06 6661  12.928   4.307   3.848
    1HEX    C07 6662  12.889   4.299   3.998
    1HEX    C08 6663  12.922   4.437   4.060
    1HEX    O09 6664  12.844   4.551   4.024
    1HEX    C0A 6665  12.807   4.636   4.123
    1HEX    O0B 6666  12.779   4.603   4.238
    1HEX    C0C 6667  12.813   4.783   4.083
    1HEX    C0D 6668  12.825   4.875   4.206
    1HEX    C0F 6669  12.737   4.265   4.011
    1HEX    O0G 6670  12.719   4.123   3.999
    1HEX    C0H 6671  12.687   4.065   3.882
    1HEX    O0I 6672  12.634   4.124   3.788
    1HEX    C0J 6673  12.733   3.920   3.870
    1HEX    C0K 6674  12.717   3.831   3.996
    1HEX    C0N 6675  12.964   4.183   4.074
    1HEX    O0O 6676  13.101   4.197   4.111
    1HEX    C0P 6677  13.147   4.283   4.215
    1HEX    C0Q 6678  13.100   4.268   4.364
    1HEX    C0R 6679  13.132   4.124   4.415
    1HEX    O0S 6680  13.272   4.098   4.408
    1HEX    C0T 6681  13.347   4.089   4.520
    1HEX    O0U 6682  13.305   4.097   4.636
    1HEX    C0V 6683  13.495   4.068   4.491
    1HEX    C0W 6684  13.576   4.199   4.492
    1HEX    C0Y 6685  13.188   4.370   4.440
    1HEX    O0Z 6686  13.167   4.365   4.579
    1HEX    C10 6687  13.251   4.432   4.657
    1HEX    O11 6688  13.342   4.505   4.619
    1HEX    C12 6689  13.221   4.408   4.804
    1HEX    C13 6690  13.338   4.451   4.894
    1HEX    C15 6691  12.951   4.307   4.389
    1HEX    O16 6692  12.891   4.275   4.515
    1HEX    C17 6693  12.783   4.193   4.518
    1HEX    O18 6694  12.755   4.109   4.433
    1HEX    C19 6695  12.690   4.219   4.637
    1HEX    C1A 6696  12.565   4.302   4.596
    1HEX    H1D 6697  13.324   4.117   3.618
    1HEX    H1E 6698  13.316   4.293   3.614
    1HEX    H1F 6699  13.309   4.298   3.867
    1HEX    H1G 6700  13.319   4.124   3.871
    1HEX    H1H 6701  12.883   4.227   3.790
    1HEX    H1I 6702  12.889   4.399   3.804
    1HEX    H1J 6703  13.023   4.464   4.032
    1HEX    H1K 6704  12.923   4.428   4.168
    1HEX    H1M 6705  12.727   4.810   4.022
    1HEX    H1N 6706  12.901   4.796   4.020
    1HEX    H1O 6707  12.901   4.837   4.275
    1HEX    H1P 6708  12.731   4.878   4.262
    1HEX    H1R 6709  12.677   4.321   3.938
    1HEX    H1S 6710  12.699   4.296   4.108
    1HEX    H1T 6711  12.839   3.924   3.844
    1HEX    H1U 6712  12.683   3.875   3.784
    1HEX    H1V 6713  12.611   3.812   4.015
    1HEX    H1W 6714  12.757   3.880   4.085
    1HEX    H1Y 6715  12.964   4.098   4.006
    1HEX    H1Z 6716  12.908   4.143   4.158
    1HEX    H20 6717  13.144   4.387   4.185
    1HEX    H21 6718  13.254   4.263   4.214
    1HEX    H22 6719  13.079   4.050   4.354
    1HEX    H23 6720  13.094   4.111   4.516
    1HEX    H24 6721  13.502   4.020   4.393
    1HEX    H25 6722  13.535   3.997   4.563
    1HEX    H26 6723  13.522   4.278   4.440
    1HEX    H27 6724  13.671   4.186   4.441
    1HEX    H29 6725  13.169   4.472   4.406
    1HEX    H2A 6726  13.294   4.352   4.420
    1HEX    H2B 6727  13.200   4.302   4.817
    1HEX    H2C 6728  13.131   4.463   4.828
    1HEX    H2D 6729  13.370   4.553   4.870
    1HEX    H2E 6730  13.424   4.386   4.879
    1HEX    H2G 6731  12.885   4.271   4.311
    1HEX    H2H 6732  12.941   4.416   4.383
    1HEX    H2I 6733  12.747   4.270   4.715
    1HEX    H2J 6734  12.661   4.122   4.679
    1HEX    H2K 6735  12.573   4.331   4.491
    1HEX    H2M 6736  12.560   4.395   4.652
    1STR    S00 6737  13.530   4.217   3.695
    1STR    S0E 6738  12.871   5.042   4.154
    1STR    S0M 6739  12.801   3.669   3.970
    1STR    S0X 6740  13.610   4.253   4.662
    1STR    S14 6741  13.283   4.445   5.067
    1STR    S1B 6742  12.405   4.214   4.616
    1HEX    C01 6743  13.356   4.207   8.035
    1HEX    C02 6744  13.293   4.209   8.175
    1HEX    C03 6745  13.141   4.209   8.165
    1HEX    O04 6746  13.081   4.109   8.125
    1HEX    O05 6747  13.087   4.326   8.201
    1HEX    C06 6748  12.945   4.340   8.205
    1HEX    C07 6749  12.893   4.336   8.351
    1HEX    C08 6750  12.943   4.464   8.421
    1HEX    O09 6751  12.879   4.585   8.384
    1HEX    C0A 6752  12.817   4.657   8.479
    1HEX    O0B 6753  12.770   4.613   8.584
    1HEX    C0C 6754  12.816   4.806   8.448
    1HEX    C0D 6755  12.826   4.890   8.577
    1HEX    C0F 6756  12.738   4.336   8.351
    1HEX    O0G 6757  12.691   4.215   8.292
    1HEX    C0H 6758  12.643   4.214   8.167
    1HEX    O0I 6759  12.616   4.313   8.099
    1HEX    C0J 6760  12.632   4.073   8.111
    1HEX    C0K 6761  12.515   3.997   8.175
    1HEX    C0N 6762  12.937   4.203   8.424
    1HEX    O0O 6763  13.071   4.186   8.474
    1HEX    C0P 6764  13.131   4.268   8.575
    1HEX    C0Q 6765  13.085   4.265   8.725
    1HEX    C0R 6766  13.114   4.124   8.784
    1HEX    O0S 6767  13.254   4.094   8.775
    1HEX    C0T 6768  13.333   4.091   8.884
    1HEX    O0U 6769  13.296   4.104   9.001
    1HEX    C0V 6770  13.481   4.069   8.850
    1HEX    C0W 6771  13.565   4.199   8.852
    1HEX    C0Y 6772  13.175   4.369   8.795
    1HEX    O0Z 6773  13.155   4.369   8.935
    1HEX    C10 6774  13.245   4.430   9.012
    1HEX    O11 6775  13.340   4.498   8.971
    1HEX    C12 6776  13.218   4.408   9.160
    1HEX    C13 6777  13.336   4.452   9.248
    1HEX    C15 6778  12.936   4.312   8.744
    1HEX    O16 6779  12.860   4.275   8.861
    1HEX    C17 6780  12.750   4.198   8.843
    1HEX    O18 6781  12.742   4.107   8.761
    1HEX    C19 6782  12.627   4.241   8.925
    1HEX    C1A 6783  12.531   4.327   8.837
    1HEX    H1D 6784  13.326   4.117   7.981
    1HEX    H1E 6785  13.322   4.293   7.977
    1HEX    H1F 6786  13.324   4.297   8.231
    1HEX    H1G 6787  13.323   4.122   8.232
    1HEX    H1H 6788  12.897   4.264   8.143
    1HEX    H1I 6789  12.918   4.435   8.159
    1HEX    H1J 6790  13.048   4.480   8.395
    1HEX    H1K 6791  12.940   4.452   8.529
    1HEX    H1M 6792  12.727   4.832   8.390
    1HEX    H1N 6793  12.902   4.827   8.385
    1HEX    H1O 6794  12.903   4.849   8.643
    1HEX    H1P 6795  12.732   4.887   8.632
    1HEX    H1R 6796  12.698   4.424   8.301
    1HEX    H1S 6797  12.699   4.341   8.453
    1HEX    H1T 6798  12.726   4.022   8.129
    1HEX    H1U 6799  12.619   4.080   8.003
    1HEX    H1V 6800  12.421   4.049   8.156
    1HEX    H1W 6801  12.528   3.990   8.283
    1HEX    H1Y 6802  12.927   4.123   8.350
    1HEX    H1Z 6803  12.865   4.169   8.498
    1HEX    H20 6804  13.145   4.370   8.541
    1HEX    H21 6805  13.234   4.232   8.574
    1HEX    H22 6806  13.058   4.048   8.729
    1HEX    H23 6807  13.079   4.118   8.887
    1HEX    H24 6808  13.486   4.023   8.752
    1HEX    H25 6809  13.522   3.996   8.920
    1HEX    H26 6810  13.512   4.280   8.803
    1HEX    H27 6811  13.659   4.184   8.799
    1HEX    H29 6812  13.158   4.470   8.758
    1HEX    H2A 6813  13.280   4.347   8.775
    1HEX    H2B 6814  13.197   4.302   9.174
    1HEX    H2C 6815  13.128   4.463   9.185
    1HEX    H2D 6816  13.369   4.553   9.222
    1HEX    H2E 6817  13.421   4.386   9.232
    1HEX    H2G 6818  12.876   4.286   8.659
    1HEX    H2H 6819  12.933   4.420   8.745
    1HEX    H2I 6820  12.659   4.294   9.015
    1HEX    H2J 6821  12.577   4.150   8.958
    1HEX    H2K 6822  12.557   4.313   8.732
    1HEX    H2M 6823  12.547   4.433   8.857
    1STR    S00 6824  13.536   4.213   8.052
    1STR    S0E 6825  12.868   5.061   8.535
    1STR    S0M 6826  12.509   3.831   8.102
    1STR    S0X 6827  13.605   4.249   9.022
    1STR    S14 6828  13.283   4.448   9.421
    1STR    S1B 6829  12.349   4.293   8.853
    1HEX    C01 6830  13.354   4.210  12.398
    1HEX    C02 6831  13.295   4.217  12.540
    1HEX    C03 6832  13.145   4.231  12.534
    1HEX    O04 6833  13.074   4.139  12.495
    1HEX    O05 6834  13.103   4.353  12.575
    1HEX    C06 6835  12.964   4.380  12.583
    1HEX    C07 6836  12.911   4.373  12.728
    1HEX    C08 6837  12.953   4.500  12.807
    1HEX    O09 6838  12.897   4.629  12.777
    1HEX    C0A 6839  12.872   4.714  12.882
    1HEX    O0B 6840  12.840   4.676  12.994
    1HEX    C0C 6841  12.893   4.864  12.851
    1HEX    C0D 6842  12.889   4.957  12.977
    1HEX    C0F 6843  12.756   4.362  12.721
    1HEX    O0G 6844  12.719   4.236  12.663
    1HEX    C0H 6845  12.658   4.229  12.543
    1HEX    O0I 6846  12.614   4.325  12.479
    1HEX    C0J 6847  12.650   4.087  12.487
    1HEX    C0K 6848  12.528   4.011  12.540
    1HEX    C0N 6849  12.963   4.245  12.804
    1HEX    O0O 6850  13.101   4.233  12.849
    1HEX    C0P 6851  13.167   4.309  12.954
    1HEX    C0Q 6852  13.145   4.274  13.106
    1HEX    C0R 6853  13.212   4.137  13.138
    1HEX    O0S 6854  13.355   4.133  13.113
    1HEX    C0T 6855  13.446   4.132  13.215
    1HEX    O0U 6856  13.417   4.143  13.334
    1HEX    C0V 6857  13.593   4.115  13.171
    1HEX    C0W 6858  13.658   4.250  13.127
    1HEX    C0Y 6859  13.212   4.381  13.199
    1HEX    O0Z 6860  13.177   4.353  13.334
    1HEX    C10 6861  13.234   4.414  13.439
    1HEX    O11 6862  13.329   4.493  13.433
    1HEX    C12 6863  13.163   4.379  13.571
    1HEX    C13 6864  13.242   4.406  13.701
    1HEX    C15 6865  12.992   4.274  13.132
    1HEX    O16 6866  12.951   4.252  13.266
    1HEX    C17 6867  12.862   4.157  13.296
    1HEX    O18 6868  12.822   4.068  13.220
    1HEX    C19 6869  12.808   4.172  13.437
    1HEX    C1A 6870  12.729   4.303  13.449
    1HEX    H1D 6871  13.320   4.120  12.347
    1HEX    H1E 6872  13.320   4.296  12.339
    1HEX    H1F 6873  13.336   4.301  12.595
    1HEX    H1G 6874  13.319   4.127  12.596
    1HEX    H1H 6875  12.909   4.313  12.517
    1HEX    H1I 6876  12.944   4.479  12.541
    1HEX    H1J 6877  13.059   4.515  12.789
    1HEX    H1K 6878  12.941   4.478  12.913
    1HEX    H1M 6879  12.817   4.895  12.778
    1HEX    H1N 6880  12.989   4.873  12.800
    1HEX    H1O 6881  12.898   4.898  13.068
    1HEX    H1P 6882  12.792   5.006  12.985
    1HEX    H1R 6883  12.713   4.446  12.667
    1HEX    H1S 6884  12.711   4.366  12.821
    1HEX    H1T 6885  12.743   4.035  12.510
    1HEX    H1U 6886  12.645   4.094  12.378
    1HEX    H1V 6887  12.436   4.064  12.515
    1HEX    H1W 6888  12.532   4.002  12.648
    1HEX    H1Y 6889  12.952   4.162  12.734
    1HEX    H1Z 6890  12.891   4.217  12.880
    1HEX    H20 6891  13.157   4.416  12.940
    1HEX    H21 6892  13.273   4.292  12.934
    1HEX    H22 6893  13.164   4.059  13.079
    1HEX    H23 6894  13.189   4.110  13.242
    1HEX    H24 6895  13.597   4.040  13.092
    1HEX    H25 6896  13.648   4.074  13.256
    1HEX    H26 6897  13.641   4.326  13.203
    1HEX    H27 6898  13.600   4.282  13.040
    1HEX    H29 6899  13.178   4.482  13.174
    1HEX    H2A 6900  13.320   4.381  13.188
    1HEX    H2B 6901  13.135   4.274  13.566
    1HEX    H2C 6902  13.071   4.436  13.570
    1HEX    H2D 6903  13.301   4.497  13.690
    1HEX    H2E 6904  13.313   4.326  13.721
    1HEX    H2G 6905  12.947   4.198  13.069
    1HEX    H2H 6906  12.950   4.370  13.103
    1HEX    H2I 6907  12.892   4.169  13.506
    1HEX    H2J 6908  12.744   4.086  13.459
    1HEX    H2K 6909  12.642   4.302  13.383
    1HEX    H2M 6910  12.790   4.388  13.420
    1STR    S00 6911  13.534   4.211  12.409
    1STR    S0E 6912  13.024   5.082  12.990
    1STR    S0M 6913  12.525   3.846  12.465
    1STR    S0X 6914  13.836   4.257  13.070
    1STR    S14 6915  13.129   4.430  13.845
    1STR    S1B 6916  12.675   4.323  13.621
    1HEX    C01 6917  13.354   8.571  16.749
    1HEX    C02 6918  13.291   8.573  16.888
    1HEX    C03 6919  13.141   8.549  16.880
    1HEX    O04 6920  13.096   8.440  16.848
    1HEX    O05 6921  13.070   8.657  16.916
    1HEX    C06 6922  12.931   8.642  16.945
    1HEX    C07 6923  12.907   8.636  17.098
    1HEX    C08 6924  12.922   8.781  17.152
    1HEX    O09 6925  12.836   8.887  17.110
    1HEX    C0A 6926  12.803   8.979  17.204
    1HEX    O0B 6927  12.774   8.953  17.321
    1HEX    C0C 6928  12.813   9.125  17.158
    1HEX    C0D 6929  12.826   9.222  17.277
    1HEX    C0F 6930  12.768   8.570  17.126
    1HEX    O0G 6931  12.780   8.427  17.149
    1HEX    C0H 6932  12.763   8.337  17.050
    1HEX    O0I 6933  12.706   8.362  16.944
    1HEX    C0J 6934  12.831   8.198  17.070
    1HEX    C0K 6935  12.836   8.134  17.213
    1HEX    C0N 6936  13.011   8.544  17.172
    1HEX    O0O 6937  13.143   8.592  17.199
    1HEX    C0P 6938  13.175   8.675  17.313
    1HEX    C0Q 6939  13.128   8.639   0.018
    1HEX    C0R 6940  13.158   8.490   0.049
    1HEX    O0S 6941  13.298   8.465   0.044
    1HEX    C0T 6942  13.367   8.440   0.157
    1HEX    O0U 6943  13.321   8.431   0.270
    1HEX    C0V 6944  13.516   8.421   0.130
    1HEX    C0W 6945  13.593   8.554   0.129
    1HEX    C0Y 6946  13.210   8.729   0.115
    1HEX    O0Z 6947  13.172   8.701   0.248
    1HEX    C10 6948  13.226   8.767   0.350
    1HEX    O11 6949  13.315   8.852   0.343
    1HEX    C12 6950  13.159   8.728   0.481
    1HEX    C13 6951  13.243   8.758   0.607
    1HEX    C15 6952  12.978   8.674   0.040
    1HEX    O16 6953  12.929   8.647   0.171
    1HEX    C17 6954  12.856   8.538   0.195
    1HEX    O18 6955  12.829   8.449   0.115
    1HEX    C19 6956  12.804   8.537   0.338
    1HEX    C1A 6957  12.723   8.665   0.366
    1HEX    H1D 6958  13.327   8.480  16.696
    1HEX    H1E 6959  13.319   8.656  16.690
    1HEX    H1F 6960  13.311   8.667  16.940
    1HEX    H1G 6961  13.332   8.493  16.950
    1HEX    H1H 6962  12.889   8.556  16.893
    1HEX    H1I 6963  12.879   8.728  16.902
    1HEX    H1J 6964  13.021   8.816  17.125
    1HEX    H1K 6965  12.921   8.777  17.259
    1HEX    H1M 6966  12.728   9.151  17.095
    1HEX    H1N 6967  12.903   9.133  17.096
    1HEX    H1O 6968  12.902   9.187  17.348
    1HEX    H1P 6969  12.732   9.228  17.333
    1HEX    H1R 6970  12.696   8.593  17.046
    1HEX    H1S 6971  12.723   8.614  17.216
    1HEX    H1T 6972  12.932   8.209  17.031
    1HEX    H1U 6973  12.780   8.130  17.002
    1HEX    H1V 6974  12.735   8.122  17.252
    1HEX    H1W 6975  12.888   8.200  17.283
    1HEX    H1Y 6976  13.025   8.456  17.109
    1HEX    H1Z 6977  12.971   8.500  17.263
    1HEX    H20 6978  13.153   8.779  17.291
    1HEX    H21 6979  13.284   8.672  17.313
    1HEX    H22 6980  13.108   8.423  17.419
    1HEX    H23 6981  13.117   8.463   0.147
    1HEX    H24 6982  13.525   8.371   0.034
    1HEX    H25 6983  13.557   8.353   0.205
    1HEX    H26 6984  13.538   8.630   0.072
    1HEX    H27 6985  13.690   8.542   0.081
    1HEX    H29 6986  13.193   8.835   0.094
    1HEX    H2A 6987  13.317   8.713   0.104
    1HEX    H2B 6988  13.141   8.621   0.475
    1HEX    H2C 6989  13.062   8.777   0.487
    1HEX    H2D 6990  13.242   8.865   0.627
    1HEX    H2E 6991  13.347   8.731   0.590
    1HEX    H2G 6992  12.910   8.628  17.410
    1HEX    H2H 6993  12.964   8.782   0.028
    1HEX    H2I 6994  12.889   8.530   0.405
    1HEX    H2J 6995  12.743   8.448   0.354
    1HEX    H2K 6996  12.635   8.670   0.301
    1HEX    H2M 6997  12.782   8.754   0.346
    1STR    S00 6998  13.534   8.580  16.767
    1STR    S0E 6999  12.873   9.387  17.219
    1STR    S0M 7000  12.919   7.967  17.209
    1STR    S0X 7001  13.619   8.615   0.298
    1STR    S14 7002  13.178   8.663   0.750
    1STR    S1B 7003  12.671   8.666   0.539
    1HEX    C01 7004  13.281   8.500   3.643
    1HEX    C02 7005  13.288   8.554   3.787
    1HEX    C03 7006  13.147   8.555   3.839
    1HEX    O04 7007  13.086   8.449   3.851
    1HEX    O05 7008  13.095   8.678   3.852
    1HEX    C06 7009  12.954   8.694   3.854
    1HEX    C07 7010  12.895   8.697   3.997
    1HEX    C08 7011  12.943   8.827   4.066
    1HEX    O09 7012  12.879   8.947   4.027
    1HEX    C0A 7013  12.816   9.020   4.120
    1HEX    O0B 7014  12.769   8.976   4.225
    1HEX    C0C 7015  12.815   9.169   4.088
    1HEX    C0D 7016  12.826   9.252   4.217
    1HEX    C0F 7017  12.740   8.701   3.987
    1HEX    O0G 7018  12.693   8.579   3.930
    1HEX    C0H 7019  12.646   8.576   3.805
    1HEX    O0I 7020  12.615   8.673   3.737
    1HEX    C0J 7021  12.638   8.434   3.749
    1HEX    C0K 7022  12.520   8.357   3.810
    1HEX    C0N 7023  12.930   8.568   4.078
    1HEX    O0O 7024  13.064   8.542   4.122
    1HEX    C0P 7025  13.140   8.626   4.208
    1HEX    C0Q 7026  13.112   8.622   4.361
    1HEX    C0R 7027  13.146   8.479   4.412
    1HEX    O0S 7028  13.287   8.455   4.405
    1HEX    C0T 7029  13.360   8.446   4.518
    1HEX    O0U 7030  13.317   8.451   4.633
    1HEX    C0V 7031  13.509   8.427   4.490
    1HEX    C0W 7032  13.587   8.560   4.493
    1HEX    C0Y 7033  13.205   8.726   4.426
    1HEX    O0Z 7034  13.187   8.722   4.566
    1HEX    C10 7035  13.266   8.792   4.645
    1HEX    O11 7036  13.356   8.868   4.608
    1HEX    C12 7037  13.230   8.771   4.791
    1HEX    C13 7038  13.342   8.813   4.886
    1HEX    C15 7039  12.966   8.663   4.397
    1HEX    O16 7040  12.929   8.641   4.532
    1HEX    C17 7041  12.855   8.534   4.565
    1HEX    O18 7042  12.823   8.441   4.491
    1HEX    C19 7043  12.807   8.542   4.709
    1HEX    C1A 7044  12.724   8.669   4.729
    1HEX    H1D 7045  13.337   8.408   3.631
    1HEX    H1E 7046  13.178   8.472   3.620
    1HEX    H1F 7047  13.332   8.654   3.795
    1HEX    H1G 7048  13.347   8.488   3.851
    1HEX    H1H 7049  12.909   8.616   3.793
    1HEX    H1I 7050  12.930   8.787   3.802
    1HEX    H1J 7051  13.047   8.844   4.039
    1HEX    H1K 7052  12.940   8.814   4.173
    1HEX    H1M 7053  12.726   9.194   4.031
    1HEX    H1N 7054  12.901   9.188   4.024
    1HEX    H1O 7055  12.902   9.211   4.283
    1HEX    H1P 7056  12.732   9.251   4.272
    1HEX    H1R 7057  12.705   8.788   3.932
    1HEX    H1S 7058  12.695   8.711   4.087
    1HEX    H1T 7059  12.732   8.384   3.770
    1HEX    H1U 7060  12.628   8.440   3.641
    1HEX    H1V 7061  12.426   8.408   3.788
    1HEX    H1W 7062  12.530   8.351   3.918
    1HEX    H1Y 7063  12.908   8.484   4.012
    1HEX    H1Z 7064  12.856   8.548   4.155
    1HEX    H20 7065  13.150   8.728   4.172
    1HEX    H21 7066  13.242   8.589   4.195
    1HEX    H22 7067  13.094   8.404   4.353
    1HEX    H23 7068  13.110   8.465   4.514
    1HEX    H24 7069  13.518   8.380   4.393
    1HEX    H25 7070  13.550   8.357   4.563
    1HEX    H26 7071  13.532   8.639   4.441
    1HEX    H27 7072  13.683   8.549   4.443
    1HEX    H29 7073  13.184   8.827   4.391
    1HEX    H2A 7074  13.310   8.707   4.402
    1HEX    H2B 7075  13.207   8.665   4.804
    1HEX    H2C 7076  13.139   8.827   4.811
    1HEX    H2D 7077  13.375   8.915   4.864
    1HEX    H2E 7078  13.429   8.748   4.873
    1HEX    H2G 7079  12.893   8.613   4.336
    1HEX    H2H 7080  12.952   8.769   4.380
    1HEX    H2I 7081  12.894   8.540   4.774
    1HEX    H2J 7082  12.748   8.453   4.731
    1HEX    H2K 7083  12.638   8.670   4.661
    1HEX    H2M 7084  12.783   8.758   4.707
    1STR    S00 7085  13.331   8.624   3.520
    1STR    S0E 7086  12.871   9.422   4.174
    1STR    S0M 7087  12.517   8.190   3.739
    1STR    S0X 7088  13.618   8.614   4.663
    1STR    S14 7089  13.280   8.804   5.056
    1STR    S1B 7090  12.666   8.676   4.900
    1HEX    C01 7091  13.357   8.568   8.033
    1HEX    C02 7092  13.294   8.569   8.173
    1HEX    C03 7093  13.143   8.570   8.162
    1HEX    O04 7094  13.081   8.471   8.123
    1HEX    O05 7095  13.089   8.688   8.196
    1HEX    C06 7096  12.948   8.703   8.201
    1HEX    C07 7097  12.897   8.698   8.348
    1HEX    C08 7098  12.946   8.826   8.419
    1HEX    O09 7099  12.881   8.947   8.383
    1HEX    C0A 7100  12.819   9.018   8.478
    1HEX    O0B 7101  12.773   8.973   8.582
    1HEX    C0C 7102  12.816   9.168   8.447
    1HEX    C0D 7103  12.826   9.250   8.577
    1HEX    C0F 7104  12.742   8.697   8.349
    1HEX    O0G 7105  12.695   8.575   8.291
    1HEX    C0H 7106  12.646   8.573   8.167
    1HEX    O0I 7107  12.616   8.671   8.099
    1HEX    C0J 7108  12.636   8.432   8.111
    1HEX    C0K 7109  12.518   8.356   8.172
    1HEX    C0N 7110  12.943   8.567   8.422
    1HEX    O0O 7111  13.080   8.549   8.464
    1HEX    C0P 7112  13.147   8.630   8.561
    1HEX    C0Q 7113  13.113   8.621   8.713
    1HEX    C0R 7114  13.147   8.478   8.764
    1HEX    O0S 7115  13.288   8.454   8.760
    1HEX    C0T 7116  13.360   8.445   8.874
    1HEX    O0U 7117  13.315   8.450   8.989
    1HEX    C0V 7118  13.509   8.427   8.848
    1HEX    C0W 7119  13.586   8.560   8.852
    1HEX    C0Y 7120  13.204   8.725   8.783
    1HEX    O0Z 7121  13.185   8.719   8.923
    1HEX    C10 7122  13.263   8.791   9.003
    1HEX    O11 7123  13.352   8.867   8.966
    1HEX    C12 7124  13.228   8.769   9.149
    1HEX    C13 7125  13.341   8.812   9.243
    1HEX    C15 7126  12.966   8.659   8.747
    1HEX    O16 7127  12.928   8.639   8.883
    1HEX    C17 7128  12.854   8.533   8.918
    1HEX    O18 7129  12.822   8.440   8.845
    1HEX    C19 7130  12.809   8.542   9.063
    1HEX    C1A 7131  12.726   8.669   9.085
    1HEX    H1D 7132  13.328   8.478   7.979
    1HEX    H1E 7133  13.324   8.654   7.975
    1HEX    H1F 7134  13.326   8.657   8.230
    1HEX    H1G 7135  13.323   8.481   8.230
    1HEX    H1H 7136  12.899   8.628   8.139
    1HEX    H1I 7137  12.921   8.798   8.156
    1HEX    H1J 7138  13.050   8.844   8.392
    1HEX    H1K 7139  12.943   8.812   8.526
    1HEX    H1M 7140  12.727   9.193   8.390
    1HEX    H1N 7141  12.902   9.189   8.384
    1HEX    H1O 7142  12.903   9.209   8.643
    1HEX    H1P 7143  12.732   9.247   8.632
    1HEX    H1R 7144  12.701   8.785   8.298
    1HEX    H1S 7145  12.704   8.704   8.451
    1HEX    H1T 7146  12.730   8.381   8.130
    1HEX    H1U 7147  12.625   8.439   8.002
    1HEX    H1V 7148  12.424   8.407   8.150
    1HEX    H1W 7149  12.528   8.350   8.280
    1HEX    H1Y 7150  12.928   8.486   8.350
    1HEX    H1Z 7151  12.874   8.538   8.500
    1HEX    H20 7152  13.156   8.733   8.530
    1HEX    H21 7153  13.250   8.596   8.552
    1HEX    H22 7154  13.096   8.403   8.704
    1HEX    H23 7155  13.110   8.464   8.866
    1HEX    H24 7156  13.520   8.380   8.751
    1HEX    H25 7157  13.549   8.357   8.922
    1HEX    H26 7158  13.532   8.639   8.799
    1HEX    H27 7159  13.683   8.549   8.803
    1HEX    H29 7160  13.182   8.826   8.750
    1HEX    H2A 7161  13.309   8.707   8.761
    1HEX    H2B 7162  13.206   8.663   9.163
    1HEX    H2C 7163  13.137   8.825   9.169
    1HEX    H2D 7164  13.373   8.914   9.221
    1HEX    H2E 7165  13.428   8.747   9.230
    1HEX    H2G 7166  12.893   8.609   8.685
    1HEX    H2H 7167  12.950   8.766   8.730
    1HEX    H2I 7168  12.897   8.540   9.127
    1HEX    H2J 7169  12.750   8.453   9.086
    1HEX    H2K 7170  12.640   8.671   9.018
    1HEX    H2M 7171  12.786   8.758   9.064
    1STR    S00 7172  13.538   8.572   8.051
    1STR    S0E 7173  12.870   9.421   8.536
    1STR    S0M 7174  12.514   8.189   8.101
    1STR    S0X 7175  13.615   8.614   9.023
    1STR    S14 7176  13.280   8.803   9.414
    1STR    S1B 7177  12.669   8.675   9.257
    1HEX    C01 7178  13.350   8.569  12.391
    1HEX    C02 7179  13.283   8.570  12.529
    1HEX    C03 7180  13.133   8.556  12.516
    1HEX    O04 7181  13.081   8.451  12.480
    1HEX    O05 7182  13.068   8.669  12.550
    1HEX    C06 7183  12.927   8.666  12.570
    1HEX    C07 7184  12.893   8.659  12.721
    1HEX    C08 7185  12.927   8.798  12.780
    1HEX    O09 7186  12.848   8.911  12.743
    1HEX    C0A 7187  12.808   8.995  12.842
    1HEX    O0B 7188  12.778   8.961  12.956
    1HEX    C0C 7189  12.814   9.142  12.802
    1HEX    C0D 7190  12.826   9.233  12.926
    1HEX    C0F 7191  12.742   8.625  12.741
    1HEX    O0G 7192  12.724   8.482  12.741
    1HEX    C0H 7193  12.695   8.416  12.628
    1HEX    O0I 7194  12.646   8.468  12.528
    1HEX    C0J 7195  12.738   8.268  12.627
    1HEX    C0K 7196  12.736   8.188  12.761
    1HEX    C0N 7197  12.973   8.545  12.794
    1HEX    O0O 7198  13.112   8.561  12.823
    1HEX    C0P 7199  13.161   8.647  12.926
    1HEX    C0Q 7200  13.121   8.629  13.076
    1HEX    C0R 7201  13.152   8.484  13.121
    1HEX    O0S 7202  13.293   8.459  13.118
    1HEX    C0T 7203  13.362   8.446  13.233
    1HEX    O0U 7204  13.316   8.449  13.347
    1HEX    C0V 7205  13.511   8.427  13.209
    1HEX    C0W 7206  13.589   8.559  13.212
    1HEX    C0Y 7207  13.210   8.729  13.152
    1HEX    O0Z 7208  13.189   8.720  13.291
    1HEX    C10 7209  13.264   8.794  13.372
    1HEX    O11 7210  13.351   8.873  13.337
    1HEX    C12 7211  13.228   8.770  13.518
    1HEX    C13 7212  13.341   8.812  13.612
    1HEX    C15 7213  12.973   8.669  13.108
    1HEX    O16 7214  12.933   8.644  13.242
    1HEX    C17 7215  12.856   8.539  13.273
    1HEX    O18 7216  12.822   8.449  13.195
    1HEX    C19 7217  12.810   8.542  13.417
    1HEX    C1A 7218  12.726   8.668  13.442
    1HEX    H1D 7219  13.323   8.479  12.336
    1HEX    H1E 7220  13.317   8.654  12.332
    1HEX    H1F 7221  13.307   8.661  12.584
    1HEX    H1G 7222  13.318   8.486  12.589
    1HEX    H1H 7223  12.881   8.584  12.514
    1HEX    H1I 7224  12.885   8.756  12.526
    1HEX    H1J 7225  13.027   8.826  12.750
    1HEX    H1K 7226  12.929   8.790  12.888
    1HEX    H1M 7227  12.728   9.169  12.742
    1HEX    H1N 7228  12.902   9.156  12.739
    1HEX    H1O 7229  12.903   9.196  12.995
    1HEX    H1P 7230  12.733   9.236  12.982
    1HEX    H1R 7231  12.680   8.675  12.666
    1HEX    H1S 7232  12.708   8.663  12.837
    1HEX    H1T 7233  12.839   8.270  12.586
    1HEX    H1U 7234  12.678   8.217  12.551
    1HEX    H1V 7235  12.653   8.118  12.760
    1HEX    H1W 7236  12.722   8.252  12.848
    1HEX    H1Y 7237  12.971   8.459  12.728
    1HEX    H1Z 7238  12.922   8.506  12.882
    1HEX    H20 7239  13.155   8.752  12.898
    1HEX    H21 7240  13.269   8.628  12.921
    1HEX    H22 7241  13.102   8.412  13.057
    1HEX    H23 7242  13.112   8.466  13.221
    1HEX    H24 7243  13.522   8.378  13.113
    1HEX    H25 7244  13.550   8.357  13.284
    1HEX    H26 7245  13.536   8.637  13.157
    1HEX    H27 7246  13.687   8.547  13.164
    1HEX    H29 7247  13.191   8.832  13.121
    1HEX    H2A 7248  13.316   8.711  13.132
    1HEX    H2B 7249  13.206   8.664  13.530
    1HEX    H2C 7250  13.137   8.825  13.538
    1HEX    H2D 7251  13.374   8.914  13.591
    1HEX    H2E 7252  13.428   8.747  13.599
    1HEX    H2G 7253  12.899   8.625  13.042
    1HEX    H2H 7254  12.961   8.777  13.097
    1HEX    H2I 7255  12.897   8.539  13.482
    1HEX    H2J 7256  12.751   8.452  13.438
    1HEX    H2K 7257  12.639   8.671  13.376
    1HEX    H2M 7258  12.785   8.758  13.422
    1STR    S00 7259  13.530   8.576  12.413
    1STR    S0E 7260  12.872   9.401  12.874
    1STR    S0M 7261  12.892   8.091  12.778
    1STR    S0X 7262  13.616   8.616  13.382
    1STR    S14 7263  13.280   8.803  13.783
    1STR    S1B 7264  12.672   8.671  13.615
    1HEX    C01 7265  13.357  12.928  16.753
    1HEX    C02 7266  13.294  12.930  16.893
    1HEX    C03 7267  13.143  12.930  16.882
    1HEX    O04 7268  13.081  12.831  16.843
    1HEX    O05 7269  13.089  13.048  16.916
    1HEX    C06 7270  12.948  13.063  16.921
    1HEX    C07 7271  12.897  13.058  17.068
    1HEX    C08 7272  12.946  13.186  17.139
    1HEX    O09 7273  12.881  13.307  17.102
    1HEX    C0A 7274  12.819  13.378  17.197
    1HEX    O0B 7275  12.773  13.333  17.302
    1HEX    C0C 7276  12.816  13.528  17.167
    1HEX    C0D 7277  12.826  13.610  17.297
    1HEX    C0F 7278  12.742  13.057  17.069
    1HEX    O0G 7279  12.695  12.936  17.011
    1HEX    C0H 7280  12.646  12.933  16.886
    1HEX    O0I 7281  12.616  13.032  16.819
    1HEX    C0J 7282  12.636  12.792  16.831
    1HEX    C0K 7283  12.518  12.716  16.892
    1HEX    C0N 7284  12.943  12.927  17.142
    1HEX    O0O 7285  13.080  12.909  17.184
    1HEX    C0P 7286  13.147  12.990  17.281
    1HEX    C0Q 7287  13.113  12.981  17.433
    1HEX    C0R 7288  13.147  12.838   0.044
    1HEX    O0S 7289  13.288  12.815   0.040
    1HEX    C0T 7290  13.360  12.806   0.154
    1HEX    O0U 7291  13.315  12.810   0.269
    1HEX    C0V 7292  13.509  12.788   0.128
    1HEX    C0W 7293  13.587  12.921   0.132
    1HEX    C0Y 7294  13.203  13.085   0.063
    1HEX    O0Z 7295  13.185  13.079   0.203
    1HEX    C10 7296  13.263  13.151   0.283
    1HEX    O11 7297  13.352  13.227   0.245
    1HEX    C12 7298  13.228  13.130   0.429
    1HEX    C13 7299  13.341  13.173   0.523
    1HEX    C15 7300  12.965  13.019   0.027
    1HEX    O16 7301  12.928  12.999   0.163
    1HEX    C17 7302  12.854  12.893   0.199
    1HEX    O18 7303  12.822  12.800   0.126
    1HEX    C19 7304  12.809  12.902   0.343
    1HEX    C1A 7305  12.726  13.029   0.365
    1HEX    H1D 7306  13.328  12.838  16.699
    1HEX    H1E 7307  13.324  13.014  16.695
    1HEX    H1F 7308  13.326  13.017  16.949
    1HEX    H1G 7309  13.323  12.841  16.950
    1HEX    H1H 7310  12.899  12.988  16.859
    1HEX    H1I 7311  12.921  13.158  16.876
    1HEX    H1J 7312  13.050  13.204  17.112
    1HEX    H1K 7313  12.943  13.172  17.246
    1HEX    H1M 7314  12.727  13.553  17.110
    1HEX    H1N 7315  12.903  13.549  17.104
    1HEX    H1O 7316  12.903  13.569  17.363
    1HEX    H1P 7317  12.732  13.607  17.352
    1HEX    H1R 7318  12.701  13.145  17.018
    1HEX    H1S 7319  12.704  13.064  17.171
    1HEX    H1T 7320  12.730  12.741  16.850
    1HEX    H1U 7321  12.625  12.799  16.722
    1HEX    H1V 7322  12.424  12.767  16.871
    1HEX    H1W 7323  12.528  12.710  17.000
    1HEX    H1Y 7324  12.928  12.846  17.070
    1HEX    H1Z 7325  12.874  12.898  17.220
    1HEX    H20 7326  13.156  13.093  17.250
    1HEX    H21 7327  13.250  12.956  17.272
    1HEX    H22 7328  13.096  12.763  17.424
    1HEX    H23 7329  13.110  12.824   0.146
    1HEX    H24 7330  13.520  12.740   0.031
    1HEX    H25 7331  13.549  12.718   0.202
    1HEX    H26 7332  13.532  12.999   0.079
    1HEX    H27 7333  13.683  12.910   0.083
    1HEX    H29 7334  13.182  13.186   0.030
    1HEX    H2A 7335  13.309  13.067   0.041
    1HEX    H2B 7336  13.206  13.024   0.443
    1HEX    H2C 7337  13.137  13.185   0.449
    1HEX    H2D 7338  13.373  13.274   0.501
    1HEX    H2E 7339  13.428  13.108   0.511
    1HEX    H2G 7340  12.893  12.969  17.405
    1HEX    H2H 7341  12.950  13.126   0.010
    1HEX    H2I 7342  12.896  12.900   0.407
    1HEX    H2J 7343  12.750  12.813   0.366
    1HEX    H2K 7344  12.641  13.032   0.298
    1HEX    H2M 7345  12.786  13.118   0.344
    1STR    S00 7346  13.538  12.933  16.771
    1STR    S0E 7347  12.870  13.781  17.256
    1STR    S0M 7348  12.514  12.549  16.821
    1STR    S0X 7349  13.615  12.975   0.303
    1STR    S14 7350  13.279  13.164   0.693
    1STR    S1B 7351  12.669  13.035   0.537
    1HEX    C01 7352  13.357  12.928   3.673
    1HEX    C02 7353  13.294  12.930   3.813
    1HEX    C03 7354  13.143  12.930   3.802
    1HEX    O04 7355  13.081  12.831   3.763
    1HEX    O05 7356  13.089  13.048   3.836
    1HEX    C06 7357  12.948  13.063   3.841
    1HEX    C07 7358  12.897  13.058   3.988
    1HEX    C08 7359  12.946  13.186   4.059
    1HEX    O09 7360  12.881  13.307   4.022
    1HEX    C0A 7361  12.819  13.378   4.117
    1HEX    O0B 7362  12.773  13.333   4.222
    1HEX    C0C 7363  12.816  13.528   4.087
    1HEX    C0D 7364  12.826  13.610   4.217
    1HEX    C0F 7365  12.742  13.057   3.989
    1HEX    O0G 7366  12.695  12.936   3.931
    1HEX    C0H 7367  12.646  12.934   3.806
    1HEX    O0I 7368  12.616  13.032   3.739
    1HEX    C0J 7369  12.636  12.793   3.751
    1HEX    C0K 7370  12.518  12.716   3.812
    1HEX    C0N 7371  12.943  12.927   4.062
    1HEX    O0O 7372  13.080  12.909   4.104
    1HEX    C0P 7373  13.147  12.990   4.201
    1HEX    C0Q 7374  13.113  12.981   4.353
    1HEX    C0R 7375  13.147  12.838   4.404
    1HEX    O0S 7376  13.288  12.815   4.400
    1HEX    C0T 7377  13.360  12.806   4.514
    1HEX    O0U 7378  13.315  12.810   4.629
    1HEX    C0V 7379  13.509  12.788   4.488
    1HEX    C0W 7380  13.587  12.921   4.492
    1HEX    C0Y 7381  13.203  13.085   4.423
    1HEX    O0Z 7382  13.185  13.079   4.563
    1HEX    C10 7383  13.263  13.151   4.643
    1HEX    O11 7384  13.352  13.227   4.605
    1HEX    C12 7385  13.228  13.130   4.789
    1HEX    C13 7386  13.341  13.173   4.883
    1HEX    C15 7387  12.965  13.019   4.387
    1HEX    O16 7388  12.928  12.999   4.523
    1HEX    C17 7389  12.854  12.893   4.559
    1HEX    O18 7390  12.822  12.800   4.486
    1HEX    C19 7391  12.809  12.902   4.703
    1HEX    C1A 7392  12.726  13.029   4.725
    1HEX    H1D 7393  13.328  12.838   3.619
    1HEX    H1E 7394  13.324  13.014   3.615
    1HEX    H1F 7395  13.326  13.017   3.869
    1HEX    H1G 7396  13.323  12.842   3.870
    1HEX    H1H 7397  12.899  12.988   3.779
    1HEX    H1I 7398  12.921  13.158   3.796
    1HEX    H1J 7399  13.050  13.204   4.032
    1HEX    H1K 7400  12.943  13.172   4.166
    1HEX    H1M 7401  12.727  13.553   4.030
    1HEX    H1N 7402  12.903  13.549   4.024
    1HEX    H1O 7403  12.903  13.569   4.283
    1HEX    H1P 7404  12.732  13.607   4.272
    1HEX    H1R 7405  12.701  13.145   3.938
    1HEX    H1S 7406  12.704  13.064   4.091
    1HEX    H1T 7407  12.730  12.741   3.770
    1HEX    H1U 7408  12.625  12.799   3.642
    1HEX    H1V 7409  12.424  12.767   3.790
    1HEX    H1W 7410  12.528  12.710   3.920
    1HEX    H1Y 7411  12.928  12.846   3.990
    1HEX    H1Z 7412  12.874  12.898   4.140
    1HEX    H20 7413  13.156  13.093   4.170
    1HEX    H21 7414  13.250  12.956   4.192
    1HEX    H22 7415  13.096  12.763   4.344
    1HEX    H23 7416  13.110  12.824   4.506
    1HEX    H24 7417  13.520  12.740   4.391
    1HEX    H25 7418  13.549  12.718   4.562
    1HEX    H26 7419  13.532  12.999   4.439
    1HEX    H27 7420  13.683  12.910   4.443
    1HEX    H29 7421  13.182  13.186   4.390
    1HEX    H2A 7422  13.309  13.067   4.401
    1HEX    H2B 7423  13.206  13.024   4.803
    1HEX    H2C 7424  13.137  13.185   4.809
    1HEX    H2D 7425  13.373  13.274   4.861
    1HEX    H2E 7426  13.428  13.108   4.871
    1HEX    H2G 7427  12.893  12.969   4.325
    1HEX    H2H 7428  12.950  13.126   4.370
    1HEX    H2I 7429  12.896  12.900   4.767
    1HEX    H2J 7430  12.750  12.813   4.726
    1HEX    H2K 7431  12.641  13.032   4.658
    1HEX    H2M 7432  12.786  13.118   4.704
    1STR    S00 7433  13.538  12.933   3.691
    1STR    S0E 7434  12.870  13.781   4.176
    1STR    S0M 7435  12.514  12.549   3.741
    1STR    S0X 7436  13.615  12.975   4.663
    1STR    S14 7437  13.279  13.164   5.053
    1STR    S1B 7438  12.669  13.035   4.897
    1HEX    C01 7439  13.348  12.932   8.039
    1HEX    C02 7440  13.285  12.942   8.179
    1HEX    C03 7441  13.134  12.959   8.169
    1HEX    O04 7442  13.064  12.868   8.124
    1HEX    O05 7443  13.091  13.079   8.213
    1HEX    C06 7444  12.952  13.109   8.216
    1HEX    C07 7445  12.892  13.100   8.359
    1HEX    C08 7446  12.933  13.225   8.444
    1HEX    O09 7447  12.880  13.357   8.419
    1HEX    C0A 7448  12.872  13.449   8.524
    1HEX    O0B 7449  12.861  13.416   8.642
    1HEX    C0C 7450  12.883  13.598   8.483
    1HEX    C0D 7451  12.873  13.706   8.599
    1HEX    C0F 7452  12.737  13.093   8.347
    1HEX    O0G 7453  12.696  12.967   8.294
    1HEX    C0H 7454  12.649  12.955   8.169
    1HEX    O0I 7455  12.615  13.048   8.096
    1HEX    C0J 7456  12.645  12.811   8.120
    1HEX    C0K 7457  12.526  12.733   8.177
    1HEX    C0N 7458  12.933  12.963   8.426
    1HEX    O0O 7459  13.068  12.932   8.465
    1HEX    C0P 7460  13.143  13.006   8.563
    1HEX    C0Q 7461  13.113  12.989   8.716
    1HEX    C0R 7462  13.148  12.844   8.761
    1HEX    O0S 7463  13.289  12.820   8.756
    1HEX    C0T 7464  13.360  12.807   8.871
    1HEX    O0U 7465  13.314  12.808   8.985
    1HEX    C0V 7466  13.509  12.789   8.846
    1HEX    C0W 7467  13.587  12.921   8.852
    1HEX    C0Y 7468  13.206  13.090   8.787
    1HEX    O0Z 7469  13.188  13.082   8.926
    1HEX    C10 7470  13.267  13.151   9.006
    1HEX    O11 7471  13.358  13.226   8.970
    1HEX    C12 7472  13.230  13.130   9.152
    1HEX    C13 7473  13.342  13.173   9.247
    1HEX    C15 7474  12.967  13.026   8.754
    1HEX    O16 7475  12.932  13.001   8.889
    1HEX    C17 7476  12.856  12.895   8.922
    1HEX    O18 7477  12.822  12.805   8.846
    1HEX    C19 7478  12.809  12.902   9.066
    1HEX    C1A 7479  12.726  13.029   9.088
    1HEX    H1D 7480  13.314  12.842   7.988
    1HEX    H1E 7481  13.318  13.017   7.977
    1HEX    H1F 7482  13.326  13.027   8.234
    1HEX    H1G 7483  13.306  12.852   8.237
    1HEX    H1H 7484  12.899  13.042   8.147
    1HEX    H1I 7485  12.936  13.208   8.174
    1HEX    H1J 7486  13.040  13.241   8.432
    1HEX    H1K 7487  12.915  13.200   8.548
    1HEX    H1M 7488  12.810  13.618   8.405
    1HEX    H1N 7489  12.981  13.607   8.437
    1HEX    H1O 7490  12.897  13.662   8.696
    1HEX    H1P 7491  12.770  13.741   8.607
    1HEX    H1R 7492  12.698  13.177   8.290
    1HEX    H1S 7493  12.691  13.102   8.446
    1HEX    H1T 7494  12.739  12.762   8.145
    1HEX    H1U 7495  12.640  12.812   8.011
    1HEX    H1V 7496  12.432  12.783   8.153
    1HEX    H1W 7497  12.533  12.725   8.286
    1HEX    H1Y 7498  12.916  12.886   8.351
    1HEX    H1Z 7499  12.862  12.932   8.501
    1HEX    H20 7500  13.152  13.110   8.536
    1HEX    H21 7501  13.244  12.969   8.548
    1HEX    H22 7502  13.097  12.771   8.698
    1HEX    H23 7503  13.110  12.826   8.861
    1HEX    H24 7504  13.520  12.743   8.748
    1HEX    H25 7505  13.548  12.718   8.919
    1HEX    H26 7506  13.532  13.001   8.801
    1HEX    H27 7507  13.683  12.911   8.803
    1HEX    H29 7508  13.185  13.193   8.755
    1HEX    H2A 7509  13.310  13.072   8.762
    1HEX    H2B 7510  13.207  13.025   9.165
    1HEX    H2C 7511  13.139  13.186   9.171
    1HEX    H2D 7512  13.373  13.276   9.226
    1HEX    H2E 7513  13.429  13.109   9.234
    1HEX    H2G 7514  12.894  12.976   8.691
    1HEX    H2H 7515  12.951  13.133   8.741
    1HEX    H2I 7516  12.896  12.900   9.131
    1HEX    H2J 7517  12.750  12.813   9.088
    1HEX    H2K 7518  12.641  13.032   9.019
    1HEX    H2M 7519  12.786  13.118   9.069
    1STR    S00 7520  13.528  12.930   8.056
    1STR    S0E 7521  12.978  13.855   8.568
    1STR    S0M 7522  12.525  12.566   8.105
    1STR    S0X 7523  13.616  12.971   9.024
    1STR    S14 7524  13.280  13.162   9.417
    1STR    S1B 7525  12.666  13.033   9.258
    1HEX    C01 7526  13.348  12.933  12.399
    1HEX    C02 7527  13.285  12.943  12.539
    1HEX    C03 7528  13.134  12.961  12.528
    1HEX    O04 7529  13.063  12.871  12.483
    1HEX    O05 7530  13.093  13.082  12.571
    1HEX    C06 7531  12.954  13.112  12.573
    1HEX    C07 7532  12.894  13.104  12.715
    1HEX    C08 7533  12.936  13.229  12.800
    1HEX    O09 7534  12.892  13.364  12.772
    1HEX    C0A 7535  12.890  13.455  12.877
    1HEX    O0B 7536  12.881  13.420  12.995
    1HEX    C0C 7537  12.903  13.606  12.843
    1HEX    C0D 7538  12.943  13.693  12.969
    1HEX    C0F 7539  12.738  13.099  12.704
    1HEX    O0G 7540  12.697  12.971  12.652
    1HEX    C0H 7541  12.649  12.958  12.527
    1HEX    O0I 7542  12.615  13.050  12.454
    1HEX    C0J 7543  12.646  12.813  12.480
    1HEX    C0K 7544  12.527  12.735  12.538
    1HEX    C0N 7545  12.934  12.967  12.784
    1HEX    O0O 7546  13.068  12.935  12.824
    1HEX    C0P 7547  13.143  13.006  12.923
    1HEX    C0Q 7548  13.113  12.989  13.075
    1HEX    C0R 7549  13.148  12.845  13.120
    1HEX    O0S 7550  13.289  12.821  13.116
    1HEX    C0T 7551  13.359  12.807  13.231
    1HEX    O0U 7552  13.313  12.809  13.345
    1HEX    C0V 7553  13.508  12.789  13.206
    1HEX    C0W 7554  13.587  12.921  13.211
    1HEX    C0Y 7555  13.205  13.091  13.146
    1HEX    O0Z 7556  13.188  13.082  13.286
    1HEX    C10 7557  13.266  13.153  13.366
    1HEX    O11 7558  13.355  13.230  13.330
    1HEX    C12 7559  13.230  13.130  13.512
    1HEX    C13 7560  13.342  13.173  13.607
    1HEX    C15 7561  12.967  13.026  13.112
    1HEX    O16 7562  12.931  13.003  13.247
    1HEX    C17 7563  12.856  12.897  13.281
    1HEX    O18 7564  12.823  12.805  13.207
    1HEX    C19 7565  12.810  12.903  13.426
    1HEX    C1A 7566  12.726  13.030  13.448
    1HEX    H1D 7567  13.313  12.843  12.348
    1HEX    H1E 7568  13.319  13.018  12.337
    1HEX    H1F 7569  13.326  13.027  12.594
    1HEX    H1G 7570  13.305  12.853  12.597
    1HEX    H1H 7571  12.900  13.047  12.504
    1HEX    H1I 7572  12.939  13.212  12.532
    1HEX    H1J 7573  13.044  13.239  12.793
    1HEX    H1K 7574  12.912  13.205  12.903
    1HEX    H1M 7575  12.808  13.640  12.801
    1HEX    H1N 7576  12.978  13.618  12.765
    1HEX    H1O 7577  13.044  13.668  13.002
    1HEX    H1P 7578  12.878  13.660  13.050
    1HEX    H1R 7579  12.699  13.182  12.645
    1HEX    H1S 7580  12.693  13.109  12.803
    1HEX    H1T 7581  12.740  12.764  12.507
    1HEX    H1U 7582  12.641  12.813  12.371
    1HEX    H1V 7583  12.433  12.785  12.513
    1HEX    H1W 7584  12.533  12.728  12.646
    1HEX    H1Y 7585  12.916  12.890  12.709
    1HEX    H1Z 7586  12.861  12.938  12.859
    1HEX    H20 7587  13.156  13.110  12.896
    1HEX    H21 7588  13.244  12.967  12.908
    1HEX    H22 7589  13.097  12.772  13.057
    1HEX    H23 7590  13.110  12.827  13.221
    1HEX    H24 7591  13.520  12.742  13.108
    1HEX    H25 7592  13.547  12.718  13.279
    1HEX    H26 7593  13.533  13.000  13.159
    1HEX    H27 7594  13.684  12.910  13.163
    1HEX    H29 7595  13.184  13.193  13.116
    1HEX    H2A 7596  13.310  13.073  13.122
    1HEX    H2B 7597  13.208  13.024  13.525
    1HEX    H2C 7598  13.138  13.185  13.532
    1HEX    H2D 7599  13.374  13.275  13.585
    1HEX    H2E 7600  13.429  13.108  13.595
    1HEX    H2G 7601  12.895  12.974  13.050
    1HEX    H2H 7602  12.950  13.133  13.096
    1HEX    H2I 7603  12.897  12.902  13.491
    1HEX    H2J 7604  12.751  12.814  13.448
    1HEX    H2K 7605  12.641  13.032  13.380
    1HEX    H2M 7606  12.786  13.119  13.428
    1STR    S00 7607  13.528  12.929  12.416
    1STR    S0E 7608  12.922  13.878  12.971
    1STR    S0M 7609  12.526  12.568  12.467
    1STR    S0X 7610  13.614  12.973  13.383
    1STR    S14 7611  13.279  13.164  13.777
    1STR    S1B 7612  12.667  13.034  13.619
  17.44000  17.44000  17.44000
