My System
 2104
    1BCK1    B1    1   0.256   2.742   2.342
    1BCK1    B1    2   0.424   2.580   2.279
    1BCK1    B1    3   0.591   2.415   2.216
    1BCK1    B1    4   0.757   2.246   2.158
    1BCK1    B1    5   0.925   2.076   2.109
    1BCK1    B1    6   1.094   1.907   2.057
    1BCK1    B1    7   1.260   1.741   1.990
    1BCK1    B1    8   1.420   1.580   1.897
    1BCK1    B1    9   1.570   1.430   1.777
    1BCK1    B1   10   1.708   1.292   1.628
    1BCK1    B1   11   1.831   1.169   1.454
    1BCK1    B1   12   1.938   1.061   1.260
    1BCK1    B1   13   2.035   0.959   1.058
    1BCK1    B1   14   2.128   0.850   0.856
    1BCK1    B1   15   2.219   0.722   0.665
    1BCK1    B1   16   2.307   0.561   0.496
    1BCK1    B1   17   2.387   0.366   0.363
    1BCK1    B1   18   2.458   0.146   0.269
    1BCK1    B1   19   9.349   6.504   0.258
    1BCK1    B1   20   9.459   6.591   0.468
    1BCK1    B1   21   9.600   6.697   0.649
    1BCK1    B1   22   9.761   6.817   0.799
    1BCK1    B1   23   9.930   6.947   0.931
    1BCK1    B1   24  10.091   7.087   1.061
    1BCK1    B1   25  10.222   7.243   1.206
    1BCK1    B1   26  10.289   7.415   1.375
    1BCK1    B1   27  10.265   7.588   1.555
    1BCK1    B1   28  10.152   7.741   1.722
    1BCK1    B1   29   9.977   7.867   1.860
    1BCK1    B1   30   9.764   7.969   1.968
    1BCK1    B1   31   9.526   8.053   2.051
    1BCK1    B1   32   9.273   8.121   2.115
    1BCK1    B1   33   9.008   8.178   2.165
    1BCK1    B1   34   8.733   8.226   2.204
    1BCK1    B1   35   8.450   8.266   2.235
    1BCK1    B1   36   8.159   8.300   2.260
    1BCK1    B1   37   0.413   3.422  20.194
    1BCK1    B1   38   0.442   3.579  20.380
    1BCK1    B1   39   0.373   3.764  20.527
    1BCK1    B1   40   0.227   3.915   0.027
    1BCK1    B1   41   0.063   4.086   0.087
    1BCK1    B1   42  23.299   4.227   0.012
    1BCK1    B1   43  23.087   4.233  20.515
    1BCK1    B1   44  22.843   4.220  20.488
    1BCK1    B1   45  22.652   4.379  20.496
    1BCK1    B1   46  22.661   4.628  20.498
    1BCK1    B1   47  22.859   4.777  20.493
    1BCK1    B1   48  23.103   4.768  20.517
    1BCK1    B1   49  23.325   4.799  20.615
    1BCK1    B1   50   0.086   4.944   0.065
    1BCK1    B1   51   0.244   5.131   0.060
    1BCK1    B1   52   0.413   5.297  20.615
    1BCK1    B1   53   0.595   5.419  20.498
    1BCK1    B1   54   0.774   5.490  20.341
    1BCK1    B1   55  23.359   4.000   5.895
    1BCK1    B1   56  23.372   4.242   5.906
    1BCK1    B1   57  23.390   4.485   5.937
    1BCK1    B1   58  23.419   4.723   5.983
    1BCK1    B1   59   0.034   4.959   6.034
    1BCK1    B1   60   0.079   5.193   6.089
    1BCK1    B1   61   0.129   5.421   6.161
    1BCK1    B1   62   0.174   5.647   6.240
    1BCK1    B1   63   0.236   5.873   6.307
    1BCK1    B1   64   0.251   6.117   6.285
    1BCK1    B1   65   0.203   6.344   6.211
    1BCK1    B1   66   0.157   6.576   6.152
    1BCK1    B1   67   0.086   6.801   6.091
    1BCK1    B1   68   0.031   7.032   6.036
    1BCK1    B1   69  23.411   7.267   5.985
    1BCK1    B1   70  23.374   7.504   5.940
    1BCK1    B1   71  23.348   7.745   5.907
    1BCK1    B1   72  23.332   7.986   5.889
    1BCK1    B1   73   2.673   2.555   3.302
    1BCK1    B1   74   2.468   2.535   3.174
    1BCK1    B1   75   2.261   2.638   3.094
    1BCK1    B1   76   2.084   2.804   3.099
    1BCK1    B1   77   1.891   2.951   3.082
    1BCK1    B1   78   1.761   3.122   2.965
    1BCK1    B1   79   1.764   3.310   2.810
    1BCK1    B1   80   1.779   3.537   2.720
    1BCK1    B1   81   1.622   3.723   2.666
    1BCK1    B1   82   1.372   3.720   2.669
    1BCK1    B1   83   1.219   3.534   2.726
    1BCK1    B1   84   1.232   3.307   2.818
    1BCK1    B1   85   1.222   3.113   2.964
    1BCK1    B1   86   1.090   2.937   3.071
    1BCK1    B1   87   0.901   2.785   3.090
    1BCK1    B1   88   0.723   2.619   3.100
    1BCK1    B1   89   0.518   2.516   3.183
    1BCK1    B1   90   0.311   2.523   3.309
    1BCK1    B1   91   5.559   9.803   3.635
    1BCK1    B1   92   5.359   9.861   3.763
    1BCK1    B1   93   5.169   9.956   3.890
    1BCK1    B1   94   4.993  10.075   4.021
    1BCK1    B1   95   4.832  10.217   4.152
    1BCK1    B1   96   4.685  10.378   4.279
    1BCK1    B1   97   4.552  10.559   4.401
    1BCK1    B1   98   4.432  10.757   4.516
    1BCK1    B1   99   4.326  10.970   4.623
    1BCK1    B1  100   4.231  11.195   4.720
    1BCK1    B1  101   4.148  11.432   4.809
    1BCK1    B1  102   4.075  11.678   4.889
    1BCK1    B1  103   4.010  11.933   4.960
    1BCK1    B1  104   3.953  12.194   5.024
    1BCK1    B1  105   3.903  12.462   5.080
    1BCK1    B1  106   3.859  12.735   5.129
    1BCK1    B1  107   3.820  13.014   5.172
    1BCK1    B1  108   3.785  13.297   5.210
    1BCK1    B1  109   1.118   3.224   6.233
    1BCK1    B1  110   1.326   3.218   6.106
    1BCK1    B1  111   1.521   3.178   5.963
    1BCK1    B1  112   1.732   3.134   5.846
    1BCK1    B1  113   1.967   3.070   5.816
    1BCK1    B1  114   2.196   2.986   5.841
    1BCK1    B1  115   2.418   2.887   5.810
    1BCK1    B1  116   2.640   2.789   5.776
    1BCK1    B1  117   2.872   2.720   5.738
    1BCK1    B1  118   3.116   2.732   5.735
    1BCK1    B1  119   3.350   2.742   5.805
    1BCK1    B1  120   3.584   2.777   5.864
    1BCK1    B1  121   3.805   2.868   5.924
    1BCK1    B1  122   4.031   2.948   5.969
    1BCK1    B1  123   4.265   3.011   6.006
    1BCK1    B1  124   4.503   3.062   6.035
    1BCK1    B1  125   4.745   3.094   6.056
    1BCK1    B1  126   4.988   3.106   6.066
    1BCK1    B1  127   0.638   8.465   2.968
    1BCK1    B1  128   0.768   8.528   3.162
    1BCK1    B1  129   0.987   8.603   3.240
    1BCK1    B1  130   1.214   8.690   3.258
    1BCK1    B1  131   1.410   8.837   3.243
    1BCK1    B1  132   1.505   9.062   3.208
    1BCK1    B1  133   1.453   9.296   3.150
    1BCK1    B1  134   1.318   9.467   3.034
    1BCK1    B1  135   1.341   9.650   2.867
    1BCK1    B1  136   1.559   9.751   2.792
    1BCK1    B1  137   1.786   9.666   2.848
    1BCK1    B1  138   1.886   9.466   2.948
    1BCK1    B1  139   1.960   9.248   3.024
    1BCK1    B1  140   2.082   9.044   3.074
    1BCK1    B1  141   2.137   8.808   3.088
    1BCK1    B1  142   2.253   8.606   3.156
    1BCK1    B1  143   2.459   8.478   3.189
    1BCK1    B1  144   2.686   8.425   3.128
    1BCK1    B1  145  23.001   8.601   8.634
    1BCK1    B1  146  22.946   8.655   8.403
    1BCK1    B1  147  22.847   8.799   8.232
    1BCK1    B1  148  22.683   8.961   8.153
    1BCK1    B1  149  22.462   9.056   8.110
    1BCK1    B1  150  22.243   9.128   8.031
    1BCK1    B1  151  22.054   9.208   7.897
    1BCK1    B1  152  21.945   9.252   7.679
    1BCK1    B1  153  21.977   9.241   7.433
    1BCK1    B1  154  22.129   9.206   7.237
    1BCK1    B1  155  22.337   9.175   7.095
    1BCK1    B1  156  22.570   9.153   6.984
    1BCK1    B1  157  22.818   9.139   6.894
    1BCK1    B1  158  23.075   9.135   6.816
    1BCK1    B1  159  23.344   9.129   6.757
    1BCK1    B1  160   0.199   9.120   6.719
    1BCK1    B1  161   0.485   9.116   6.690
    1BCK1    B1  162   0.779   9.115   6.666
    1BCK1    B1  163   3.411   3.578   2.846
    1BCK1    B1  164   3.543   3.679   2.669
    1BCK1    B1  165   3.669   3.765   2.478
    1BCK1    B1  166   3.789   3.834   2.278
    1BCK1    B1  167   3.910   3.897   2.076
    1BCK1    B1  168   4.031   3.966   1.875
    1BCK1    B1  169   4.152   4.047   1.679
    1BCK1    B1  170   4.280   4.146   1.495
    1BCK1    B1  171   4.418   4.266   1.334
    1BCK1    B1  172   4.564   4.412   1.202
    1BCK1    B1  173   4.708   4.580   1.096
    1BCK1    B1  174   4.848   4.762   1.009
    1BCK1    B1  175   4.986   4.951   0.933
    1BCK1    B1  176   5.120   5.142   0.854
    1BCK1    B1  177   5.245   5.332   0.760
    1BCK1    B1  178   5.356   5.517   0.639
    1BCK1    B1  179   5.455   5.688   0.491
    1BCK1    B1  180   5.550   5.844   0.325
    1BCK1    B1  181   3.346   5.608   8.442
    1BCK1    B1  182   3.392   5.387   8.530
    1BCK1    B1  183   3.507   5.255   8.701
    1BCK1    B1  184   3.674   5.223   8.875
    1BCK1    B1  185   3.868   5.144   8.999
    1BCK1    B1  186   4.063   5.031   9.089
    1BCK1    B1  187   4.258   4.956   9.213
    1BCK1    B1  188   4.428   4.900   9.377
    1BCK1    B1  189   4.603   4.780   9.498
    1BCK1    B1  190   4.778   4.609   9.499
    1BCK1    B1  191   4.900   4.434   9.380
    1BCK1    B1  192   4.949   4.260   9.218
    1BCK1    B1  193   4.990   4.056   9.092
    1BCK1    B1  194   5.060   3.849   8.984
    1BCK1    B1  195   5.160   3.657   8.872
    1BCK1    B1  196   5.316   3.469   8.845
    1BCK1    B1  197   5.481   3.326   8.960
    1BCK1    B1  198   5.591   3.257   9.170
    1BCK1    B1  199   6.415   6.284   9.524
    1BCK1    B1  200   6.596   6.204   9.668
    1BCK1    B1  201   6.771   6.118   9.821
    1BCK1    B1  202   6.942   6.036   9.982
    1BCK1    B1  203   7.108   5.959  10.156
    1BCK1    B1  204   7.261   5.886  10.345
    1BCK1    B1  205   7.395   5.808  10.549
    1BCK1    B1  206   7.530   5.765  10.764
    1BCK1    B1  207   7.657   5.786  10.992
    1BCK1    B1  208   7.758   5.834  11.231
    1BCK1    B1  209   7.850   5.870  11.479
    1BCK1    B1  210   7.933   5.900  11.733
    1BCK1    B1  211   8.008   5.924  11.995
    1BCK1    B1  212   8.072   5.945  12.263
    1BCK1    B1  213   8.129   5.962  12.536
    1BCK1    B1  214   8.177   5.975  12.813
    1BCK1    B1  215   8.219   5.986  13.096
    1BCK1    B1  216   8.255   5.993  13.382
    1BCK1    B1  217   5.588   6.186   6.626
    1BCK1    B1  218   5.453   6.369   6.713
    1BCK1    B1  219   5.324   6.564   6.786
    1BCK1    B1  220   5.194   6.763   6.849
    1BCK1    B1  221   5.063   6.961   6.914
    1BCK1    B1  222   4.928   7.155   6.989
    1BCK1    B1  223   4.789   7.338   7.081
    1BCK1    B1  224   4.644   7.505   7.193
    1BCK1    B1  225   4.494   7.654   7.327
    1BCK1    B1  226   4.344   7.784   7.481
    1BCK1    B1  227   4.197   7.900   7.648
    1BCK1    B1  228   4.056   8.013   7.826
    1BCK1    B1  229   3.926   8.132   8.009
    1BCK1    B1  230   3.809   8.267   8.193
    1BCK1    B1  231   3.707   8.422   8.372
    1BCK1    B1  232   3.621   8.600   8.541
    1BCK1    B1  233   3.551   8.797   8.698
    1BCK1    B1  234   3.498   9.012   8.844
    1BCK1    B1  235   0.759  19.770  19.245
    1BCK1    B1  236   0.847  19.652  19.441
    1BCK1    B1  237   1.019  19.471  19.457
    1BCK1    B1  238   1.158  19.315  19.321
    1BCK1    B1  239   1.280  19.155  19.166
    1BCK1    B1  240   1.391  18.987  19.008
    1BCK1    B1  241   1.493  18.812  18.840
    1BCK1    B1  242   1.585  18.636  18.666
    1BCK1    B1  243   1.670  18.454  18.481
    1BCK1    B1  244   1.746  18.273  18.291
    1BCK1    B1  245   1.816  18.086  18.091
    1BCK1    B1  246   1.878  17.899  17.888
    1BCK1    B1  247   1.935  17.708  17.676
    1BCK1    B1  248   1.986  17.517  17.460
    1BCK1    B1  249   2.033  17.323  17.236
    1BCK1    B1  250   2.074  17.129  17.009
    1BCK1    B1  251   2.112  16.932  16.775
    1BCK1    B1  252   2.145  16.735  16.536
    1BCK1    B1  253   6.313   2.601   6.342
    1BCK1    B1  254   6.537   2.562   6.262
    1BCK1    B1  255   6.756   2.470   6.211
    1BCK1    B1  256   6.891   2.288   6.122
    1BCK1    B1  257   6.938   2.074   6.016
    1BCK1    B1  258   6.995   1.862   5.912
    1BCK1    B1  259   7.069   1.699   5.748
    1BCK1    B1  260   7.157   1.601   5.543
    1BCK1    B1  261   7.317   1.479   5.405
    1BCK1    B1  262   7.491   1.306   5.408
    1BCK1    B1  263   7.599   1.125   5.530
    1BCK1    B1  264   7.694   1.024   5.731
    1BCK1    B1  265   7.838   1.044   5.927
    1BCK1    B1  266   8.010   1.165   6.054
    1BCK1    B1  267   8.238   1.104   6.138
    1BCK1    B1  268   8.325   0.870   6.127
    1BCK1    B1  269   8.197   0.657   6.118
    1BCK1    B1  270   7.981   0.556   6.166
    1BCK1    B1  271   9.416   3.093   6.514
    1BCK1    B1  272   9.324   3.292   6.613
    1BCK1    B1  273   9.206   3.478   6.716
    1BCK1    B1  274   9.122   3.684   6.812
    1BCK1    B1  275   9.042   3.896   6.899
    1BCK1    B1  276   8.923   4.089   6.987
    1BCK1    B1  277   8.766   4.263   7.048
    1BCK1    B1  278   8.619   4.455   7.076
    1BCK1    B1  279   8.536   4.668   7.160
    1BCK1    B1  280   8.535   4.840   7.333
    1BCK1    B1  281   8.617   4.924   7.547
    1BCK1    B1  282   8.764   4.952   7.738
    1BCK1    B1  283   8.922   5.013   7.912
    1BCK1    B1  284   9.043   5.101   8.103
    1BCK1    B1  285   9.123   5.188   8.315
    1BCK1    B1  286   9.202   5.285   8.523
    1BCK1    B1  287   9.310   5.391   8.713
    1BCK1    B1  288   9.397   5.484   8.917
    1BCK1    B1  289   6.540   2.950   6.629
    1BCK1    B1  290   6.659   2.753   6.705
    1BCK1    B1  291   6.743   2.526   6.726
    1BCK1    B1  292   6.814   2.293   6.738
    1BCK1    B1  293   6.888   2.081   6.833
    1BCK1    B1  294   6.957   1.893   6.972
    1BCK1    B1  295   7.030   1.708   7.112
    1BCK1    B1  296   7.122   1.527   7.246
    1BCK1    B1  297   7.237   1.358   7.378
    1BCK1    B1  298   7.373   1.212   7.517
    1BCK1    B1  299   7.531   1.095   7.660
    1BCK1    B1  300   7.709   1.009   7.802
    1BCK1    B1  301   7.897   0.946   7.942
    1BCK1    B1  302   8.087   0.894   8.085
    1BCK1    B1  303   8.281   0.841   8.221
    1BCK1    B1  304   8.483   0.775   8.339
    1BCK1    B1  305   8.680   0.709   8.466
    1BCK1    B1  306   8.841   0.676   8.641
    1BCK1    B1  307   8.397   3.292   3.777
    1BCK1    B1  308   8.268   3.457   3.655
    1BCK1    B1  309   8.196   3.682   3.591
    1BCK1    B1  310   8.176   3.922   3.629
    1BCK1    B1  311   8.192   4.127   3.760
    1BCK1    B1  312   8.159   4.280   3.947
    1BCK1    B1  313   8.048   4.387   4.136
    1BCK1    B1  314   7.886   4.526   4.253
    1BCK1    B1  315   7.720   4.683   4.336
    1BCK1    B1  316   7.576   4.794   4.498
    1BCK1    B1  317   7.478   4.883   4.702
    1BCK1    B1  318   7.358   5.035   4.850
    1BCK1    B1  319   7.192   5.196   4.930
    1BCK1    B1  320   6.982   5.303   4.990
    1BCK1    B1  321   6.757   5.336   5.081
    1BCK1    B1  322   6.558   5.329   5.221
    1BCK1    B1  323   6.395   5.352   5.401
    1BCK1    B1  324   6.255   5.421   5.586
    1BCK1    B1  325   5.741   6.530   3.112
    1BCK1    B1  326   5.502   6.491   3.097
    1BCK1    B1  327   5.306   6.345   3.097
    1BCK1    B1  328   5.153   6.157   3.116
    1BCK1    B1  329   4.955   6.020   3.082
    1BCK1    B1  330   4.796   5.890   2.949
    1BCK1    B1  331   4.760   5.717   2.781
    1BCK1    B1  332   4.784   5.499   2.674
    1BCK1    B1  333   4.661   5.303   2.587
    1BCK1    B1  334   4.416   5.264   2.556
    1BCK1    B1  335   4.227   5.410   2.626
    1BCK1    B1  336   4.206   5.605   2.772
    1BCK1    B1  337   4.262   5.800   2.907
    1BCK1    B1  338   4.238   6.042   2.926
    1BCK1    B1  339   4.149   6.251   2.835
    1BCK1    B1  340   4.076   6.482   2.866
    1BCK1    B1  341   3.989   6.624   3.048
    1BCK1    B1  342   3.892   6.607   3.268
    1BCK1    B1  343   0.607   3.629   6.169
    1BCK1    B1  344   0.715   3.474   6.019
    1BCK1    B1  345   0.739   3.272   5.884
    1BCK1    B1  346   0.833   3.049   5.856
    1BCK1    B1  347   0.988   2.875   5.931
    1BCK1    B1  348   1.208   2.780   5.878
    1BCK1    B1  349   1.290   2.630   5.699
    1BCK1    B1  350   1.260   2.386   5.658
    1BCK1    B1  351   1.337   2.200   5.808
    1BCK1    B1  352   1.522   2.221   5.975
    1BCK1    B1  353   1.683   2.403   6.020
    1BCK1    B1  354   1.754   2.633   6.057
    1BCK1    B1  355   1.811   2.808   6.217
    1BCK1    B1  356   1.846   3.022   6.326
    1BCK1    B1  357   1.916   3.256   6.304
    1BCK1    B1  358   2.065   3.407   6.183
    1BCK1    B1  359   2.276   3.448   6.069
    1BCK1    B1  360   2.509   3.457   6.007
    1BCK1    B1  361   5.808   8.780   2.822
    1BCK1    B1  362   5.811   8.552   2.722
    1BCK1    B1  363   5.826   8.357   2.569
    1BCK1    B1  364   5.856   8.216   2.369
    1BCK1    B1  365   5.907   8.126   2.146
    1BCK1    B1  366   5.988   8.075   1.919
    1BCK1    B1  367   6.070   8.059   1.689
    1BCK1    B1  368   6.142   8.033   1.456
    1BCK1    B1  369   6.191   7.939   1.236
    1BCK1    B1  370   6.191   7.766   1.062
    1BCK1    B1  371   6.146   7.544   0.969
    1BCK1    B1  372   6.086   7.308   0.946
    1BCK1    B1  373   6.030   7.069   0.941
    1BCK1    B1  374   5.979   6.832   0.904
    1BCK1    B1  375   5.943   6.606   0.814
    1BCK1    B1  376   5.934   6.409   0.663
    1BCK1    B1  377   5.952   6.269   0.459
    1BCK1    B1  378   5.989   6.196   0.223
    1BCK1    B1  379   6.321   9.305   5.517
    1BCK1    B1  380   6.516   9.168   5.473
    1BCK1    B1  381   6.738   9.105   5.558
    1BCK1    B1  382   6.851   9.060   5.772
    1BCK1    B1  383   6.817   8.923   5.972
    1BCK1    B1  384   6.860   8.773   6.160
    1BCK1    B1  385   6.988   8.701   6.355
    1BCK1    B1  386   7.091   8.710   6.577
    1BCK1    B1  387   7.311   8.705   6.693
    1BCK1    B1  388   7.531   8.653   6.583
    1BCK1    B1  389   7.561   8.581   6.347
    1BCK1    B1  390   7.547   8.628   6.109
    1BCK1    B1  391   7.566   8.708   5.879
    1BCK1    B1  392   7.649   8.850   5.698
    1BCK1    B1  393   7.811   8.992   5.583
    1BCK1    B1  394   8.035   9.073   5.524
    1BCK1    B1  395   8.246   9.147   5.628
    1BCK1    B1  396   8.322   9.232   5.844
    1BCK1    B1  397   9.706   2.698   8.742
    1BCK1    B1  398   9.792   2.541   8.578
    1BCK1    B1  399   9.813   2.367   8.409
    1BCK1    B1  400   9.773   2.198   8.237
    1BCK1    B1  401   9.794   2.048   8.045
    1BCK1    B1  402   9.896   1.917   7.864
    1BCK1    B1  403   9.989   1.778   7.686
    1BCK1    B1  404  10.089   1.631   7.516
    1BCK1    B1  405  10.193   1.480   7.353
    1BCK1    B1  406  10.233   1.307   7.180
    1BCK1    B1  407  10.159   1.136   7.015
    1BCK1    B1  408   9.991   1.003   6.884
    1BCK1    B1  409   9.778   0.908   6.781
    1BCK1    B1  410   9.546   0.837   6.691
    1BCK1    B1  411   9.307   0.782   6.599
    1BCK1    B1  412   9.059   0.712   6.527
    1BCK1    B1  413   8.804   0.643   6.464
    1BCK1    B1  414   8.536   0.595   6.408
    1BCK1    B1  415   9.003   8.425   2.835
    1BCK1    B1  416   9.252   8.385   2.816
    1BCK1    B1  417   9.503   8.357   2.809
    1BCK1    B1  418   9.751   8.331   2.838
    1BCK1    B1  419   9.980   8.271   2.919
    1BCK1    B1  420  10.167   8.133   3.010
    1BCK1    B1  421  10.299   7.930   3.065
    1BCK1    B1  422  10.408   7.710   3.094
    1BCK1    B1  423  10.487   7.476   3.110
    1BCK1    B1  424  10.483   7.227   3.091
    1BCK1    B1  425  10.372   7.010   3.033
    1BCK1    B1  426  10.183   6.861   2.957
    1BCK1    B1  427   9.954   6.771   2.889
    1BCK1    B1  428   9.705   6.720   2.840
    1BCK1    B1  429   9.446   6.692   2.808
    1BCK1    B1  430   9.181   6.681   2.789
    1BCK1    B1  431   8.911   6.681   2.778
    1BCK1    B1  432   8.638   6.671   2.782
    1BCK1    B1  433   0.379  20.603  20.545
    1BCK1    B1  434   0.263   0.056   0.144
    1BCK1    B1  435   0.163   0.106   0.375
    1BCK1    B1  436   0.084   0.117   0.616
    1BCK1    B1  437   0.038   0.066   0.856
    1BCK1    B1  438   0.034  20.556   1.066
    1BCK1    B1  439   0.071  20.347   1.191
    1BCK1    B1  440   0.140  20.114   1.220
    1BCK1    B1  441   0.209  19.915   1.350
    1BCK1    B1  442   0.216  19.869   1.595
    1BCK1    B1  443   0.146  20.022   1.779
    1BCK1    B1  444   0.065  20.254   1.782
    1BCK1    B1  445   0.045  20.495   1.749
    1BCK1    B1  446   0.012   0.088   1.859
    1BCK1    B1  447  23.366   0.221   2.051
    1BCK1    B1  448  23.282   0.354   2.235
    1BCK1    B1  449  23.248   0.493   2.432
    1BCK1    B1  450  23.263   0.557   2.664
    1BCK1    B1  451   8.660  20.169   3.344
    1BCK1    B1  452   8.451  20.155   3.222
    1BCK1    B1  453   8.258  20.270   3.125
    1BCK1    B1  454   8.128  20.472   3.086
    1BCK1    B1  455   7.960   0.020   3.050
    1BCK1    B1  456   7.806   0.140   2.904
    1BCK1    B1  457   7.780   0.274   2.703
    1BCK1    B1  458   7.804   0.482   2.574
    1BCK1    B1  459   7.645   0.666   2.518
    1BCK1    B1  460   7.397   0.667   2.551
    1BCK1    B1  461   7.250   0.491   2.644
    1BCK1    B1  462   7.261   0.281   2.769
    1BCK1    B1  463   7.239   0.126   2.955
    1BCK1    B1  464   7.092  20.620   3.103
    1BCK1    B1  465   6.902  20.477   3.156
    1BCK1    B1  466   6.751  20.291   3.200
    1BCK1    B1  467   6.629  20.103   3.296
    1BCK1    B1  468   6.538  19.909   3.408
    1BCK1    B1  469   0.164   3.361   0.091
    1BCK1    B1  470   0.194   3.497   0.297
    1BCK1    B1  471   0.189   3.666   0.479
    1BCK1    B1  472   0.130   3.817   0.666
    1BCK1    B1  473   0.030   3.919   0.868
    1BCK1    B1  474  23.324   3.982   1.068
    1BCK1    B1  475  23.186   4.037   1.265
    1BCK1    B1  476  23.075   4.125   1.466
    1BCK1    B1  477  23.030   4.270   1.661
    1BCK1    B1  478  23.068   4.459   1.816
    1BCK1    B1  479  23.166   4.659   1.925
    1BCK1    B1  480  23.294   4.856   2.011
    1BCK1    B1  481   0.018   5.044   2.092
    1BCK1    B1  482   0.182   5.219   2.174
    1BCK1    B1  483   0.366   5.374   2.258
    1BCK1    B1  484   0.573   5.505   2.341
    1BCK1    B1  485   0.799   5.610   2.418
    1BCK1    B1  486   1.040   5.690   2.489
    1BCK1    B1  487  22.607   2.381   6.641
    1BCK1    B1  488  22.470   2.230   6.786
    1BCK1    B1  489  22.323   2.081   6.930
    1BCK1    B1  490  22.160   1.938   7.069
    1BCK1    B1  491  21.980   1.803   7.200
    1BCK1    B1  492  21.781   1.678   7.324
    1BCK1    B1  493  21.567   1.563   7.438
    1BCK1    B1  494  21.337   1.459   7.542
    1BCK1    B1  495  21.094   1.365   7.637
    1BCK1    B1  496  20.837   1.281   7.722
    1BCK1    B1  497  20.571   1.207   7.799
    1BCK1    B1  498  20.293   1.142   7.868
    1BCK1    B1  499  20.008   1.084   7.929
    1BCK1    B1  500  19.713   1.034   7.984
    1BCK1    B1  501  19.411   0.991   8.032
    1BCK1    B1  502  19.102   0.954   8.074
    1BCK1    B1  503  18.786   0.922   8.111
    1BCK1    B1  504  18.462   0.896   8.144
    1BCK1    B1  505   9.730   2.980   0.233
    1BCK1    B1  506   9.761   3.210   0.166
    1BCK1    B1  507   9.741   3.428   0.061
    1BCK1    B1  508   9.788   3.648  20.595
    1BCK1    B1  509   9.882   3.856  20.514
    1BCK1    B1  510   9.948   4.089  20.521
    1BCK1    B1  511   9.921   4.326  20.569
    1BCK1    B1  512   9.911   4.549  20.469
    1BCK1    B1  513  10.037   4.707  20.328
    1BCK1    B1  514  10.138   4.931  20.362
    1BCK1    B1  515  10.039   5.130  20.478
    1BCK1    B1  516   9.807   5.210  20.535
    1BCK1    B1  517   9.554   5.250  20.537
    1BCK1    B1  518   9.294   5.286  20.521
    1BCK1    B1  519   9.027   5.318  20.494
    1BCK1    B1  520   8.754   5.348  20.457
    1BCK1    B1  521   8.474   5.375  20.413
    1BCK1    B1  522   8.188   5.400  20.360
    1BCK1    B1  523   0.623   6.398   9.889
    1BCK1    B1  524   0.397   6.398   9.786
    1BCK1    B1  525   0.164   6.312   9.802
    1BCK1    B1  526   0.029   6.155   9.939
    1BCK1    B1  527  23.422   5.986  10.117
    1BCK1    B1  528  23.393   5.837  10.313
    1BCK1    B1  529  23.361   5.743  10.542
    1BCK1    B1  530  23.348   5.712  10.792
    1BCK1    B1  531  23.357   5.727  11.046
    1BCK1    B1  532  23.380   5.762  11.301
    1BCK1    B1  533  23.411   5.805  11.557
    1BCK1    B1  534   0.025   5.846  11.817
    1BCK1    B1  535   0.067   5.882  12.080
    1BCK1    B1  536   0.114   5.912  12.348
    1BCK1    B1  537   0.166   5.935  12.619
    1BCK1    B1  538   0.223   5.951  12.894
    1BCK1    B1  539   0.288   5.960  13.172
    1BCK1    B1  540   0.360   5.963  13.453
    1BCK1    B1  541  23.156   8.581   6.390
    1BCK1    B1  542  23.188   8.616   6.626
    1BCK1    B1  543  23.217   8.645   6.865
    1BCK1    B1  544  23.231   8.754   7.083
    1BCK1    B1  545  23.322   8.940   7.216
    1BCK1    B1  546   0.091   9.091   7.234
    1BCK1    B1  547   0.323   9.149   7.191
    1BCK1    B1  548   0.536   9.271   7.192
    1BCK1    B1  549   0.679   9.383   7.361
    1BCK1    B1  550   0.670   9.373   7.610
    1BCK1    B1  551   0.515   9.245   7.756
    1BCK1    B1  552   0.300   9.131   7.730
    1BCK1    B1  553   0.055   9.130   7.743
    1BCK1    B1  554  23.303   9.103   7.916
    1BCK1    B1  555  23.295   8.987   8.134
    1BCK1    B1  556  23.401   8.801   8.249
    1BCK1    B1  557   0.044   8.640   8.418
    1BCK1    B1  558   0.053   8.578   8.650
    1BCK1    B1  559   0.190   8.834   3.034
    1BCK1    B1  560  23.375   8.826   3.099
    1BCK1    B1  561  23.131   8.805   3.115
    1BCK1    B1  562  22.893   8.768   3.069
    1BCK1    B1  563  22.692   8.737   2.933
    1BCK1    B1  564  22.552   8.741   2.733
    1BCK1    B1  565  22.394   8.665   2.560
    1BCK1    B1  566  22.151   8.608   2.549
    1BCK1    B1  567  21.980   8.699   2.710
    1BCK1    B1  568  22.029   8.874   2.885
    1BCK1    B1  569  22.216   9.016   2.976
    1BCK1    B1  570  22.436   9.132   3.038
    1BCK1    B1  571  22.682   9.212   3.079
    1BCK1    B1  572  22.942   9.264   3.109
    1BCK1    B1  573  23.213   9.296   3.131
    1BCK1    B1  574   0.069   9.309   3.145
    1BCK1    B1  575   0.356   9.308   3.152
    1BCK1    B1  576   0.650   9.300   3.153
    1BCK1    B1  577  23.072   9.500   8.757
    1BCK1    B1  578  22.877   9.490   8.900
    1BCK1    B1  579  22.790   9.363   9.092
    1BCK1    B1  580  22.806   9.150   9.212
    1BCK1    B1  581  22.681   8.957   9.299
    1BCK1    B1  582  22.479   8.945   9.440
    1BCK1    B1  583  22.340   9.096   9.578
    1BCK1    B1  584  22.095   9.147   9.585
    1BCK1    B1  585  21.940   9.085   9.395
    1BCK1    B1  586  22.018   9.019   9.165
    1BCK1    B1  587  22.218   9.008   9.011
    1BCK1    B1  588  22.439   9.010   8.880
    1BCK1    B1  589  22.679   9.015   8.774
    1BCK1    B1  590  22.938   9.047   8.714
    1BCK1    B1  591  23.211   9.067   8.679
    1BCK1    B1  592   0.063   9.124   8.698
    1BCK1    B1  593   0.339   9.187   8.754
    1BCK1    B1  594   0.623   9.245   8.821
    1BCK1    B1  595   5.712   8.397   6.005
    1BCK1    B1  596   5.794   8.314   6.216
    1BCK1    B1  597   5.878   8.247   6.434
    1BCK1    B1  598   5.919   8.151   6.653
    1BCK1    B1  599   5.963   8.068   6.877
    1BCK1    B1  600   6.051   8.031   7.100
    1BCK1    B1  601   6.162   8.037   7.316
    1BCK1    B1  602   6.228   8.033   7.550
    1BCK1    B1  603   6.243   7.957   7.781
    1BCK1    B1  604   6.244   7.785   7.954
    1BCK1    B1  605   6.231   7.555   8.033
    1BCK1    B1  606   6.165   7.321   8.037
    1BCK1    B1  607   6.051   7.107   8.029
    1BCK1    B1  608   5.963   6.883   8.063
    1BCK1    B1  609   5.921   6.657   8.140
    1BCK1    B1  610   5.872   6.435   8.224
    1BCK1    B1  611   5.779   6.215   8.271
    1BCK1    B1  612   5.703   5.995   8.332
    1BCK1    B1  613   9.101   8.541   5.456
    1BCK1    B1  614   9.317   8.460   5.354
    1BCK1    B1  615   9.523   8.352   5.256
    1BCK1    B1  616   9.716   8.220   5.166
    1BCK1    B1  617   9.896   8.070   5.080
    1BCK1    B1  618  10.061   7.907   4.987
    1BCK1    B1  619  10.202   7.736   4.876
    1BCK1    B1  620  10.297   7.554   4.735
    1BCK1    B1  621  10.311   7.372   4.567
    1BCK1    B1  622  10.229   7.210   4.396
    1BCK1    B1  623  10.070   7.082   4.249
    1BCK1    B1  624   9.868   6.986   4.131
    1BCK1    B1  625   9.640   6.913   4.037
    1BCK1    B1  626   9.398   6.856   3.962
    1BCK1    B1  627   9.146   6.810   3.902
    1BCK1    B1  628   8.887   6.773   3.855
    1BCK1    B1  629   8.621   6.741   3.820
    1BCK1    B1  630   8.350   6.713   3.796
    1BCK1    B1  631   2.671   3.407   9.691
    1BCK1    B1  632   2.671   3.639   9.759
    1BCK1    B1  633   2.770   3.827   9.882
    1BCK1    B1  634   2.904   3.979  10.021
    1BCK1    B1  635   3.013   4.133  10.183
    1BCK1    B1  636   3.084   4.288  10.366
    1BCK1    B1  637   3.124   4.434  10.568
    1BCK1    B1  638   3.141   4.567  10.785
    1BCK1    B1  639   3.141   4.685  11.014
    1BCK1    B1  640   3.132   4.791  11.253
    1BCK1    B1  641   3.118   4.884  11.500
    1BCK1    B1  642   3.101   4.966  11.753
    1BCK1    B1  643   3.085   5.039  12.014
    1BCK1    B1  644   3.071   5.103  12.280
    1BCK1    B1  645   3.060   5.160  12.551
    1BCK1    B1  646   3.052   5.211  12.828
    1BCK1    B1  647   3.047   5.256  13.108
    1BCK1    B1  648   3.047   5.296  13.393
    1BCK1    B1  649   2.844   9.045   8.897
    1BCK1    B1  650   2.860   8.825   8.754
    1BCK1    B1  651   2.882   8.618   8.599
    1BCK1    B1  652   2.913   8.427   8.431
    1BCK1    B1  653   2.957   8.257   8.250
    1BCK1    B1  654   3.022   8.111   8.056
    1BCK1    B1  655   3.128   7.999   7.862
    1BCK1    B1  656   3.284   7.926   7.686
    1BCK1    B1  657   3.405   7.818   7.501
    1BCK1    B1  658   3.385   7.652   7.322
    1BCK1    B1  659   3.233   7.492   7.218
    1BCK1    B1  660   3.105   7.316   7.110
    1BCK1    B1  661   3.093   7.103   6.993
    1BCK1    B1  662   3.049   6.879   6.911
    1BCK1    B1  663   2.895   6.702   6.847
    1BCK1    B1  664   2.754   6.543   6.731
    1BCK1    B1  665   2.720   6.333   6.615
    1BCK1    B1  666   2.742   6.108   6.534
    1BCK1    B1  667   2.618   6.128   2.393
    1BCK1    B1  668   2.456   6.296   2.326
    1BCK1    B1  669   2.319   6.485   2.253
    1BCK1    B1  670   2.207   6.688   2.183
    1BCK1    B1  671   2.105   6.898   2.113
    1BCK1    B1  672   2.005   7.106   2.039
    1BCK1    B1  673   1.899   7.311   1.957
    1BCK1    B1  674   1.781   7.499   1.861
    1BCK1    B1  675   1.651   7.669   1.743
    1BCK1    B1  676   1.517   7.815   1.605
    1BCK1    B1  677   1.367   7.927   1.447
    1BCK1    B1  678   1.210   8.001   1.278
    1BCK1    B1  679   1.058   8.061   1.097
    1BCK1    B1  680   0.910   8.113   0.913
    1BCK1    B1  681   0.757   8.157   0.729
    1BCK1    B1  682   0.601   8.205   0.550
    1BCK1    B1  683   0.449   8.269   0.370
    1BCK1    B1  684   0.305   8.342   0.191
    1BCK1    B1  685   3.521   6.512   9.738
    1BCK1    B1  686   3.681   6.669   9.840
    1BCK1    B1  687   3.838   6.829   9.948
    1BCK1    B1  688   3.990   6.988  10.069
    1BCK1    B1  689   4.137   7.141  10.207
    1BCK1    B1  690   4.275   7.287  10.364
    1BCK1    B1  691   4.405   7.424  10.538
    1BCK1    B1  692   4.524   7.554  10.729
    1BCK1    B1  693   4.633   7.675  10.934
    1BCK1    B1  694   4.732   7.792  11.150
    1BCK1    B1  695   4.821   7.904  11.375
    1BCK1    B1  696   4.900   8.015  11.609
    1BCK1    B1  697   4.971   8.127  11.847
    1BCK1    B1  698   5.035   8.242  12.090
    1BCK1    B1  699   5.091   8.362  12.335
    1BCK1    B1  700   5.141   8.490  12.581
    1BCK1    B1  701   5.185   8.628  12.826
    1BCK1    B1  702   5.224   8.778  13.068
    1BCK1    B1  703   3.552   9.811  20.029
    1BCK1    B1  704   3.468   9.748  20.250
    1BCK1    B1  705   3.308   9.809  20.428
    1BCK1    B1  706   3.136   9.960  20.517
    1BCK1    B1  707   2.989  10.132  20.615
    1BCK1    B1  708   2.870  10.315   0.107
    1BCK1    B1  709   2.790  10.537   0.186
    1BCK1    B1  710   2.763  10.786   0.207
    1BCK1    B1  711   2.775  11.038   0.190
    1BCK1    B1  712   2.806  11.291   0.158
    1BCK1    B1  713   2.842  11.546   0.124
    1BCK1    B1  714   2.879  11.806   0.092
    1BCK1    B1  715   2.911  12.070   0.065
    1BCK1    B1  716   2.938  12.339   0.042
    1BCK1    B1  717   2.960  12.612   0.024
    1BCK1    B1  718   2.977  12.891   0.011
    1BCK1    B1  719   2.988  13.173   0.002
    1BCK1    B1  720   2.995  13.460  20.619
    1BCK1    B1  721   3.462   5.703   5.668
    1BCK1    B1  722   3.619   5.579   5.531
    1BCK1    B1  723   3.771   5.456   5.386
    1BCK1    B1  724   3.854   5.282   5.237
    1BCK1    B1  725   3.891   5.091   5.092
    1BCK1    B1  726   3.937   4.901   4.946
    1BCK1    B1  727   4.006   4.712   4.810
    1BCK1    B1  728   4.090   4.527   4.676
    1BCK1    B1  729   4.190   4.365   4.526
    1BCK1    B1  730   4.326   4.233   4.373
    1BCK1    B1  731   4.501   4.127   4.241
    1BCK1    B1  732   4.695   4.033   4.129
    1BCK1    B1  733   4.892   3.951   4.012
    1BCK1    B1  734   5.094   3.889   3.893
    1BCK1    B1  735   5.303   3.835   3.779
    1BCK1    B1  736   5.508   3.762   3.671
    1BCK1    B1  737   5.701   3.646   3.577
    1BCK1    B1  738   5.877   3.492   3.516
    1BCK1    B1  739   6.256   0.090   3.242
    1BCK1    B1  740   6.252   0.340   3.247
    1BCK1    B1  741   6.208   0.584   3.230
    1BCK1    B1  742   6.126   0.813   3.186
    1BCK1    B1  743   6.031   1.024   3.100
    1BCK1    B1  744   5.937   1.183   2.937
    1BCK1    B1  745   5.821   1.230   2.727
    1BCK1    B1  746   5.643   1.224   2.559
    1BCK1    B1  747   5.480   1.372   2.445
    1BCK1    B1  748   5.473   1.622   2.437
    1BCK1    B1  749   5.632   1.782   2.540
    1BCK1    B1  750   5.818   1.770   2.700
    1BCK1    B1  751   5.921   1.777   2.921
    1BCK1    B1  752   6.000   1.918   3.105
    1BCK1    B1  753   6.111   2.114   3.197
    1BCK1    B1  754   6.276   2.282   3.257
    1BCK1    B1  755   6.382   2.485   3.341
    1BCK1    B1  756   6.382   2.714   3.419
    1BCK1    B1  757   6.215   0.313   5.357
    1BCK1    B1  758   6.383   0.467   5.274
    1BCK1    B1  759   6.560   0.622   5.211
    1BCK1    B1  760   6.745   0.777   5.172
    1BCK1    B1  761   6.932   0.931   5.146
    1BCK1    B1  762   7.115   1.080   5.087
    1BCK1    B1  763   7.279   1.216   4.969
    1BCK1    B1  764   7.452   1.368   4.890
    1BCK1    B1  765   7.612   1.516   4.781
    1BCK1    B1  766   7.747   1.651   4.628
    1BCK1    B1  767   7.860   1.777   4.452
    1BCK1    B1  768   7.958   1.898   4.264
    1BCK1    B1  769   8.046   2.018   4.070
    1BCK1    B1  770   8.133   2.137   3.874
    1BCK1    B1  771   8.222   2.249   3.676
    1BCK1    B1  772   8.314   2.333   3.466
    1BCK1    B1  773   8.425   2.420   3.266
    1BCK1    B1  774   8.564   2.549   3.115
    1BCK1    B1  775   2.274   6.160   6.343
    1BCK1    B1  776   2.235   6.329   6.511
    1BCK1    B1  777   2.238   6.516   6.667
    1BCK1    B1  778   2.232   6.720   6.799
    1BCK1    B1  779   2.170   6.923   6.918
    1BCK1    B1  780   2.103   7.123   7.041
    1BCK1    B1  781   2.053   7.323   7.172
    1BCK1    B1  782   1.976   7.511   7.306
    1BCK1    B1  783   1.839   7.667   7.434
    1BCK1    B1  784   1.668   7.788   7.558
    1BCK1    B1  785   1.489   7.891   7.688
    1BCK1    B1  786   1.306   7.977   7.823
    1BCK1    B1  787   1.116   8.050   7.958
    1BCK1    B1  788   0.917   8.120   8.080
    1BCK1    B1  789   0.715   8.194   8.194
    1BCK1    B1  790   0.528   8.242   8.344
    1BCK1    B1  791   0.398   8.226   8.550
    1BCK1    B1  792   0.330   8.197   8.780
    1BCK1    B1  793   6.551  20.500   8.859
    1BCK1    B1  794   6.625   0.116   8.859
    1BCK1    B1  795   6.708   0.350   8.880
    1BCK1    B1  796   6.796   0.579   8.919
    1BCK1    B1  797   6.876   0.808   8.963
    1BCK1    B1  798   6.936   1.042   9.007
    1BCK1    B1  799   6.964   1.280   9.062
    1BCK1    B1  800   6.973   1.510   9.144
    1BCK1    B1  801   7.026   1.735   9.225
    1BCK1    B1  802   7.170   1.932   9.235
    1BCK1    B1  803   7.379   2.031   9.154
    1BCK1    B1  804   7.598   2.007   9.049
    1BCK1    B1  805   7.837   1.980   9.016
    1BCK1    B1  806   8.068   2.055   9.009
    1BCK1    B1  807   8.252   2.202   8.950
    1BCK1    B1  808   8.466   2.280   8.864
    1BCK1    B1  809   8.706   2.252   8.851
    1BCK1    B1  810   8.942   2.281   8.827
    1BCK1    B1  811   8.279   9.508   5.321
    1BCK1    B1  812   8.171   9.677   5.185
    1BCK1    B1  813   8.060   9.874   5.082
    1BCK1    B1  814   7.957  10.071   4.975
    1BCK1    B1  815   7.850  10.268   4.858
    1BCK1    B1  816   7.741  10.462   4.741
    1BCK1    B1  817   7.628  10.662   4.623
    1BCK1    B1  818   7.519  10.863   4.510
    1BCK1    B1  819   7.410  11.078   4.399
    1BCK1    B1  820   7.309  11.295   4.298
    1BCK1    B1  821   7.212  11.528   4.202
    1BCK1    B1  822   7.125  11.765   4.116
    1BCK1    B1  823   7.044  12.016   4.037
    1BCK1    B1  824   6.973  12.270   3.969
    1BCK1    B1  825   6.909  12.536   3.907
    1BCK1    B1  826   6.855  12.806   3.854
    1BCK1    B1  827   6.807  13.084   3.808
    1BCK1    B1  828   6.767  13.366   3.770
    1BCK1    B1  829   9.129   0.351   3.576
    1BCK1    B1  830   9.047   0.575   3.538
    1BCK1    B1  831   9.014   0.767   3.390
    1BCK1    B1  832   9.059   0.914   3.203
    1BCK1    B1  833   9.070   1.102   3.049
    1BCK1    B1  834   8.984   1.233   2.862
    1BCK1    B1  835   8.874   1.230   2.644
    1BCK1    B1  836   8.851   1.218   2.401
    1BCK1    B1  837   8.856   1.377   2.210
    1BCK1    B1  838   8.863   1.627   2.216
    1BCK1    B1  839   8.868   1.778   2.412
    1BCK1    B1  840   8.893   1.765   2.655
    1BCK1    B1  841   8.982   1.790   2.880
    1BCK1    B1  842   9.034   1.939   3.067
    1BCK1    B1  843   8.989   2.133   3.208
    1BCK1    B1  844   8.920   2.288   3.381
    1BCK1    B1  845   8.944   2.458   3.554
    1BCK1    B1  846   9.038   2.666   3.636
    1BCK1    B1  847  23.306   0.378   3.580
    1BCK1    B1  848  23.096   0.283   3.652
    1BCK1    B1  849  22.898   0.171   3.736
    1BCK1    B1  850  22.695   0.070   3.825
    1BCK1    B1  851  22.487  20.599   3.912
    1BCK1    B1  852  22.278  20.512   4.003
    1BCK1    B1  853  22.086  20.444   4.139
    1BCK1    B1  854  21.977  20.422   4.360
    1BCK1    B1  855  22.009  20.449   4.605
    1BCK1    B1  856  22.153  20.493   4.805
    1BCK1    B1  857  22.350  20.534   4.961
    1BCK1    B1  858  22.572  20.567   5.089
    1BCK1    B1  859  22.813  20.592   5.196
    1BCK1    B1  860  23.066  20.609   5.289
    1BCK1    B1  861  23.329  20.615   5.371
    1BCK1    B1  862   0.178  20.617   5.441
    1BCK1    B1  863   0.461  20.621   5.490
    1BCK1    B1  864   0.754   0.008   5.518
    1BCK1    B1  865   9.527   3.736  20.161
    1BCK1    B1  866   9.682   3.839  20.000
    1BCK1    B1  867   9.813   3.936  19.811
    1BCK1    B1  868   9.920   4.036  19.606
    1BCK1    B1  869  10.001   4.143  19.390
    1BCK1    B1  870  10.048   4.256  19.165
    1BCK1    B1  871  10.059   4.370  18.932
    1BCK1    B1  872  10.033   4.483  18.696
    1BCK1    B1  873   9.970   4.589  18.458
    1BCK1    B1  874   9.877   4.686  18.224
    1BCK1    B1  875   9.756   4.774  17.991
    1BCK1    B1  876   9.612   4.852  17.763
    1BCK1    B1  877   9.448   4.921  17.537
    1BCK1    B1  878   9.268   4.982  17.315
    1BCK1    B1  879   9.073   5.035  17.094
    1BCK1    B1  880   8.866   5.081  16.876
    1BCK1    B1  881   8.647   5.121  16.659
    1BCK1    B1  882   8.418   5.156  16.442
    1BCK1    B1  883   6.678  19.758  19.894
    1BCK1    B1  884   6.819  19.627  19.732
    1BCK1    B1  885   6.956  19.492  19.566
    1BCK1    B1  886   7.087  19.348  19.395
    1BCK1    B1  887   7.208  19.196  19.220
    1BCK1    B1  888   7.321  19.033  19.040
    1BCK1    B1  889   7.422  18.862  18.858
    1BCK1    B1  890   7.512  18.682  18.669
    1BCK1    B1  891   7.591  18.497  18.479
    1BCK1    B1  892   7.659  18.303  18.282
    1BCK1    B1  893   7.716  18.105  18.082
    1BCK1    B1  894   7.762  17.901  17.877
    1BCK1    B1  895   7.797  17.693  17.670
    1BCK1    B1  896   7.822  17.480  17.457
    1BCK1    B1  897   7.836  17.264  17.241
    1BCK1    B1  898   7.839  17.044  17.021
    1BCK1    B1  899   7.831  16.823  16.798
    1BCK1    B1  900   7.813  16.597  16.572
    1BCK1    B1  901   3.554  20.237   8.869
    1BCK1    B1  902   3.503  20.024   8.974
    1BCK1    B1  903   3.344  19.845   9.027
    1BCK1    B1  904   3.153  19.699   8.981
    1BCK1    B1  905   2.981  19.529   8.947
    1BCK1    B1  906   2.812  19.349   8.945
    1BCK1    B1  907   2.689  19.135   8.938
    1BCK1    B1  908   2.649  18.890   8.927
    1BCK1    B1  909   2.678  18.641   8.929
    1BCK1    B1  910   2.734  18.395   8.944
    1BCK1    B1  911   2.793  18.147   8.968
    1BCK1    B1  912   2.847  17.896   8.999
    1BCK1    B1  913   2.892  17.641   9.035
    1BCK1    B1  914   2.927  17.382   9.075
    1BCK1    B1  915   2.953  17.119   9.120
    1BCK1    B1  916   2.970  16.853   9.170
    1BCK1    B1  917   2.979  16.585   9.226
    1BCK1    B1  918   2.981  16.315   9.290
    1BCK1    B1  919   8.418   5.721   9.364
    1BCK1    B1  920   8.290   5.806   9.554
    1BCK1    B1  921   8.163   5.891   9.749
    1BCK1    B1  922   8.037   5.970   9.950
    1BCK1    B1  923   7.910   6.045  10.156
    1BCK1    B1  924   7.787   6.118  10.367
    1BCK1    B1  925   7.671   6.194  10.583
    1BCK1    B1  926   7.540   6.226  10.805
    1BCK1    B1  927   7.416   6.197  11.034
    1BCK1    B1  928   7.309   6.154  11.272
    1BCK1    B1  929   7.206   6.121  11.517
    1BCK1    B1  930   7.110   6.095  11.769
    1BCK1    B1  931   7.024   6.073  12.027
    1BCK1    B1  932   6.947   6.055  12.293
    1BCK1    B1  933   6.881   6.042  12.564
    1BCK1    B1  934   6.823   6.032  12.840
    1BCK1    B1  935   6.774   6.026  13.122
    1BCK1    B1  936   6.733   6.022  13.408
    1BCK1    B1  937   8.649   2.702   8.498
    1BCK1    B1  938   8.718   2.493   8.398
    1BCK1    B1  939   8.743   2.255   8.361
    1BCK1    B1  940   8.845   2.035   8.358
    1BCK1    B1  941   8.999   1.881   8.247
    1BCK1    B1  942   9.155   1.840   8.065
    1BCK1    B1  943   9.312   1.858   7.880
    1BCK1    B1  944   9.458   1.741   7.722
    1BCK1    B1  945   9.531   1.534   7.613
    1BCK1    B1  946   9.471   1.334   7.485
    1BCK1    B1  947   9.340   1.206   7.323
    1BCK1    B1  948   9.225   1.138   7.118
    1BCK1    B1  949   9.102   1.123   6.907
    1BCK1    B1  950   8.901   1.094   6.769
    1BCK1    B1  951   8.671   1.006   6.741
    1BCK1    B1  952   8.482   0.856   6.795
    1BCK1    B1  953   8.323   0.663   6.793
    1BCK1    B1  954   8.204   0.477   6.674
    1BCK1    B1  955  22.657   3.086   9.045
    1BCK1    B1  956  22.643   2.848   9.011
    1BCK1    B1  957  22.635   2.606   8.999
    1BCK1    B1  958  22.544   2.382   9.018
    1BCK1    B1  959  22.444   2.161   9.026
    1BCK1    B1  960  22.476   1.921   9.012
    1BCK1    B1  961  22.609   1.717   8.996
    1BCK1    B1  962  22.588   1.476   8.958
    1BCK1    B1  963  22.425   1.295   8.923
    1BCK1    B1  964  22.396   1.050   8.953
    1BCK1    B1  965  22.559   0.863   8.993
    1BCK1    B1  966  22.804   0.794   9.015
    1BCK1    B1  967  23.065   0.758   9.028
    1BCK1    B1  968  23.336   0.735   9.037
    1BCK1    B1  969   0.194   0.721   9.044
    1BCK1    B1  970   0.484   0.702   9.042
    1BCK1    B1  971   0.784   0.684   9.040
    1BCK1    B1  972   1.094   0.670   9.037
    1BCK1    B1  973   3.203  20.580   3.749
    1BCK1    B1  974   3.158   0.192   3.785
    1BCK1    B1  975   3.084   0.423   3.793
    1BCK1    B1  976   3.013   0.650   3.842
    1BCK1    B1  977   2.975   0.876   3.922
    1BCK1    B1  978   2.979   1.112   3.980
    1BCK1    B1  979   2.969   1.354   3.976
    1BCK1    B1  980   2.896   1.585   3.954
    1BCK1    B1  981   2.821   1.806   4.025
    1BCK1    B1  982   2.821   1.977   4.200
    1BCK1    B1  983   2.895   2.044   4.423
    1BCK1    B1  984   2.966   2.023   4.654
    1BCK1    B1  985   2.979   2.026   4.897
    1BCK1    B1  986   2.976   2.097   5.129
    1BCK1    B1  987   3.009   2.194   5.349
    1BCK1    B1  988   3.071   2.241   5.579
    1BCK1    B1  989   3.125   2.246   5.816
    1BCK1    B1  990   3.164   2.315   6.045
    1BCK1    B1  991   0.436   0.307   9.349
    1BCK1    B1  992   0.372   0.326   9.582
    1BCK1    B1  993   0.231   0.268   9.775
    1BCK1    B1  994   0.074   0.154   9.924
    1BCK1    B1  995  23.377   0.008  10.081
    1BCK1    B1  996  23.295  20.489  10.266
    1BCK1    B1  997  23.245  20.399  10.492
    1BCK1    B1  998  23.232  20.373  10.740
    1BCK1    B1  999  23.251  20.389  10.992
    1BCK1    B1 1000  23.288  20.421  11.242
    1BCK1    B1 1001  23.335  20.455  11.493
    1BCK1    B1 1002  23.388  20.482  11.747
    1BCK1    B1 1003   0.022  20.499  12.004
    1BCK1    B1 1004   0.082  20.505  12.264
    1BCK1    B1 1005   0.145  20.500  12.527
    1BCK1    B1 1006   0.213  20.482  12.792
    1BCK1    B1 1007   0.286  20.451  13.058
    1BCK1    B1 1008   0.364  20.409  13.324
    1BCK1    B1 1009   0.988   3.060   9.126
    1BCK1    B1 1010   1.230   3.053   9.114
    1BCK1    B1 1011   1.472   3.037   9.079
    1BCK1    B1 1012   1.709   3.011   9.026
    1BCK1    B1 1013   1.943   2.981   8.965
    1BCK1    B1 1014   2.178   2.945   8.906
    1BCK1    B1 1015   2.414   2.906   8.857
    1BCK1    B1 1016   2.653   2.868   8.823
    1BCK1    B1 1017   2.896   2.845   8.810
    1BCK1    B1 1018   3.141   2.847   8.819
    1BCK1    B1 1019   3.384   2.870   8.845
    1BCK1    B1 1020   3.623   2.904   8.886
    1BCK1    B1 1021   3.860   2.941   8.938
    1BCK1    B1 1022   4.096   2.979   8.995
    1BCK1    B1 1023   4.333   3.014   9.052
    1BCK1    B1 1024   4.569   3.040   9.119
    1BCK1    B1 1025   4.794   3.047   9.221
    1BCK1    B1 1026   4.986   3.028   9.376
    1BCK1    B1 1027   6.729   5.510   5.765
    1BCK1    B1 1028   6.830   5.316   5.660
    1BCK1    B1 1029   6.904   5.126   5.526
    1BCK1    B1 1030   6.923   4.952   5.356
    1BCK1    B1 1031   6.907   4.832   5.144
    1BCK1    B1 1032   6.920   4.772   4.909
    1BCK1    B1 1033   6.996   4.708   4.686
    1BCK1    B1 1034   7.100   4.606   4.490
    1BCK1    B1 1035   7.206   4.518   4.290
    1BCK1    B1 1036   7.348   4.447   4.105
    1BCK1    B1 1037   7.517   4.312   3.992
    1BCK1    B1 1038   7.661   4.116   3.977
    1BCK1    B1 1039   7.804   3.933   4.052
    1BCK1    B1 1040   8.008   3.811   4.107
    1BCK1    B1 1041   8.248   3.760   4.102
    1BCK1    B1 1042   8.475   3.754   4.012
    1BCK1    B1 1043   8.659   3.714   3.856
    1BCK1    B1 1044   8.816   3.626   3.692
    1BCK1    B1 1045  23.341   3.567   9.372
    1BCK1    B1 1046  23.280   3.479   9.590
    1BCK1    B1 1047  23.303   3.322   9.777
    1BCK1    B1 1048  23.383   3.145   9.927
    1BCK1    B1 1049   0.020   2.973  10.094
    1BCK1    B1 1050   0.048   2.826  10.291
    1BCK1    B1 1051   0.056   2.734  10.523
    1BCK1    B1 1052   0.055   2.704  10.773
    1BCK1    B1 1053   0.049   2.719  11.027
    1BCK1    B1 1054   0.042   2.756  11.282
    1BCK1    B1 1055   0.036   2.801  11.539
    1BCK1    B1 1056   0.029   2.846  11.800
    1BCK1    B1 1057   0.023   2.887  12.064
    1BCK1    B1 1058   0.018   2.922  12.333
    1BCK1    B1 1059   0.015   2.951  12.607
    1BCK1    B1 1060   0.013   2.974  12.885
    1BCK1    B1 1061   0.013   2.990  13.167
    1BCK1    B1 1062   0.014   3.000  13.453
    1BCK1    B1 1063  23.020   2.487   3.089
    1BCK1    B1 1064  23.137   2.405   3.283
    1BCK1    B1 1065  23.254   2.312   3.475
    1BCK1    B1 1066  23.324   2.220   3.688
    1BCK1    B1 1067  23.413   2.115   3.887
    1BCK1    B1 1068   0.114   2.001   4.062
    1BCK1    B1 1069   0.248   1.937   4.254
    1BCK1    B1 1070   0.363   1.926   4.467
    1BCK1    B1 1071   0.427   1.848   4.689
    1BCK1    B1 1072   0.423   1.670   4.857
    1BCK1    B1 1073   0.352   1.447   4.928
    1BCK1    B1 1074   0.231   1.238   4.952
    1BCK1    B1 1075   0.088   1.056   5.027
    1BCK1    B1 1076  23.371   0.882   5.125
    1BCK1    B1 1077  23.309   0.647   5.157
    1BCK1    B1 1078  23.400   0.420   5.116
    1BCK1    B1 1079   0.193   0.306   5.075
    1BCK1    B1 1080   0.435   0.268   5.113
    1BCK1    B1 1081   8.775   6.493   6.180
    1BCK1    B1 1082   8.990   6.562   6.283
    1BCK1    B1 1083   9.129   6.671   6.457
    1BCK1    B1 1084   9.130   6.801   6.667
    1BCK1    B1 1085   9.023   6.912   6.857
    1BCK1    B1 1086   8.899   6.994   7.051
    1BCK1    B1 1087   8.775   7.048   7.255
    1BCK1    B1 1088   8.644   7.119   7.448
    1BCK1    B1 1089   8.564   7.258   7.634
    1BCK1    B1 1090   8.588   7.444   7.793
    1BCK1    B1 1091   8.692   7.637   7.904
    1BCK1    B1 1092   8.816   7.833   7.987
    1BCK1    B1 1093   8.920   8.038   8.080
    1BCK1    B1 1094   8.987   8.248   8.196
    1BCK1    B1 1095   9.002   8.455   8.336
    1BCK1    B1 1096   8.960   8.652   8.490
    1BCK1    B1 1097   8.869   8.831   8.648
    1BCK1    B1 1098   8.742   8.993   8.806
    1BCK1    B1 1099   1.391   6.099   9.523
    1BCK1    B1 1100   1.385   6.095   9.274
    1BCK1    B1 1101   1.533   6.060   9.078
    1BCK1    B1 1102   1.760   6.004   9.001
    1BCK1    B1 1103   1.993   5.941   8.962
    1BCK1    B1 1104   2.224   5.876   8.909
    1BCK1    B1 1105   2.450   5.831   8.828
    1BCK1    B1 1106   2.681   5.824   8.748
    1BCK1    B1 1107   2.918   5.760   8.739
    1BCK1    B1 1108   3.131   5.706   8.846
    1BCK1    B1 1109   3.363   5.677   8.920
    1BCK1    B1 1110   3.602   5.731   8.900
    1BCK1    B1 1111   3.826   5.828   8.918
    1BCK1    B1 1112   4.046   5.927   8.956
    1BCK1    B1 1113   4.275   6.002   9.000
    1BCK1    B1 1114   4.511   6.057   9.037
    1BCK1    B1 1115   4.752   6.092   9.059
    1BCK1    B1 1116   4.995   6.107   9.066
    1BCK1    B1 1117  23.218   9.714   2.380
    1BCK1    B1 1118  23.000   9.817   2.296
    1BCK1    B1 1119  22.807   9.938   2.180
    1BCK1    B1 1120  22.647  10.082   2.042
    1BCK1    B1 1121  22.524  10.251   1.892
    1BCK1    B1 1122  22.445  10.446   1.742
    1BCK1    B1 1123  22.412  10.661   1.600
    1BCK1    B1 1124  22.423  10.891   1.471
    1BCK1    B1 1125  22.475  11.127   1.358
    1BCK1    B1 1126  22.562  11.366   1.260
    1BCK1    B1 1127  22.677  11.603   1.177
    1BCK1    B1 1128  22.816  11.837   1.106
    1BCK1    B1 1129  22.975  12.068   1.045
    1BCK1    B1 1130  23.152  12.297   0.994
    1BCK1    B1 1131  23.344  12.522   0.949
    1BCK1    B1 1132   0.126  12.746   0.911
    1BCK1    B1 1133   0.342  12.967   0.877
    1BCK1    B1 1134   0.570  13.187   0.849
    1BCK1    B1 1135   3.566   0.318  19.882
    1BCK1    B1 1136   3.675   0.530  19.789
    1BCK1    B1 1137   3.807   0.722  19.681
    1BCK1    B1 1138   3.950   0.897  19.557
    1BCK1    B1 1139   4.097   1.058  19.417
    1BCK1    B1 1140   4.241   1.206  19.258
    1BCK1    B1 1141   4.378   1.343  19.081
    1BCK1    B1 1142   4.504   1.468  18.887
    1BCK1    B1 1143   4.620   1.584  18.676
    1BCK1    B1 1144   4.723   1.688  18.452
    1BCK1    B1 1145   4.815   1.782  18.216
    1BCK1    B1 1146   4.896   1.866  17.969
    1BCK1    B1 1147   4.967   1.941  17.713
    1BCK1    B1 1148   5.028   2.007  17.450
    1BCK1    B1 1149   5.082   2.066  17.180
    1BCK1    B1 1150   5.128   2.117  16.905
    1BCK1    B1 1151   5.168   2.162  16.624
    1BCK1    B1 1152   5.202   2.202  16.339
    1BCK1    B1 1153   3.399  20.112   3.303
    1BCK1    B1 1154   3.573  19.966   3.214
    1BCK1    B1 1155   3.747  19.814   3.124
    1BCK1    B1 1156   3.919  19.653   3.044
    1BCK1    B1 1157   4.088  19.479   2.978
    1BCK1    B1 1158   4.248  19.289   2.929
    1BCK1    B1 1159   4.398  19.084   2.898
    1BCK1    B1 1160   4.534  18.864   2.883
    1BCK1    B1 1161   4.655  18.634   2.881
    1BCK1    B1 1162   4.763  18.393   2.887
    1BCK1    B1 1163   4.857  18.144   2.898
    1BCK1    B1 1164   4.939  17.887   2.912
    1BCK1    B1 1165   5.010  17.625   2.927
    1BCK1    B1 1166   5.071  17.356   2.941
    1BCK1    B1 1167   5.124  17.082   2.953
    1BCK1    B1 1168   5.169  16.804   2.962
    1BCK1    B1 1169   5.208  16.521   2.967
    1BCK1    B1 1170   5.241  16.234   2.970
    1BCK1    B1 1171   3.079  19.915   9.652
    1BCK1    B1 1172   3.058  19.736   9.824
    1BCK1    B1 1173   3.028  19.567  10.009
    1BCK1    B1 1174   2.999  19.396  10.202
    1BCK1    B1 1175   2.976  19.224  10.395
    1BCK1    B1 1176   2.959  19.043  10.592
    1BCK1    B1 1177   2.947  18.860  10.788
    1BCK1    B1 1178   2.940  18.669  10.988
    1BCK1    B1 1179   2.938  18.475  11.186
    1BCK1    B1 1180   2.937  18.273  11.389
    1BCK1    B1 1181   2.940  18.069  11.590
    1BCK1    B1 1182   2.943  17.858  11.797
    1BCK1    B1 1183   2.948  17.646  12.002
    1BCK1    B1 1184   2.952  17.428  12.214
    1BCK1    B1 1185   2.957  17.209  12.425
    1BCK1    B1 1186   2.962  16.984  12.641
    1BCK1    B1 1187   2.966  16.758  12.859
    1BCK1    B1 1188   2.969  16.528  13.080
    1BCK1    B1 1189   6.309   3.604   3.275
    1BCK1    B1 1190   6.412   3.696   3.473
    1BCK1    B1 1191   6.579   3.751   3.641
    1BCK1    B1 1192   6.770   3.848   3.758
    1BCK1    B1 1193   6.960   3.940   3.878
    1BCK1    B1 1194   7.132   3.967   4.048
    1BCK1    B1 1195   7.261   3.961   4.254
    1BCK1    B1 1196   7.412   4.051   4.422
    1BCK1    B1 1197   7.551   4.218   4.529
    1BCK1    B1 1198   7.697   4.326   4.689
    1BCK1    B1 1199   7.874   4.472   4.769
    1BCK1    B1 1200   7.974   4.693   4.791
    1BCK1    B1 1201   7.969   4.925   4.867
    1BCK1    B1 1202   7.999   5.104   5.030
    1BCK1    B1 1203   8.102   5.255   5.190
    1BCK1    B1 1204   8.207   5.438   5.313
    1BCK1    B1 1205   8.251   5.658   5.412
    1BCK1    B1 1206   8.184   5.876   5.498
    1BCK1    B1 1207   0.396   3.167   6.620
    1BCK1    B1 1208   0.564   3.339   6.602
    1BCK1    B1 1209   0.696   3.532   6.673
    1BCK1    B1 1210   0.798   3.723   6.784
    1BCK1    B1 1211   0.909   3.917   6.878
    1BCK1    B1 1212   1.030   4.116   6.950
    1BCK1    B1 1213   1.156   4.311   7.026
    1BCK1    B1 1214   1.289   4.491   7.123
    1BCK1    B1 1215   1.427   4.652   7.242
    1BCK1    B1 1216   1.570   4.793   7.381
    1BCK1    B1 1217   1.715   4.908   7.540
    1BCK1    B1 1218   1.861   5.002   7.712
    1BCK1    B1 1219   2.006   5.082   7.891
    1BCK1    B1 1220   2.143   5.155   8.080
    1BCK1    B1 1221   2.270   5.226   8.276
    1BCK1    B1 1222   2.396   5.293   8.475
    1BCK1    B1 1223   2.531   5.332   8.674
    1BCK1    B1 1224   2.658   5.350   8.880
    1BCK1    B1 1225   3.553   3.193   9.436
    1BCK1    B1 1226   3.769   3.105   9.505
    1BCK1    B1 1227   3.899   3.043   9.706
    1BCK1    B1 1228   3.974   3.009   9.940
    1BCK1    B1 1229   4.066   2.983  10.171
    1BCK1    B1 1230   4.174   2.965  10.399
    1BCK1    B1 1231   4.291   2.954  10.625
    1BCK1    B1 1232   4.412   2.950  10.853
    1BCK1    B1 1233   4.533   2.952  11.084
    1BCK1    B1 1234   4.651   2.958  11.320
    1BCK1    B1 1235   4.762   2.965  11.561
    1BCK1    B1 1236   4.866   2.973  11.809
    1BCK1    B1 1237   4.959   2.982  12.064
    1BCK1    B1 1238   5.042   2.989  12.326
    1BCK1    B1 1239   5.114   2.996  12.593
    1BCK1    B1 1240   5.175   3.001  12.867
    1BCK1    B1 1241   5.227   3.004  13.146
    1BCK1    B1 1242   5.269   3.007  13.429
    1BCK1    B1 1243   2.632   5.705  19.604
    1BCK1    B1 1244   2.747   5.495  19.636
    1BCK1    B1 1245   2.864   5.281  19.622
    1BCK1    B1 1246   2.950   5.054  19.578
    1BCK1    B1 1247   3.005   4.832  19.483
    1BCK1    B1 1248   3.037   4.634  19.335
    1BCK1    B1 1249   3.053   4.468  19.146
    1BCK1    B1 1250   3.057   4.333  18.931
    1BCK1    B1 1251   3.055   4.223  18.699
    1BCK1    B1 1252   3.051   4.134  18.455
    1BCK1    B1 1253   3.044   4.060  18.202
    1BCK1    B1 1254   3.037   3.999  17.942
    1BCK1    B1 1255   3.030   3.945  17.677
    1BCK1    B1 1256   3.024   3.899  17.408
    1BCK1    B1 1257   3.020   3.858  17.134
    1BCK1    B1 1258   3.016   3.821  16.856
    1BCK1    B1 1259   3.015   3.787  16.574
    1BCK1    B1 1260   3.014   3.756  16.288
    1BCK1    B1 1261   2.989   8.131  20.227
    1BCK1    B1 1262   2.992   7.899  20.345
    1BCK1    B1 1263   3.000   7.665  20.448
    1BCK1    B1 1264   3.014   7.423  20.539
    1BCK1    B1 1265   3.031   7.186  20.617
    1BCK1    B1 1266   3.052   6.938   0.067
    1BCK1    B1 1267   3.063   6.700   0.129
    1BCK1    B1 1268   3.096   6.449   0.173
    1BCK1    B1 1269   3.141   6.211   0.194
    1BCK1    B1 1270   3.158   5.956   0.204
    1BCK1    B1 1271   3.152   5.714   0.195
    1BCK1    B1 1272   3.126   5.463   0.164
    1BCK1    B1 1273   3.089   5.230   0.114
    1BCK1    B1 1274   3.049   4.989   0.051
    1BCK1    B1 1275   3.016   4.758  20.610
    1BCK1    B1 1276   2.988   4.517  20.551
    1BCK1    B1 1277   2.970   4.277  20.514
    1BCK1    B1 1278   2.962   4.033  20.500
    1BCK1    B1 1279   2.685   5.809   3.605
    1BCK1    B1 1280   2.499   5.670   3.675
    1BCK1    B1 1281   2.341   5.499   3.749
    1BCK1    B1 1282   2.215   5.303   3.820
    1BCK1    B1 1283   2.106   5.096   3.888
    1BCK1    B1 1284   1.997   4.890   3.958
    1BCK1    B1 1285   1.879   4.692   4.039
    1BCK1    B1 1286   1.754   4.508   4.137
    1BCK1    B1 1287   1.623   4.338   4.253
    1BCK1    B1 1288   1.484   4.191   4.389
    1BCK1    B1 1289   1.338   4.079   4.549
    1BCK1    B1 1290   1.192   4.000   4.727
    1BCK1    B1 1291   1.048   3.943   4.914
    1BCK1    B1 1292   0.909   3.889   5.107
    1BCK1    B1 1293   0.779   3.831   5.305
    1BCK1    B1 1294   0.644   3.763   5.495
    1BCK1    B1 1295   0.462   3.687   5.638
    1BCK1    B1 1296   0.264   3.588   5.734
    1BCK1    B1 1297   3.590   6.175   8.616
    1BCK1    B1 1298   3.407   6.084   8.490
    1BCK1    B1 1299   3.250   6.060   8.307
    1BCK1    B1 1300   3.178   5.987   8.087
    1BCK1    B1 1301   3.070   5.974   7.869
    1BCK1    B1 1302   2.859   5.946   7.748
    1BCK1    B1 1303   2.639   5.839   7.767
    1BCK1    B1 1304   2.514   5.629   7.795
    1BCK1    B1 1305   2.453   5.439   7.645
    1BCK1    B1 1306   2.469   5.431   7.395
    1BCK1    B1 1307   2.540   5.605   7.234
    1BCK1    B1 1308   2.657   5.820   7.230
    1BCK1    B1 1309   2.862   5.951   7.225
    1BCK1    B1 1310   3.057   6.024   7.098
    1BCK1    B1 1311   3.154   6.135   6.905
    1BCK1    B1 1312   3.207   6.313   6.749
    1BCK1    B1 1313   3.260   6.423   6.538
    1BCK1    B1 1314   3.383   6.405   6.330
    1BCK1    B1 1315   3.425   8.579   6.244
    1BCK1    B1 1316   3.310   8.452   6.413
    1BCK1    B1 1317   3.195   8.322   6.584
    1BCK1    B1 1318   3.130   8.203   6.785
    1BCK1    B1 1319   3.099   8.071   6.987
    1BCK1    B1 1320   2.982   7.916   7.133
    1BCK1    B1 1321   2.782   7.787   7.185
    1BCK1    B1 1322   2.555   7.767   7.278
    1BCK1    B1 1323   2.458   7.729   7.503
    1BCK1    B1 1324   2.560   7.634   7.708
    1BCK1    B1 1325   2.738   7.476   7.766
    1BCK1    B1 1326   2.811   7.250   7.819
    1BCK1    B1 1327   2.839   7.052   7.958
    1BCK1    B1 1328   2.946   6.868   8.075
    1BCK1    B1 1329   3.099   6.690   8.140
    1BCK1    B1 1330   3.242   6.578   8.304
    1BCK1    B1 1331   3.329   6.585   8.532
    1BCK1    B1 1332   3.352   6.604   8.771
    1BCK1    B1 1333   6.085   0.399   0.511
    1BCK1    B1 1334   6.298   0.322   0.592
    1BCK1    B1 1335   6.493   0.221   0.695
    1BCK1    B1 1336   6.689   0.128   0.806
    1BCK1    B1 1337   6.881   0.022   0.908
    1BCK1    B1 1338   7.072  20.523   0.995
    1BCK1    B1 1339   7.266  20.385   1.045
    1BCK1    B1 1340   7.464  20.246   1.073
    1BCK1    B1 1341   7.670  20.161   1.172
    1BCK1    B1 1342   7.837  20.168   1.350
    1BCK1    B1 1343   7.925  20.263   1.557
    1BCK1    B1 1344   7.957  20.402   1.754
    1BCK1    B1 1345   7.994  20.541   1.950
    1BCK1    B1 1346   8.047   0.035   2.156
    1BCK1    B1 1347   8.132   0.105   2.373
    1BCK1    B1 1348   8.242   0.145   2.586
    1BCK1    B1 1349   8.354   0.261   2.769
    1BCK1    B1 1350   8.525   0.401   2.866
    1BCK1    B1 1351   3.771  19.860   9.738
    1BCK1    B1 1352   3.896  19.712   9.895
    1BCK1    B1 1353   4.020  19.565  10.061
    1BCK1    B1 1354   4.139  19.415  10.231
    1BCK1    B1 1355   4.253  19.258  10.404
    1BCK1    B1 1356   4.361  19.094  10.580
    1BCK1    B1 1357   4.461  18.923  10.758
    1BCK1    B1 1358   4.555  18.746  10.939
    1BCK1    B1 1359   4.641  18.562  11.122
    1BCK1    B1 1360   4.719  18.373  11.309
    1BCK1    B1 1361   4.791  18.179  11.498
    1BCK1    B1 1362   4.856  17.981  11.690
    1BCK1    B1 1363   4.916  17.779  11.885
    1BCK1    B1 1364   4.969  17.574  12.083
    1BCK1    B1 1365   5.018  17.366  12.283
    1BCK1    B1 1366   5.062  17.155  12.486
    1BCK1    B1 1367   5.102  16.942  12.691
    1BCK1    B1 1368   5.139  16.726  12.898
    1BCK1    B1 1369   2.469   9.545   2.265
    1BCK1    B1 1370   2.309   9.705   2.167
    1BCK1    B1 1371   2.153   9.877   2.069
    1BCK1    B1 1372   2.006  10.056   1.969
    1BCK1    B1 1373   1.866  10.244   1.863
    1BCK1    B1 1374   1.736  10.437   1.753
    1BCK1    B1 1375   1.614  10.640   1.637
    1BCK1    B1 1376   1.505  10.849   1.521
    1BCK1    B1 1377   1.406  11.069   1.400
    1BCK1    B1 1378   1.321  11.295   1.281
    1BCK1    B1 1379   1.247  11.532   1.160
    1BCK1    B1 1380   1.188  11.773   1.041
    1BCK1    B1 1381   1.141  12.026   0.920
    1BCK1    B1 1382   1.108  12.280   0.801
    1BCK1    B1 1383   1.089  12.543   0.679
    1BCK1    B1 1384   1.082  12.808   0.556
    1BCK1    B1 1385   1.089  13.077   0.430
    1BCK1    B1 1386   1.109  13.348   0.300
    1BCK1    B1 1387   6.343   3.207   3.598
    1BCK1    B1 1388   6.574   3.222   3.528
    1BCK1    B1 1389   6.759   3.180   3.375
    1BCK1    B1 1390   6.883   3.045   3.216
    1BCK1    B1 1391   7.050   2.942   3.071
    1BCK1    B1 1392   7.192   2.915   2.875
    1BCK1    B1 1393   7.219   2.907   2.633
    1BCK1    B1 1394   7.202   2.841   2.398
    1BCK1    B1 1395   7.346   2.775   2.207
    1BCK1    B1 1396   7.595   2.776   2.190
    1BCK1    B1 1397   7.761   2.842   2.362
    1BCK1    B1 1398   7.756   2.906   2.598
    1BCK1    B1 1399   7.774   2.919   2.840
    1BCK1    B1 1400   7.910   2.974   3.034
    1BCK1    B1 1401   8.078   3.062   3.186
    1BCK1    B1 1402   8.214   3.024   3.384
    1BCK1    B1 1403   8.359   2.876   3.511
    1BCK1    B1 1404   8.552   2.760   3.593
    1BCK1    B1 1405   6.401   5.340   6.114
    1BCK1    B1 1406   6.574   5.320   6.283
    1BCK1    B1 1407   6.704   5.260   6.480
    1BCK1    B1 1408   6.804   5.184   6.689
    1BCK1    B1 1409   6.896   5.106   6.901
    1BCK1    B1 1410   6.995   5.033   7.110
    1BCK1    B1 1411   7.111   4.959   7.311
    1BCK1    B1 1412   7.239   4.869   7.498
    1BCK1    B1 1413   7.369   4.747   7.664
    1BCK1    B1 1414   7.501   4.598   7.804
    1BCK1    B1 1415   7.647   4.438   7.915
    1BCK1    B1 1416   7.804   4.271   7.998
    1BCK1    B1 1417   7.959   4.093   8.058
    1BCK1    B1 1418   8.105   3.905   8.105
    1BCK1    B1 1419   8.250   3.715   8.154
    1BCK1    B1 1420   8.398   3.534   8.222
    1BCK1    B1 1421   8.547   3.368   8.322
    1BCK1    B1 1422   8.693   3.220   8.445
    1BCK1    B1 1423   5.528   6.208   2.389
    1BCK1    B1 1424   5.389   6.388   2.308
    1BCK1    B1 1425   5.253   6.580   2.242
    1BCK1    B1 1426   5.121   6.778   2.189
    1BCK1    B1 1427   5.008   6.981   2.112
    1BCK1    B1 1428   4.947   7.174   1.974
    1BCK1    B1 1429   4.955   7.328   1.784
    1BCK1    B1 1430   4.900   7.490   1.609
    1BCK1    B1 1431   4.749   7.654   1.503
    1BCK1    B1 1432   4.535   7.762   1.447
    1BCK1    B1 1433   4.325   7.839   1.343
    1BCK1    B1 1434   4.150   7.933   1.194
    1BCK1    B1 1435   3.995   8.037   1.028
    1BCK1    B1 1436   3.851   8.149   0.856
    1BCK1    B1 1437   3.717   8.275   0.682
    1BCK1    B1 1438   3.599   8.417   0.507
    1BCK1    B1 1439   3.502   8.575   0.331
    1BCK1    B1 1440   3.428   8.745   0.152
    1BCK1    B1 1441   5.570   8.891   2.381
    1BCK1    B1 1442   5.511   8.659   2.310
    1BCK1    B1 1443   5.421   8.441   2.230
    1BCK1    B1 1444   5.288   8.245   2.153
    1BCK1    B1 1445   5.130   8.067   2.079
    1BCK1    B1 1446   4.955   7.899   2.028
    1BCK1    B1 1447   4.758   7.750   2.016
    1BCK1    B1 1448   4.575   7.591   1.968
    1BCK1    B1 1449   4.455   7.424   1.830
    1BCK1    B1 1450   4.392   7.305   1.624
    1BCK1    B1 1451   4.299   7.223   1.410
    1BCK1    B1 1452   4.172   7.122   1.223
    1BCK1    B1 1453   4.036   7.017   1.043
    1BCK1    B1 1454   3.904   6.920   0.856
    1BCK1    B1 1455   3.783   6.832   0.656
    1BCK1    B1 1456   3.677   6.752   0.444
    1BCK1    B1 1457   3.591   6.677   0.221
    1BCK1    B1 1458   3.533   6.610  20.609
    1BCK1    B1 1459   8.561   6.593  19.825
    1BCK1    B1 1460   8.362   6.726  19.774
    1BCK1    B1 1461   8.178   6.863  19.682
    1BCK1    B1 1462   8.008   7.003  19.568
    1BCK1    B1 1463   7.849   7.141  19.433
    1BCK1    B1 1464   7.703   7.276  19.278
    1BCK1    B1 1465   7.571   7.403  19.104
    1BCK1    B1 1466   7.451   7.522  18.912
    1BCK1    B1 1467   7.344   7.632  18.706
    1BCK1    B1 1468   7.250   7.733  18.486
    1BCK1    B1 1469   7.166   7.824  18.256
    1BCK1    B1 1470   7.092   7.906  18.016
    1BCK1    B1 1471   7.027   7.979  17.769
    1BCK1    B1 1472   6.968   8.044  17.515
    1BCK1    B1 1473   6.915   8.102  17.257
    1BCK1    B1 1474   6.867   8.152  16.993
    1BCK1    B1 1475   6.822   8.196  16.725
    1BCK1    B1 1476   6.780   8.234  16.454
    1BCK1    B1 1477   5.719   9.491   9.729
    1BCK1    B1 1478   5.711   9.584   9.492
    1BCK1    B1 1479   5.748   9.713   9.278
    1BCK1    B1 1480   5.843   9.879   9.114
    1BCK1    B1 1481   5.980  10.066   9.018
    1BCK1    B1 1482   6.120  10.271   8.977
    1BCK1    B1 1483   6.223  10.501   8.964
    1BCK1    B1 1484   6.269  10.751   8.963
    1BCK1    B1 1485   6.266  11.007   8.964
    1BCK1    B1 1486   6.235  11.264   8.967
    1BCK1    B1 1487   6.192  11.522   8.971
    1BCK1    B1 1488   6.148  11.784   8.975
    1BCK1    B1 1489   6.107  12.049   8.979
    1BCK1    B1 1490   6.071  12.318   8.983
    1BCK1    B1 1491   6.043  12.592   8.986
    1BCK1    B1 1492   6.022  12.870   8.988
    1BCK1    B1 1493   6.007  13.152   8.989
    1BCK1    B1 1494   5.998  13.438   8.989
    1BCK1    B1 1495   9.101   8.570   3.298
    1BCK1    B1 1496   9.315   8.438   3.302
    1BCK1    B1 1497   9.492   8.261   3.285
    1BCK1    B1 1498   9.621   8.060   3.216
    1BCK1    B1 1499   9.726   7.886   3.074
    1BCK1    B1 1500   9.840   7.798   2.873
    1BCK1    B1 1501   9.981   7.825   2.673
    1BCK1    B1 1502  10.184   7.763   2.543
    1BCK1    B1 1503  10.310   7.546   2.556
    1BCK1    B1 1504  10.233   7.351   2.693
    1BCK1    B1 1505  10.042   7.309   2.848
    1BCK1    B1 1506   9.851   7.234   2.987
    1BCK1    B1 1507   9.646   7.129   3.090
    1BCK1    B1 1508   9.424   7.024   3.161
    1BCK1    B1 1509   9.187   6.932   3.209
    1BCK1    B1 1510   8.938   6.857   3.241
    1BCK1    B1 1511   8.680   6.801   3.259
    1BCK1    B1 1512   8.414   6.757   3.264
    1BCK1    B1 1513   9.222   0.256   6.537
    1BCK1    B1 1514   9.308   0.327   6.758
    1BCK1    B1 1515   9.235   0.460   6.953
    1BCK1    B1 1516   9.054   0.604   7.033
    1BCK1    B1 1517   8.870   0.731   7.128
    1BCK1    B1 1518   8.754   0.925   7.222
    1BCK1    B1 1519   8.686   1.159   7.210
    1BCK1    B1 1520   8.652   1.390   7.139
    1BCK1    B1 1521   8.586   1.614   7.215
    1BCK1    B1 1522   8.545   1.755   7.411
    1BCK1    B1 1523   8.588   1.842   7.635
    1BCK1    B1 1524   8.695   1.986   7.800
    1BCK1    B1 1525   8.826   2.183   7.857
    1BCK1    B1 1526   9.015   2.314   7.935
    1BCK1    B1 1527   9.190   2.353   8.101
    1BCK1    B1 1528   9.279   2.333   8.326
    1BCK1    B1 1529   9.346   2.289   8.553
    1BCK1    B1 1530   9.443   2.228   8.765
    1BCK1    B1 1531   9.358   0.658   8.521
    1BCK1    B1 1532   9.224   0.571   8.341
    1BCK1    B1 1533   9.115   0.402   8.203
    1BCK1    B1 1534   9.116   0.186   8.091
    1BCK1    B1 1535   9.088   0.028   7.908
    1BCK1    B1 1536   8.936  20.510   7.778
    1BCK1    B1 1537   8.750  20.354   7.782
    1BCK1    B1 1538   8.647  20.131   7.783
    1BCK1    B1 1539   8.600  19.947   7.623
    1BCK1    B1 1540   8.599  19.955   7.373
    1BCK1    B1 1541   8.634  20.156   7.230
    1BCK1    B1 1542   8.699  20.389   7.279
    1BCK1    B1 1543   8.876  20.560   7.274
    1BCK1    B1 1544   9.000   0.031   7.079
    1BCK1    B1 1545   8.947   0.016   6.839
    1BCK1    B1 1546   8.821   0.057   6.634
    1BCK1    B1 1547   8.771   0.132   6.406
    1BCK1    B1 1548   8.617   0.169   6.220
    1BCK1    B1 1549   9.483   3.253   2.823
    1BCK1    B1 1550   9.485   3.494   2.847
    1BCK1    B1 1551   9.378   3.707   2.897
    1BCK1    B1 1552   9.201   3.861   2.959
    1BCK1    B1 1553   9.022   4.016   3.009
    1BCK1    B1 1554   8.823   4.142   3.074
    1BCK1    B1 1555   8.601   4.174   3.166
    1BCK1    B1 1556   8.377   4.193   3.260
    1BCK1    B1 1557   8.212   4.364   3.330
    1BCK1    B1 1558   8.226   4.612   3.332
    1BCK1    B1 1559   8.399   4.765   3.242
    1BCK1    B1 1560   8.616   4.772   3.130
    1BCK1    B1 1561   8.836   4.835   3.049
    1BCK1    B1 1562   9.028   4.975   2.996
    1BCK1    B1 1563   9.215   5.118   2.939
    1BCK1    B1 1564   9.401   5.255   2.863
    1BCK1    B1 1565   9.516   5.460   2.795
    1BCK1    B1 1566   9.518   5.701   2.764
    1BCK1    B1 1567   8.476   8.687  20.271
    1BCK1    B1 1568   8.344   8.781  20.089
    1BCK1    B1 1569   8.211   8.873  19.902
    1BCK1    B1 1570   8.080   8.956  19.709
    1BCK1    B1 1571   7.946   9.026  19.510
    1BCK1    B1 1572   7.811   9.079  19.304
    1BCK1    B1 1573   7.676   9.112  19.092
    1BCK1    B1 1574   7.544   9.127  18.875
    1BCK1    B1 1575   7.416   9.126  18.651
    1BCK1    B1 1576   7.297   9.115  18.421
    1BCK1    B1 1577   7.186   9.096  18.186
    1BCK1    B1 1578   7.085   9.074  17.943
    1BCK1    B1 1579   6.995   9.052  17.695
    1BCK1    B1 1580   6.914   9.031  17.441
    1BCK1    B1 1581   6.843   9.012  17.181
    1BCK1    B1 1582   6.782   8.998  16.917
    1BCK1    B1 1583   6.728   8.988  16.649
    1BCK1    B1 1584   6.682   8.983  16.377
    1BCK1    B1 1585   9.458   2.359   9.572
    1BCK1    B1 1586   9.612   2.228   9.712
    1BCK1    B1 1587   9.761   2.109   9.872
    1BCK1    B1 1588   9.892   1.992  10.050
    1BCK1    B1 1589   9.994   1.869  10.246
    1BCK1    B1 1590  10.058   1.743  10.457
    1BCK1    B1 1591  10.080   1.615  10.680
    1BCK1    B1 1592  10.058   1.491  10.909
    1BCK1    B1 1593   9.997   1.373  11.138
    1BCK1    B1 1594   9.901   1.263  11.364
    1BCK1    B1 1595   9.777   1.161  11.586
    1BCK1    B1 1596   9.629   1.067  11.803
    1BCK1    B1 1597   9.459   0.980  12.016
    1BCK1    B1 1598   9.273   0.898  12.223
    1BCK1    B1 1599   9.070   0.821  12.427
    1BCK1    B1 1600   8.855   0.746  12.626
    1BCK1    B1 1601   8.626   0.674  12.822
    1BCK1    B1 1602   8.387   0.603  13.015
    1BCK1    B1 1603   7.968   6.109  20.306
    1BCK1    B1 1604   7.769   6.095  20.452
    1BCK1    B1 1605   7.542   6.064  20.547
    1BCK1    B1 1606   7.304   6.017  20.599
    1BCK1    B1 1607   7.066   5.960   0.007
    1BCK1    B1 1608   6.827   5.901   0.029
    1BCK1    B1 1609   6.586   5.847   0.046
    1BCK1    B1 1610   6.344   5.798   0.054
    1BCK1    B1 1611   6.103   5.751   0.030
    1BCK1    B1 1612   5.865   5.733  20.589
    1BCK1    B1 1613   5.631   5.736  20.508
    1BCK1    B1 1614   5.387   5.780  20.515
    1BCK1    B1 1615   5.162   5.857  20.585
    1BCK1    B1 1616   4.929   5.937  20.611
    1BCK1    B1 1617   4.692   6.007  20.595
    1BCK1    B1 1618   4.455   6.058  20.543
    1BCK1    B1 1619   4.228   6.082  20.444
    1BCK1    B1 1620   4.032   6.078  20.292
    1BCK1    B1 1621   0.343   6.015   3.408
    1BCK1    B1 1622   0.078   5.998   3.443
    1BCK1    B1 1623  23.246   5.988   3.507
    1BCK1    B1 1624  23.008   5.987   3.608
    1BCK1    B1 1625  22.801   5.998   3.755
    1BCK1    B1 1626  22.642   6.023   3.949
    1BCK1    B1 1627  22.539   6.068   4.172
    1BCK1    B1 1628  22.469   6.139   4.400
    1BCK1    B1 1629  22.379   6.219   4.616
    1BCK1    B1 1630  22.319   6.207   4.856
    1BCK1    B1 1631  22.409   6.115   5.070
    1BCK1    B1 1632  22.621   6.033   5.181
    1BCK1    B1 1633  22.867   5.989   5.237
    1BCK1    B1 1634  23.126   5.964   5.278
    1BCK1    B1 1635  23.392   5.949   5.307
    1BCK1    B1 1636   0.244   5.942   5.330
    1BCK1    B1 1637   0.526   5.943   5.353
    1BCK1    B1 1638   0.816   5.946   5.376
    1BCK1    B1 1639   8.269  19.799   0.109
    1BCK1    B1 1640   8.456  19.640   0.070
    1BCK1    B1 1641   8.411  19.396   0.021
    1BCK1    B1 1642   8.189  19.298  20.591
    1BCK1    B1 1643   7.960  19.252  20.518
    1BCK1    B1 1644   7.755  19.124  20.461
    1BCK1    B1 1645   7.566  18.967  20.457
    1BCK1    B1 1646   7.370  18.816  20.504
    1BCK1    B1 1647   7.223  18.615  20.525
    1BCK1    B1 1648   7.109  18.384  20.526
    1BCK1    B1 1649   7.021  18.144  20.514
    1BCK1    B1 1650   6.946  17.893  20.489
    1BCK1    B1 1651   6.883  17.641  20.453
    1BCK1    B1 1652   6.826  17.382  20.402
    1BCK1    B1 1653   6.775  17.126  20.337
    1BCK1    B1 1654   6.727  16.866  20.254
    1BCK1    B1 1655   6.682  16.610  20.156
    1BCK1    B1 1656   6.637  16.356  20.038
    1HEX     C0 1657   1.994  19.316  17.756
    1HB      S1 1658   5.168  20.314  15.472
    1HB      S2 1659   1.371  19.831  18.321
    1HB      S3 1660   1.109  19.935  15.641
    1HB      S4 1661   1.463  16.395  19.420
    1HB      S5 1662   1.162  20.030  19.208
    1HB      S6 1663   1.393  19.505  18.669
    1HEX     C0 1664  23.415   0.028   3.030
    1HB      S1 1665   0.360   0.008   3.021
    1HB      S2 1666  23.053   0.053   3.041
    1HB      S3 1667   0.023   0.383   3.094
    1HB      S4 1668  23.401  20.289   2.975
    1HB      S5 1669  23.418  20.591   3.393
    1HB      S6 1670  23.413   0.085   2.671
    1HEX     C0 1671   2.346   0.190   6.047
    1HB      S1 1672   5.364   0.389   6.239
    1HB      S2 1673   1.341   0.122   6.104
    1HB      S3 1674   1.708   0.388   5.954
    1HB      S4 1675   1.729  20.512   5.947
    1HB      S5 1676   1.725   0.131   6.384
    1HB      S6 1677   1.299   0.173   5.610
    1HEX     C0 1678   0.045  20.607   8.985
    1HB      S1 1679   0.416  20.516   9.037
    1HB      S2 1680  23.104   0.087   8.985
    1HB      S3 1681   0.154   0.279   8.860
    1HB      S4 1682  23.398  20.263   9.053
    1HB      S5 1683   0.032   0.066   9.337
    1HB      S6 1684  23.396  20.513   8.611
    1HEX     C0 1685   0.080   3.090  18.745
    1HB      S1 1686   0.363   3.023  19.296
    1HB      S2 1687  23.248   3.182  19.321
    1HB      S3 1688   0.214   3.434  19.492
    1HB      S4 1689  23.410   2.732  19.344
    1HB      S5 1690   0.095   3.105  19.810
    1HB      S6 1691   0.037   3.055  16.175
    1HEX     C0 1692   0.002   2.945   3.004
    1HB      S1 1693   0.354   2.961   3.040
    1HB      S2 1694  23.061   2.974   2.979
    1HB      S3 1695   0.002   3.321   3.042
    1HB      S4 1696   0.011   2.595   2.917
    1HB      S5 1697  23.383   2.880   3.361
    1HB      S6 1698   0.026   3.006   2.637
    1HEX     C0 1699   0.040   3.072   6.095
    1HB      S1 1700   0.267   3.333   6.160
    1HB      S2 1701  23.023   2.814   6.220
    1HB      S3 1702  23.255   3.477   6.007
    1HB      S4 1703   0.528   2.931   6.209
    1HB      S5 1704   0.021   2.996   6.433
    1HB      S6 1705   0.085   3.145   5.718
    1HEX     C0 1706   0.072   3.031   9.005
    1HB      S1 1707   0.463   3.033   9.037
    1HB      S2 1708  23.120   3.040   9.005
    1HB      S3 1709   0.074   3.383   8.924
    1HB      S4 1710   0.056   2.672   9.058
    1HB      S5 1711   0.063   3.093   9.354
    1HB      S6 1712   0.064   2.964   8.641
    1HEX     C0 1713   2.133   5.852  18.905
    1HB      S1 1714   5.119   5.644  19.728
    1HB      S2 1715   1.312   5.873  19.278
    1HB      S3 1716   1.682   6.163  19.220
    1HB      S4 1717   1.406   5.583  19.665
    1HB      S5 1718   1.606   6.020  19.660
    1HB      S6 1719   1.151   5.934  16.255
    1HEX     C0 1720   4.553   6.373   3.206
    1HB      S1 1721   6.448   6.605   2.847
    1HB      S2 1722   2.332   6.166   3.293
    1HB      S3 1723   6.204   6.526   3.649
    1HB      S4 1724   3.490   6.412   3.272
    1HB      S5 1725   6.471   6.513   3.288
    1HB      S6 1726   2.645   6.088   2.896
    1HEX     C0 1727  23.359   6.035   5.885
    1HB      S1 1728   0.373   5.903   5.838
    1HB      S2 1729  22.963   5.974   5.792
    1HB      S3 1730  23.160   6.403   5.948
    1HB      S4 1731  23.362   5.689   5.769
    1HB      S5 1732  23.187   6.003   6.245
    1HB      S6 1733   0.120   6.284   5.675
    1HEX     C0 1734   2.366   5.897  10.977
    1HB      S1 1735   1.969   6.035  10.295
    1HB      S2 1736   1.560   5.797  10.551
    1HB      S3 1737   1.580   6.149  10.111
    1HB      S4 1738   5.333   5.548  13.633
    1HB      S5 1739   1.377   6.248  10.511
    1HB      S6 1740   1.739   5.669  10.133
    1HEX     C0 1741   0.007   8.985   0.006
    1HB      S1 1742   0.374   8.977   0.009
    1HB      S2 1743  23.063   8.988   0.005
    1HB      S3 1744   0.009   9.351   0.005
    1HB      S4 1745   0.002   8.621   0.005
    1HB      S5 1746   0.008   8.983   0.372
    1HB      S6 1747   0.008   8.986  20.262
    1HEX     C0 1748   1.952   8.893   2.632
    1HB      S1 1749   5.017   8.613   2.469
    1HB      S2 1750   0.874   8.790   2.668
    1HB      S3 1751   0.871   9.314   2.587
    1HB      S4 1752   1.309   8.607   2.763
    1HB      S5 1753   1.159   9.046   2.898
    1HB      S6 1754   1.433   9.052   2.517
    1HEX     C0 1755   0.014   8.902   6.009
    1HB      S1 1756   0.387   8.972   5.930
    1HB      S2 1757  23.072   8.943   6.060
    1HB      S3 1758   0.019   9.276   6.095
    1HB      S4 1759  23.368   8.516   5.919
    1HB      S5 1760   0.131   8.792   6.322
    1HB      S6 1761  23.383   8.971   5.655
    1HEX     C0 1762   0.099   8.845   9.088
    1HB      S1 1763   0.424   8.967   9.189
    1HB      S2 1764  23.131   8.779   9.056
    1HB      S3 1765  23.283   9.203   9.113
    1HB      S4 1766   0.167   8.511   9.128
    1HB      S5 1767   0.013   8.894   9.455
    1HB      S6 1768   0.423   8.711   8.758
    1HEX     C0 1769   3.032  18.896  20.565
    1HB      S1 1770   3.270  19.327  20.452
    1HB      S2 1771   2.699  19.849   0.050
    1HB      S3 1772   3.169  19.710   0.081
    1HB      S4 1773   3.023  16.239  20.587
    1HB      S5 1774   2.897  19.338   0.196
    1HB      S6 1775   3.222  19.921  20.233
    1HEX     C0 1776   3.011  20.596   3.016
    1HB      S1 1777   3.377  20.591   3.059
    1HB      S2 1778   2.644  20.600   2.976
    1HB      S3 1779   3.015   0.343   3.013
    1HB      S4 1780   3.023  20.228   3.026
    1HB      S5 1781   2.965  20.600   3.368
    1HB      S6 1782   3.042  20.594   2.654
    1HEX     C0 1783   3.241  18.549   5.787
    1HB      S1 1784   3.514  19.171   5.849
    1HB      S2 1785   2.853  19.113   5.849
    1HB      S3 1786   3.153  19.492   5.869
    1HB      S4 1787   3.492  16.028   5.524
    1HB      S5 1788   3.183  19.141   6.202
    1HB      S6 1789   3.180  19.185   5.496
    1HEX     C0 1790   3.083  20.563   9.067
    1HB      S1 1791   3.433  20.344   9.354
    1HB      S2 1792   2.685  20.600   8.990
    1HB      S3 1793   3.058   0.314   9.071
    1HB      S4 1794   3.063  20.252   8.960
    1HB      S5 1795   2.957  20.468   9.414
    1HB      S6 1796   3.067   0.024   8.656
    1HEX     C0 1797   2.996   3.072  20.610
    1HB      S1 1798   3.358   3.063  20.613
    1HB      S2 1799   2.635   3.055  20.613
    1HB      S3 1800   2.983   3.473  20.570
    1HB      S4 1801   3.000   2.688  20.622
    1HB      S5 1802   2.997   3.066   0.353
    1HB      S6 1803   2.997   3.044  20.248
    1HEX     C0 1804   3.008   2.996   3.007
    1HB      S1 1805   3.379   3.022   2.986
    1HB      S2 1806   2.650   2.980   3.036
    1HB      S3 1807   3.011   3.366   3.010
    1HB      S4 1808   3.041   2.631   2.977
    1HB      S5 1809   3.026   2.975   3.370
    1HB      S6 1810   2.987   3.010   2.642
    1HEX     C0 1811   3.025   3.098   6.103
    1HB      S1 1812   3.383   3.169   6.082
    1HB      S2 1813   2.683   3.102   6.171
    1HB      S3 1814   3.008   3.498   6.132
    1HB      S4 1815   3.008   2.713   6.218
    1HB      S5 1816   3.081   3.129   6.484
    1HB      S6 1817   2.971   3.206   5.735
    1HEX     C0 1818   3.042   3.233  10.954
    1HB      S1 1819   3.411   3.203  10.160
    1HB      S2 1820   2.688   3.134  10.406
    1HB      S3 1821   2.991   3.493  10.275
    1HB      S4 1822   3.112   2.887  10.420
    1HB      S5 1823   3.022   3.478  13.531
    1HB      S6 1824   2.968   3.104  10.014
    1HEX     C0 1825   3.160   5.968  18.766
    1HB      S1 1826   3.537   5.976  19.578
    1HB      S2 1827   2.920   6.188  19.247
    1HB      S3 1828   3.274   6.369  19.709
    1HB      S4 1829   3.106   5.721  19.249
    1HB      S5 1830   3.041   5.952  19.644
    1HB      S6 1831   3.077   5.647  16.155
    1HEX     C0 1832   3.262   5.910   3.038
    1HB      S1 1833   3.706   6.018   3.198
    1HB      S2 1834   2.879   5.740   3.123
    1HB      S3 1835   3.422   6.207   2.810
    1HB      S4 1836   3.274   5.566   2.876
    1HB      S5 1837   3.189   5.896   3.455
    1HB      S6 1838   3.027   5.958   2.671
    1HEX     C0 1839   3.014   6.018   6.059
    1HB      S1 1840   3.381   6.060   5.948
    1HB      S2 1841   2.619   5.969   6.067
    1HB      S3 1842   2.926   6.346   6.146
    1HB      S4 1843   3.031   5.660   5.994
    1HB      S5 1844   3.181   5.948   6.386
    1HB      S6 1845   2.957   6.062   5.688
    1HEX     C0 1846   2.985   6.131   9.095
    1HB      S1 1847   3.326   6.128   9.001
    1HB      S2 1848   2.655   6.187   9.117
    1HB      S3 1849   3.036   6.524   9.106
    1HB      S4 1850   2.838   5.731   9.229
    1HB      S5 1851   3.117   6.165   9.465
    1HB      S6 1852   2.987   6.246   8.691
    1HEX     C0 1853   3.055  10.599  18.763
    1HB      S1 1854   3.232   9.967  19.140
    1HB      S2 1855   2.793  10.122  19.272
    1HB      S3 1856   3.209  10.237  19.541
    1HB      S4 1857   2.993   9.338  19.517
    1HB      S5 1858   3.146   9.676  19.831
    1HB      S6 1859   3.010  13.506  15.987
    1HEX     C0 1860   2.986   9.008   2.957
    1HB      S1 1861   3.349   9.058   2.986
    1HB      S2 1862   2.643   8.904   2.963
    1HB      S3 1863   2.942   9.360   3.045
    1HB      S4 1864   3.083   8.644   2.924
    1HB      S5 1865   2.982   8.942   3.338
    1HB      S6 1866   2.890   9.174   2.576
    1HEX     C0 1867   3.025   8.972   6.018
    1HB      S1 1868   3.388   9.014   5.995
    1HB      S2 1869   2.657   8.965   6.028
    1HB      S3 1870   3.001   9.343   6.022
    1HB      S4 1871   3.033   8.611   6.007
    1HB      S5 1872   3.048   8.952   6.381
    1HB      S6 1873   3.009   8.979   5.649
    1HEX     C0 1874   2.873  12.071  10.600
    1HB      S1 1875   3.248  10.467   9.708
    1HB      S2 1876   2.726  11.313  10.384
    1HB      S3 1877   2.945  14.083   9.879
    1HB      S4 1878   2.775  10.480   9.735
    1HB      S5 1879   2.525  14.301  13.522
    1HB      S6 1880   3.031  11.410  10.034
    1HEX     C0 1881   6.049  20.554  20.600
    1HB      S1 1882   6.392  20.621   0.024
    1HB      S2 1883   5.666  20.579  20.617
    1HB      S3 1884   6.009   0.336   0.013
    1HB      S4 1885   6.254  20.163  20.366
    1HB      S5 1886   6.015  20.579   0.362
    1HB      S6 1887   6.028   0.003  20.253
    1HEX     C0 1888   6.184  18.698   3.205
    1HB      S1 1889   6.442  19.348   3.162
    1HB      S2 1890   5.794  19.293   3.132
    1HB      S3 1891   6.143  19.753   3.168
    1HB      S4 1892   6.443  16.115   3.456
    1HB      S5 1893   6.103  19.304   3.493
    1HB      S6 1894   6.128  19.313   2.796
    1HEX     C0 1895   5.922  20.604   6.016
    1HB      S1 1896   6.288  20.593   6.037
    1HB      S2 1897   5.559  20.607   5.996
    1HB      S3 1898   5.922   0.346   6.047
    1HB      S4 1899   5.913  20.239   5.991
    1HB      S5 1900   5.902  20.580   6.384
    1HB      S6 1901   5.958   0.018   5.648
    1HEX     C0 1902   5.974  18.662   8.959
    1HB      S1 1903   6.327  19.592   8.918
    1HB      S2 1904   5.601  19.177   8.965
    1HB      S3 1905   5.851  19.578   8.973
    1HB      S4 1906   5.966  16.133   8.978
    1HB      S5 1907   6.038  19.207   9.213
    1HB      S6 1908   6.020  19.218   8.698
    1HEX     C0 1909   5.842   3.012  18.583
    1HB      S1 1910   6.245   3.011  19.165
    1HB      S2 1911   5.559   3.011  19.194
    1HB      S3 1912   5.903   3.355  19.181
    1HB      S4 1913   5.903   2.668  19.178
    1HB      S5 1914   5.915   3.010  19.520
    1HB      S6 1915   5.589   3.013  16.108
    1HEX     C0 1916   6.002   3.043   3.060
    1HB      S1 1917   6.349   3.083   3.100
    1HB      S2 1918   5.635   3.033   2.993
    1HB      S3 1919   5.984   3.409   3.024
    1HB      S4 1920   6.009   2.683   3.079
    1HB      S5 1921   5.921   3.051   3.408
    1HB      S6 1922   6.050   3.012   2.691
    1HEX     C0 1923   5.969   3.006   6.057
    1HB      S1 1924   6.343   2.957   6.010
    1HB      S2 1925   5.553   3.047   6.049
    1HB      S3 1926   5.992   3.359   6.040
    1HB      S4 1927   5.918   2.658   6.040
    1HB      S5 1928   6.088   3.039   6.428
    1HB      S6 1929   5.955   3.008   5.676
    1HEX     C0 1930   5.685   2.827  10.883
    1HB      S1 1931   6.026   2.996  10.360
    1HB      S2 1932   5.372   2.879  10.085
    1HB      S3 1933   5.717   3.199   9.985
    1HB      S4 1934   5.728   2.596  10.414
    1HB      S5 1935   5.477   2.538  13.519
    1HB      S6 1936   5.851   2.741   9.988
    1HEX     C0 1937   6.107   6.028  18.872
    1HB      S1 1938   6.387   6.059  19.411
    1HB      S2 1939   5.728   5.918  19.910
    1HB      S3 1940   5.946   6.276  19.421
    1HB      S4 1941   5.979   5.787  19.420
    1HB      S5 1942   6.156   6.115  19.895
    1HB      S6 1943   6.397   6.019  16.209
    1HEX     C0 1944   6.060   5.935   2.985
    1HB      S1 1945   6.439   5.776   2.916
    1HB      S2 1946   5.721   6.045   3.087
    1HB      S3 1947   6.200   6.207   2.992
    1HB      S4 1948   5.965   5.619   2.952
    1HB      S5 1949   6.111   5.904   3.376
    1HB      S6 1950   5.913   6.033   2.622
    1HEX     C0 1951   5.980   5.870   6.006
    1HB      S1 1952   6.356   5.817   5.942
    1HB      S2 1953   5.609   5.937   6.047
    1HB      S3 1954   6.021   6.229   5.954
    1HB      S4 1955   5.980   5.522   6.105
    1HB      S5 1956   5.978   5.957   6.385
    1HB      S6 1957   5.899   5.738   5.662
    1HEX     C0 1958   5.960   6.034   9.029
    1HB      S1 1959   6.348   6.032   9.050
    1HB      S2 1960   5.556   6.055   9.024
    1HB      S3 1961   5.973   6.391   9.000
    1HB      S4 1962   5.958   5.676   9.051
    1HB      S5 1963   5.985   6.063   9.396
    1HB      S6 1964   6.007   6.003   8.670
    1HEX     C0 1965   5.828  12.186  17.233
    1HB      S1 1966   6.159  11.494  17.979
    1HB      S2 1967   5.506  14.323  15.207
    1HB      S3 1968   6.242  14.116  18.809
    1HB      S4 1969   5.763  11.243  17.892
    1HB      S5 1970   5.760  11.585  18.224
    1HB      S6 1971   5.553  10.336  15.323
    1HEX     C0 1972   5.718  10.767   2.935
    1HB      S1 1973   6.007  10.219   2.835
    1HB      S2 1974   5.523  10.203   2.916
    1HB      S3 1975   5.506  13.425   2.968
    1HB      S4 1976   5.800   9.722   3.017
    1HB      S5 1977   5.824  10.176   3.296
    1HB      S6 1978   5.684   9.838   2.577
    1HEX     C0 1979   5.984   8.954   5.980
    1HB      S1 1980   6.346   9.048   5.946
    1HB      S2 1981   5.603   8.950   5.944
    1HB      S3 1982   5.949   9.329   5.997
    1HB      S4 1983   6.100   8.610   5.924
    1HB      S5 1984   5.891   8.817   6.331
    1HB      S6 1985   5.969   8.973   5.605
    1HEX     C0 1986   6.163   8.852  12.353
    1HB      S1 1987   6.466   8.499  14.256
    1HB      S2 1988   5.820   8.908  11.555
    1HB      S3 1989   5.902   9.176  10.942
    1HB      S4 1990   6.243   8.688  11.668
    1HB      S5 1991   6.374   8.969  14.217
    1HB      S6 1992   6.165   8.841  11.235
    1HEX     C0 1993   6.615  18.754   0.274
    1HB      S1 1994   7.550  19.582   0.156
    1HB      S2 1995   3.652  16.065   0.536
    1HB      S3 1996   7.065  19.564   0.215
    1HB      S4 1997   7.497  19.155   0.266
    1HB      S5 1998   7.265  19.395   0.604
    1HB      S6 1999   7.246  19.330  20.477
    1HEX     C0 2000   8.958  20.618   3.034
    1HB      S1 2001   9.326  20.619   2.977
    1HB      S2 2002   8.623  20.614   3.133
    1HB      S3 2003   8.988   0.345   3.102
    1HB      S4 2004   8.958  20.265   2.943
    1HB      S5 2005   9.036  20.519   3.388
    1HB      S6 2006   8.850   0.086   2.691
    1HEX     C0 2007   6.974   0.051   6.022
    1HB      S1 2008   8.185   0.037   6.335
    1HB      S2 2009   3.913   0.039   5.770
    1HB      S3 2010   7.953   0.153   5.932
    1HB      S4 2011   7.609  20.406   5.956
    1HB      S5 2012   7.722   0.117   6.323
    1HB      S6 2013   7.499   0.267   5.890
    1HEX     C0 2014   9.383   0.355   8.889
    1HB      S1 2015  13.913   0.597   8.539
    1HB      S2 2016   5.170   0.499   8.973
    1HB      S3 2017   9.034   0.536   8.965
    1HB      S4 2018   9.211  20.475   8.973
    1HB      S5 2019   9.175   0.209   9.298
    1HB      S6 2020   9.152   0.187   8.637
    1HEX     C0 2021   9.026   3.045  20.594
    1HB      S1 2022   9.378   2.984  20.561
    1HB      S2 2023   8.656   3.053   0.004
    1HB      S3 2024   9.150   3.431  20.516
    1HB      S4 2025   8.991   2.661  20.616
    1HB      S5 2026   9.052   3.049   0.333
    1HB      S6 2027   8.984   3.018  20.235
    1HEX     C0 2028   8.946   3.075   3.138
    1HB      S1 2029   9.193   3.359   3.337
    1HB      S2 2030   8.613   3.051   3.111
    1HB      S3 2031   9.008   3.313   2.880
    1HB      S4 2032   9.074   2.780   3.203
    1HB      S5 2033   8.807   3.157   3.536
    1HB      S6 2034   8.855   2.813   2.770
    1HEX     C0 2035   9.007   3.008   6.026
    1HB      S1 2036   9.372   3.003   6.018
    1HB      S2 2037   8.639   3.012   6.007
    1HB      S3 2038   9.018   3.372   6.049
    1HB      S4 2039   9.005   2.641   6.012
    1HB      S5 2040   8.985   2.990   6.386
    1HB      S6 2041   9.011   3.018   5.655
    1HEX     C0 2042   9.084   2.879   8.962
    1HB      S1 2043   9.407   3.048   8.917
    1HB      S2 2044   8.777   2.723   8.988
    1HB      S3 2045   8.914   3.203   8.865
    1HB      S4 2046   9.290   2.572   8.988
    1HB      S5 2047   9.125   2.809   9.372
    1HB      S6 2048   9.084   2.804   8.587
    1HEX     C0 2049   8.785   6.089  18.801
    1HB      S1 2050   9.199   6.041  19.354
    1HB      S2 2051   8.440   6.106  19.635
    1HB      S3 2052   8.801   6.329  19.379
    1HB      S4 2053   8.773   5.821  19.384
    1HB      S5 2054   9.015   6.238  19.873
    1HB      S6 2055   8.548   6.040  16.170
    1HEX     C0 2056   9.022   5.989   3.005
    1HB      S1 2057   9.364   6.142   3.004
    1HB      S2 2058   8.659   5.872   2.988
    1HB      S3 2059   8.886   6.311   3.077
    1HB      S4 2060   9.105   5.648   2.997
    1HB      S5 2061   9.036   5.957   3.384
    1HB      S6 2062   9.037   6.011   2.641
    1HEX     C0 2063   6.788   6.024   5.829
    1HB      S1 2064   7.750   5.847   5.925
    1HB      S2 2065   3.868   6.004   5.611
    1HB      S3 2066   7.846   6.322   5.983
    1HB      S4 2067   7.313   5.690   5.826
    1HB      S5 2068   7.377   6.101   6.104
    1HB      S6 2069   7.523   6.099   5.602
    1HEX     C0 2070   8.979   5.963   9.006
    1HB      S1 2071   9.346   5.974   9.019
    1HB      S2 2072   8.611   5.979   9.005
    1HB      S3 2073   8.987   6.333   8.999
    1HB      S4 2074   8.958   5.602   9.019
    1HB      S5 2075   8.962   5.968   9.374
    1HB      S6 2076   8.998   5.943   8.642
    1HEX     C0 2077   8.968   8.983  20.606
    1HB      S1 2078   9.337   8.987  20.600
    1HB      S2 2079   8.603   8.981  20.609
    1HB      S3 2080   8.971   9.349  20.601
    1HB      S4 2081   8.970   8.618  20.610
    1HB      S5 2082   8.977   8.989   0.350
    1HB      S6 2083   8.951   8.971  20.238
    1HEX     C0 2084   6.878   9.000   3.099
    1HB      S1 2085   8.069   8.943   3.241
    1HB      S2 2086   3.816   9.179   3.145
    1HB      S3 2087   7.523   9.335   3.118
    1HB      S4 2088   7.912   8.633   2.932
    1HB      S5 2089   7.492   8.888   3.306
    1HB      S6 2090   7.483   8.954   2.820
    1HEX     C0 2091   7.145   9.141   6.199
    1HB      S1 2092   8.003   9.299   6.318
    1HB      S2 2093   7.643   9.127   6.097
    1HB      S3 2094   7.837   9.442   5.822
    1HB      S4 2095   7.935   8.836   6.332
    1HB      S5 2096   3.995   9.114   6.420
    1HB      S6 2097   8.143   8.761   5.893
    1HEX     C0 2098   6.828  10.787  10.669
    1HB      S1 2099   7.650  10.328  10.365
    1HB      S2 2100   3.786   9.932   9.665
    1HB      S3 2101   7.321  10.543  10.095
    1HB      S4 2102   7.240  10.099  10.268
    1HB      S5 2103   7.435  13.619  13.558
    1HB      S6 2104   7.875   9.855   9.698
  23.42295  20.62295  20.62295
