Gromacs.gro file
    2104
    1BCK1 B1       1   0.397   2.603   2.236
    1BCK1 B1       2   0.550   2.450   2.195
    1BCK1 B1       3   0.702   2.298   2.153
    1BCK1 B1       4   0.851   2.149   2.105
    1BCK1 B1       5   0.996   2.004   2.049
    1BCK1 B1       6   1.137   1.863   1.985
    1BCK1 B1       7   1.272   1.728   1.909
    1BCK1 B1       8   1.401   1.599   1.821
    1BCK1 B1       9   1.523   1.477   1.719
    1BCK1 B1      10   1.639   1.361   1.604
    1BCK1 B1      11   1.747   1.253   1.475
    1BCK1 B1      12   1.849   1.151   1.332
    1BCK1 B1      13   1.944   1.056   1.177
    1BCK1 B1      14   2.034   0.966   1.011
    1BCK1 B1      15   2.120   0.880   0.836
    1BCK1 B1      16   2.201   0.799   0.653
    1BCK1 B1      17   2.280   0.720   0.465
    1BCK1 B1      18   2.358   0.642   0.275
    1BCK1 B1      19   9.286   6.572   0.700
    1BCK1 B1      20   9.473   6.672   0.760
    1BCK1 B1      21   9.657   6.771   0.822
    1BCK1 B1      22   9.837   6.872   0.888
    1BCK1 B1      23  10.010   6.974   0.959
    1BCK1 B1      24  10.174   7.079   1.037
    1BCK1 B1      25  10.327   7.186   1.123
    1BCK1 B1      26  10.468   7.295   1.218
    1BCK1 B1      27  10.597   7.407   1.323
    1BCK1 B1      28  10.712   7.523   1.438
    1BCK1 B1      29  10.814   7.641   1.564
    1BCK1 B1      30  10.903   7.762   1.699
    1BCK1 B1      31  10.981   7.886   1.844
    1BCK1 B1      32  11.048   8.013   1.997
    1BCK1 B1      33  11.106   8.141   2.156
    1BCK1 B1      34  11.157   8.271   2.322
    1BCK1 B1      35  11.203   8.402   2.490
    1BCK1 B1      36  11.247   8.533   2.661
    1BCK1 B1      37   0.295   3.784   0.052
    1BCK1 B1      38   0.205   3.868   0.036
    1BCK1 B1      39   0.117   3.953   0.021
    1BCK1 B1      40   0.036   4.037   0.006
    1BCK1 B1      41  -0.037   4.121  -0.006
    1BCK1 B1      42  -0.098   4.205  -0.017
    1BCK1 B1      43  -0.146   4.289  -0.026
    1BCK1 B1      44  -0.178   4.374  -0.031
    1BCK1 B1      45  -0.195   4.458  -0.034
    1BCK1 B1      46  -0.195   4.542  -0.034
    1BCK1 B1      47  -0.178   4.626  -0.031
    1BCK1 B1      48  -0.146   4.711  -0.026
    1BCK1 B1      49  -0.098   4.795  -0.017
    1BCK1 B1      50  -0.037   4.879  -0.006
    1BCK1 B1      51   0.036   4.963   0.006
    1BCK1 B1      52   0.117   5.047   0.021
    1BCK1 B1      53   0.205   5.132   0.036
    1BCK1 B1      54   0.295   5.216   0.052
    1BCK1 B1      55  -0.183   3.942   5.762
    1BCK1 B1      56  -0.127   4.184   5.835
    1BCK1 B1      57  -0.073   4.426   5.906
    1BCK1 B1      58  -0.022   4.668   5.971
    1BCK1 B1      59   0.023   4.911   6.029
    1BCK1 B1      60   0.060   5.153   6.079
    1BCK1 B1      61   0.090   5.395   6.117
    1BCK1 B1      62   0.110   5.637   6.144
    1BCK1 B1      63   0.121   5.879   6.157
    1BCK1 B1      64   0.121   6.121   6.157
    1BCK1 B1      65   0.110   6.363   6.144
    1BCK1 B1      66   0.090   6.605   6.117
    1BCK1 B1      67   0.060   6.847   6.079
    1BCK1 B1      68   0.023   7.089   6.029
    1BCK1 B1      69  -0.022   7.332   5.971
    1BCK1 B1      70  -0.073   7.574   5.906
    1BCK1 B1      71  -0.127   7.816   5.835
    1BCK1 B1      72  -0.183   8.058   5.762
    1BCK1 B1      73   2.216   2.728   3.127
    1BCK1 B1      74   2.132   2.812   3.088
    1BCK1 B1      75   2.047   2.892   3.050
    1BCK1 B1      76   1.963   2.967   3.015
    1BCK1 B1      77   1.879   3.034   2.984
    1BCK1 B1      78   1.795   3.090   2.958
    1BCK1 B1      79   1.711   3.134   2.937
    1BCK1 B1      80   1.626   3.164   2.923
    1BCK1 B1      81   1.542   3.179   2.916
    1BCK1 B1      82   1.458   3.179   2.916
    1BCK1 B1      83   1.374   3.164   2.923
    1BCK1 B1      84   1.289   3.134   2.937
    1BCK1 B1      85   1.205   3.090   2.958
    1BCK1 B1      86   1.121   3.034   2.984
    1BCK1 B1      87   1.037   2.967   3.015
    1BCK1 B1      88   0.953   2.892   3.050
    1BCK1 B1      89   0.868   2.812   3.088
    1BCK1 B1      90   0.784   2.728   3.127
    1BCK1 B1      91   5.698   9.726   3.530
    1BCK1 B1      92   5.516   9.778   3.642
    1BCK1 B1      93   5.336   9.832   3.754
    1BCK1 B1      94   5.161   9.891   3.867
    1BCK1 B1      95   4.992   9.955   3.980
    1BCK1 B1      96   4.832  10.028   4.093
    1BCK1 B1      97   4.681  10.110   4.206
    1BCK1 B1      98   4.542  10.202   4.321
    1BCK1 B1      99   4.414  10.306   4.435
    1BCK1 B1     100   4.299  10.421   4.551
    1BCK1 B1     101   4.196  10.548   4.667
    1BCK1 B1     102   4.105  10.687   4.783
    1BCK1 B1     103   4.024  10.835   4.900
    1BCK1 B1     104   3.954  10.994   5.018
    1BCK1 B1     105   3.892  11.160   5.136
    1BCK1 B1     106   3.836  11.332   5.254
    1BCK1 B1     107   3.785  11.508   5.372
    1BCK1 B1     108   3.737  11.687   5.491
    1BCK1 B1     109   0.942   3.259   6.150
    1BCK1 B1     110   1.184   3.180   6.104
    1BCK1 B1     111   1.426   3.103   6.060
    1BCK1 B1     112   1.668   3.032   6.018
    1BCK1 B1     113   1.911   2.968   5.981
    1BCK1 B1     114   2.153   2.914   5.950
    1BCK1 B1     115   2.395   2.872   5.926
    1BCK1 B1     116   2.637   2.843   5.909
    1BCK1 B1     117   2.879   2.829   5.901
    1BCK1 B1     118   3.121   2.829   5.901
    1BCK1 B1     119   3.363   2.843   5.909
    1BCK1 B1     120   3.605   2.872   5.926
    1BCK1 B1     121   3.847   2.914   5.950
    1BCK1 B1     122   4.089   2.968   5.981
    1BCK1 B1     123   4.332   3.032   6.018
    1BCK1 B1     124   4.574   3.103   6.060
    1BCK1 B1     125   4.816   3.180   6.104
    1BCK1 B1     126   5.058   3.259   6.150
    1BCK1 B1     127   0.784   8.707   3.065
    1BCK1 B1     128   0.868   8.797   3.045
    1BCK1 B1     129   0.953   8.884   3.026
    1BCK1 B1     130   1.037   8.964   3.008
    1BCK1 B1     131   1.121   9.036   2.992
    1BCK1 B1     132   1.205   9.097   2.979
    1BCK1 B1     133   1.289   9.144   2.968
    1BCK1 B1     134   1.374   9.177   2.961
    1BCK1 B1     135   1.458   9.193   2.957
    1BCK1 B1     136   1.542   9.193   2.957
    1BCK1 B1     137   1.626   9.177   2.961
    1BCK1 B1     138   1.711   9.144   2.968
    1BCK1 B1     139   1.795   9.097   2.979
    1BCK1 B1     140   1.879   9.036   2.992
    1BCK1 B1     141   1.963   8.964   3.008
    1BCK1 B1     142   2.047   8.884   3.026
    1BCK1 B1     143   2.132   8.797   3.045
    1BCK1 B1     144   2.216   8.707   3.065
    1BCK1 B1     145  -0.465   8.770   8.263
    1BCK1 B1     146  -0.612   8.841   8.199
    1BCK1 B1     147  -0.758   8.909   8.134
    1BCK1 B1     148  -0.902   8.972   8.065
    1BCK1 B1     149  -1.041   9.028   7.993
    1BCK1 B1     150  -1.175   9.076   7.915
    1BCK1 B1     151  -1.303   9.113   7.832
    1BCK1 B1     152  -1.424   9.139   7.741
    1BCK1 B1     153  -1.537   9.152   7.643
    1BCK1 B1     154  -1.643   9.152   7.537
    1BCK1 B1     155  -1.741   9.139   7.424
    1BCK1 B1     156  -1.832   9.113   7.303
    1BCK1 B1     157  -1.915   9.076   7.175
    1BCK1 B1     158  -1.993   9.028   7.041
    1BCK1 B1     159  -2.065   8.972   6.902
    1BCK1 B1     160  -2.134   8.909   6.758
    1BCK1 B1     161  -2.199   8.841   6.612
    1BCK1 B1     162  -2.263   8.770   6.465
    1BCK1 B1     163   3.552   3.713   2.707
    1BCK1 B1     164   3.657   3.769   2.522
    1BCK1 B1     165   3.763   3.827   2.340
    1BCK1 B1     166   3.869   3.889   2.162
    1BCK1 B1     167   3.977   3.957   1.991
    1BCK1 B1     168   4.086   4.032   1.829
    1BCK1 B1     169   4.196   4.116   1.677
    1BCK1 B1     170   4.307   4.210   1.536
    1BCK1 B1     171   4.421   4.314   1.408
    1BCK1 B1     172   4.536   4.429   1.293
    1BCK1 B1     173   4.654   4.556   1.190
    1BCK1 B1     174   4.772   4.693   1.100
    1BCK1 B1     175   4.893   4.840   1.021
    1BCK1 B1     176   5.015   4.995   0.953
    1BCK1 B1     177   5.138   5.158   0.893
    1BCK1 B1     178   5.263   5.327   0.840
    1BCK1 B1     179   5.388   5.500   0.792
    1BCK1 B1     180   5.513   5.675   0.746
    1BCK1 B1     181   3.496   5.294   8.740
    1BCK1 B1     182   3.634   5.221   8.819
    1BCK1 B1     183   3.771   5.146   8.896
    1BCK1 B1     184   3.905   5.069   8.968
    1BCK1 B1     185   4.037   4.989   9.032
    1BCK1 B1     186   4.164   4.905   9.086
    1BCK1 B1     187   4.287   4.816   9.128
    1BCK1 B1     188   4.405   4.722   9.157
    1BCK1 B1     189   4.516   4.622   9.172
    1BCK1 B1     190   4.622   4.516   9.172
    1BCK1 B1     191   4.722   4.405   9.157
    1BCK1 B1     192   4.816   4.287   9.128
    1BCK1 B1     193   4.905   4.164   9.086
    1BCK1 B1     194   4.989   4.037   9.032
    1BCK1 B1     195   5.069   3.905   8.968
    1BCK1 B1     196   5.146   3.771   8.896
    1BCK1 B1     197   5.221   3.634   8.819
    1BCK1 B1     198   5.294   3.496   8.740
    1BCK1 B1     199   6.555   6.293   9.647
    1BCK1 B1     200   6.675   6.203   9.739
    1BCK1 B1     201   6.794   6.116   9.831
    1BCK1 B1     202   6.913   6.036   9.924
    1BCK1 B1     203   7.030   5.964  10.018
    1BCK1 B1     204   7.145   5.903  10.114
    1BCK1 B1     205   7.258   5.856  10.213
    1BCK1 B1     206   7.369   5.823  10.313
    1BCK1 B1     207   7.478   5.807  10.417
    1BCK1 B1     208   7.583   5.807  10.522
    1BCK1 B1     209   7.687   5.823  10.631
    1BCK1 B1     210   7.787   5.856  10.742
    1BCK1 B1     211   7.886   5.903  10.855
    1BCK1 B1     212   7.982   5.964  10.970
    1BCK1 B1     213   8.076   6.036  11.087
    1BCK1 B1     214   8.169   6.116  11.206
    1BCK1 B1     215   8.261   6.203  11.325
    1BCK1 B1     216   8.353   6.293  11.445
    1BCK1 B1     217   5.481   6.308   6.732
    1BCK1 B1     218   5.365   6.488   6.782
    1BCK1 B1     219   5.250   6.666   6.835
    1BCK1 B1     220   5.134   6.840   6.891
    1BCK1 B1     221   5.019   7.007   6.955
    1BCK1 B1     222   4.904   7.166   7.026
    1BCK1 B1     223   4.788   7.316   7.107
    1BCK1 B1     224   4.673   7.455   7.199
    1BCK1 B1     225   4.557   7.582   7.302
    1BCK1 B1     226   4.442   7.698   7.417
    1BCK1 B1     227   4.327   7.801   7.545
    1BCK1 B1     228   4.211   7.893   7.684
    1BCK1 B1     229   4.096   7.974   7.833
    1BCK1 B1     230   3.981   8.045   7.993
    1BCK1 B1     231   3.866   8.109   8.160
    1BCK1 B1     232   3.750   8.166   8.334
    1BCK1 B1     233   3.635   8.218   8.512
    1BCK1 B1     234   3.520   8.269   8.693
    1BCK1 B1     235   0.354  -0.445  -0.759
    1BCK1 B1     236   0.520  -0.584  -0.801
    1BCK1 B1     237   0.685  -0.721  -0.845
    1BCK1 B1     238   0.845  -0.857  -0.895
    1BCK1 B1     239   1.001  -0.990  -0.951
    1BCK1 B1     240   1.151  -1.121  -1.017
    1BCK1 B1     241   1.293  -1.248  -1.094
    1BCK1 B1     242   1.427  -1.372  -1.183
    1BCK1 B1     243   1.551  -1.491  -1.284
    1BCK1 B1     244   1.667  -1.607  -1.400
    1BCK1 B1     245   1.773  -1.718  -1.529
    1BCK1 B1     246   1.870  -1.825  -1.671
    1BCK1 B1     247   1.958  -1.928  -1.825
    1BCK1 B1     248   2.040  -2.028  -1.990
    1BCK1 B1     249   2.114  -2.125  -2.164
    1BCK1 B1     250   2.184  -2.220  -2.345
    1BCK1 B1     251   2.251  -2.314  -2.531
    1BCK1 B1     252   2.315  -2.406  -2.720
    1BCK1 B1     253   6.672   2.470   6.282
    1BCK1 B1     254   6.756   2.343   6.196
    1BCK1 B1     255   6.841   2.216   6.112
    1BCK1 B1     256   6.927   2.091   6.034
    1BCK1 B1     257   7.015   1.967   5.965
    1BCK1 B1     258   7.106   1.847   5.907
    1BCK1 B1     259   7.200   1.729   5.861
    1BCK1 B1     260   7.298   1.616   5.829
    1BCK1 B1     261   7.400   1.506   5.813
    1BCK1 B1     262   7.506   1.400   5.813
    1BCK1 B1     263   7.616   1.298   5.829
    1BCK1 B1     264   7.729   1.200   5.861
    1BCK1 B1     265   7.847   1.106   5.907
    1BCK1 B1     266   7.967   1.015   5.965
    1BCK1 B1     267   8.091   0.927   6.034
    1BCK1 B1     268   8.216   0.841   6.112
    1BCK1 B1     269   8.343   0.756   6.196
    1BCK1 B1     270   8.470   0.672   6.282
    1BCK1 B1     271   9.238   3.472   6.729
    1BCK1 B1     272   9.165   3.617   6.796
    1BCK1 B1     273   9.095   3.761   6.864
    1BCK1 B1     274   9.029   3.902   6.934
    1BCK1 B1     275   8.971   4.040   7.008
    1BCK1 B1     276   8.921   4.172   7.087
    1BCK1 B1     277   8.883   4.299   7.172
    1BCK1 B1     278   8.856   4.419   7.264
    1BCK1 B1     279   8.843   4.532   7.362
    1BCK1 B1     280   8.843   4.638   7.468
    1BCK1 B1     281   8.856   4.736   7.581
    1BCK1 B1     282   8.883   4.828   7.701
    1BCK1 B1     283   8.921   4.913   7.828
    1BCK1 B1     284   8.971   4.992   7.960
    1BCK1 B1     285   9.029   5.066   8.098
    1BCK1 B1     286   9.095   5.136   8.239
    1BCK1 B1     287   9.165   5.204   8.383
    1BCK1 B1     288   9.238   5.271   8.528
    1BCK1 B1     289   6.707   2.711   6.563
    1BCK1 B1     290   6.765   2.525   6.665
    1BCK1 B1     291   6.825   2.341   6.767
    1BCK1 B1     292   6.888   2.163   6.871
    1BCK1 B1     293   6.958   1.991   6.976
    1BCK1 B1     294   7.034   1.828   7.082
    1BCK1 B1     295   7.119   1.675   7.190
    1BCK1 B1     296   7.214   1.534   7.301
    1BCK1 B1     297   7.319   1.406   7.414
    1BCK1 B1     298   7.434   1.290   7.529
    1BCK1 B1     299   7.560   1.188   7.647
    1BCK1 B1     300   7.696   1.098   7.767
    1BCK1 B1     301   7.842   1.020   7.889
    1BCK1 B1     302   7.996   0.952   8.014
    1BCK1 B1     303   8.157   0.894   8.140
    1BCK1 B1     304   8.324   0.842   8.267
    1BCK1 B1     305   8.495   0.794   8.395
    1BCK1 B1     306   8.668   0.750   8.524
    1BCK1 B1     307   8.349   3.275   3.633
    1BCK1 B1     308   8.274   3.465   3.714
    1BCK1 B1     309   8.198   3.653   3.795
    1BCK1 B1     310   8.118   3.836   3.879
    1BCK1 B1     311   8.035   4.011   3.967
    1BCK1 B1     312   7.947   4.177   4.059
    1BCK1 B1     313   7.853   4.332   4.156
    1BCK1 B1     314   7.752   4.475   4.258
    1BCK1 B1     315   7.644   4.604   4.367
    1BCK1 B1     316   7.529   4.719   4.483
    1BCK1 B1     317   7.406   4.821   4.604
    1BCK1 B1     318   7.276   4.909   4.732
    1BCK1 B1     319   7.140   4.985   4.866
    1BCK1 B1     320   6.997   5.049   5.005
    1BCK1 B1     321   6.850   5.105   5.148
    1BCK1 B1     322   6.698   5.153   5.295
    1BCK1 B1     323   6.544   5.196   5.444
    1BCK1 B1     324   6.388   5.236   5.594
    1BCK1 B1     325   5.216   6.260   3.149
    1BCK1 B1     326   5.132   6.180   3.104
    1BCK1 B1     327   5.047   6.103   3.059
    1BCK1 B1     328   4.963   6.032   3.018
    1BCK1 B1     329   4.879   5.968   2.982
    1BCK1 B1     330   4.795   5.914   2.951
    1BCK1 B1     331   4.711   5.872   2.926
    1BCK1 B1     332   4.626   5.843   2.910
    1BCK1 B1     333   4.542   5.828   2.901
    1BCK1 B1     334   4.458   5.828   2.901
    1BCK1 B1     335   4.374   5.843   2.910
    1BCK1 B1     336   4.289   5.872   2.926
    1BCK1 B1     337   4.205   5.914   2.951
    1BCK1 B1     338   4.121   5.968   2.982
    1BCK1 B1     339   4.037   6.032   3.018
    1BCK1 B1     340   3.953   6.103   3.059
    1BCK1 B1     341   3.868   6.180   3.104
    1BCK1 B1     342   3.784   6.260   3.149
    1BCK1 B1     343   0.784   3.286   6.091
    1BCK1 B1     344   0.868   3.198   6.063
    1BCK1 B1     345   0.953   3.114   6.036
    1BCK1 B1     346   1.037   3.035   6.011
    1BCK1 B1     347   1.121   2.965   5.989
    1BCK1 B1     348   1.205   2.905   5.970
    1BCK1 B1     349   1.289   2.859   5.955
    1BCK1 B1     350   1.374   2.827   5.945
    1BCK1 B1     351   1.458   2.811   5.940
    1BCK1 B1     352   1.542   2.811   5.940
    1BCK1 B1     353   1.626   2.827   5.945
    1BCK1 B1     354   1.711   2.859   5.955
    1BCK1 B1     355   1.795   2.905   5.970
    1BCK1 B1     356   1.794   2.956   6.008
    1BCK1 B1     357   1.963   3.035   6.011
    1BCK1 B1     358   2.047   3.114   6.036
    1BCK1 B1     359   2.132   3.198   6.063
    1BCK1 B1     360   2.216   3.286   6.091
    1BCK1 B1     361   5.897   8.200   2.598
    1BCK1 B1     362   5.928   8.155   2.431
    1BCK1 B1     363   5.959   8.109   2.267
    1BCK1 B1     364   5.987   8.058   2.106
    1BCK1 B1     365   6.013   8.001   1.951
    1BCK1 B1     366   6.034   7.936   1.804
    1BCK1 B1     367   6.051   7.863   1.666
    1BCK1 B1     368   6.062   7.779   1.538
    1BCK1 B1     369   6.068   7.684   1.421
    1BCK1 B1     370   6.068   7.579   1.316
    1BCK1 B1     371   6.062   7.462   1.221
    1BCK1 B1     372   6.051   7.334   1.137
    1BCK1 B1     373   6.034   7.196   1.064
    1BCK1 B1     374   6.013   7.049   0.999
    1BCK1 B1     375   5.987   6.894   0.942
    1BCK1 B1     376   5.959   6.733   0.891
    1BCK1 B1     377   5.928   6.569   0.845
    1BCK1 B1     378   5.897   6.402   0.800
    1BCK1 B1     379   6.784   9.116   5.723
    1BCK1 B1     380   6.868   9.080   5.808
    1BCK1 B1     381   6.953   9.046   5.890
    1BCK1 B1     382   7.037   9.014   5.966
    1BCK1 B1     383   7.121   8.986   6.034
    1BCK1 B1     384   7.205   8.962   6.092
    1BCK1 B1     385   7.289   8.943   6.136
    1BCK1 B1     386   7.374   8.930   6.167
    1BCK1 B1     387   7.458   8.924   6.183
    1BCK1 B1     388   7.542   8.924   6.183
    1BCK1 B1     389   7.626   8.930   6.167
    1BCK1 B1     390   7.711   8.943   6.136
    1BCK1 B1     391   7.795   8.962   6.092
    1BCK1 B1     392   7.879   8.986   6.034
    1BCK1 B1     393   7.963   9.014   5.966
    1BCK1 B1     394   8.047   9.046   5.890
    1BCK1 B1     395   8.132   9.080   5.808
    1BCK1 B1     396   8.216   9.116   5.723
    1BCK1 B1     397   9.741   2.501   8.681
    1BCK1 B1     398   9.788   2.379   8.504
    1BCK1 B1     399   9.838   2.258   8.330
    1BCK1 B1     400   9.893   2.137   8.159
    1BCK1 B1     401   9.954   2.017   7.994
    1BCK1 B1     402  10.023   1.897   7.837
    1BCK1 B1     403  10.102   1.778   7.689
    1BCK1 B1     404  10.193   1.661   7.552
    1BCK1 B1     405  10.296   1.544   7.425
    1BCK1 B1     406  10.411   1.429   7.310
    1BCK1 B1     407  10.539   1.315   7.206
    1BCK1 B1     408  10.679   1.201   7.113
    1BCK1 B1     409  10.830   1.089   7.030
    1BCK1 B1     410  10.992   0.978   6.956
    1BCK1 B1     411  11.161   0.868   6.890
    1BCK1 B1     412  11.338   0.758   6.830
    1BCK1 B1     413  11.519   0.649   6.774
    1BCK1 B1     414  11.702   0.540   6.720
    1BCK1 B1     415   9.459   8.257   2.777
    1BCK1 B1     416   9.608   8.195   2.846
    1BCK1 B1     417   9.756   8.131   2.912
    1BCK1 B1     418   9.901   8.065   2.973
    1BCK1 B1     419  10.041   7.994   3.028
    1BCK1 B1     420  10.177   7.917   3.074
    1BCK1 B1     421  10.306   7.834   3.110
    1BCK1 B1     422  10.427   7.744   3.134
    1BCK1 B1     423  10.541   7.647   3.147
    1BCK1 B1     424  10.647   7.541   3.147
    1BCK1 B1     425  10.744   7.427   3.134
    1BCK1 B1     426  10.834   7.306   3.110
    1BCK1 B1     427  10.917   7.177   3.074
    1BCK1 B1     428  10.994   7.041   3.028
    1BCK1 B1     429  11.065   6.901   2.973
    1BCK1 B1     430  11.131   6.756   2.912
    1BCK1 B1     431  11.195   6.608   2.846
    1BCK1 B1     432  11.257   6.459   2.777
    1BCK1 B1     433  -0.079   0.289   0.784
    1BCK1 B1     434  -0.054   0.201   0.868
    1BCK1 B1     435  -0.031   0.115   0.953
    1BCK1 B1     436  -0.010   0.035   1.037
    1BCK1 B1     437   0.010  -0.036   1.121
    1BCK1 B1     438   0.026  -0.096   1.205
    1BCK1 B1     439   0.039  -0.143   1.289
    1BCK1 B1     440   0.047  -0.175   1.374
    1BCK1 B1     441   0.052  -0.191   1.458
    1BCK1 B1     442   0.052  -0.191   1.542
    1BCK1 B1     443   0.047  -0.175   1.626
    1BCK1 B1     444   0.039  -0.143   1.711
    1BCK1 B1     445   0.026  -0.096   1.795
    1BCK1 B1     446   0.010  -0.036   1.879
    1BCK1 B1     447  -0.010   0.035   1.963
    1BCK1 B1     448  -0.031   0.115   2.047
    1BCK1 B1     449  -0.054   0.201   2.132
    1BCK1 B1     450  -0.079   0.289   2.216
    1BCK1 B1     451   8.216  -0.252   3.162
    1BCK1 B1     452   8.132  -0.175   3.112
    1BCK1 B1     453   8.047  -0.100   3.064
    1BCK1 B1     454   7.963  -0.031   3.020
    1BCK1 B1     455   7.879   0.031   2.980
    1BCK1 B1     456   7.795   0.084   2.946
    1BCK1 B1     457   7.711   0.124   2.920
    1BCK1 B1     458   7.626   0.152   2.902
    1BCK1 B1     459   7.542   0.167   2.893
    1BCK1 B1     460   7.458   0.167   2.893
    1BCK1 B1     461   7.374   0.152   2.902
    1BCK1 B1     462   7.289   0.124   2.920
    1BCK1 B1     463   7.205   0.084   2.946
    1BCK1 B1     464   7.121   0.031   2.980
    1BCK1 B1     465   7.037  -0.031   3.020
    1BCK1 B1     466   6.953  -0.100   3.064
    1BCK1 B1     467   6.868  -0.175   3.112
    1BCK1 B1     468   6.784  -0.252   3.162
    1BCK1 B1     469   0.245   3.723   0.479
    1BCK1 B1     470   0.170   3.791   0.622
    1BCK1 B1     471   0.097   3.861   0.764
    1BCK1 B1     472   0.030   3.933   0.903
    1BCK1 B1     473  -0.030   4.009   1.039
    1BCK1 B1     474  -0.081   4.089   1.170
    1BCK1 B1     475  -0.121   4.175   1.296
    1BCK1 B1     476  -0.148   4.267   1.415
    1BCK1 B1     477  -0.162   4.366   1.528
    1BCK1 B1     478  -0.162   4.472   1.634
    1BCK1 B1     479  -0.148   4.585   1.733
    1BCK1 B1     480  -0.121   4.704   1.825
    1BCK1 B1     481  -0.081   4.830   1.911
    1BCK1 B1     482  -0.030   4.961   1.991
    1BCK1 B1     483   0.030   5.097   2.067
    1BCK1 B1     484   0.097   5.236   2.139
    1BCK1 B1     485   0.170   5.378   2.209
    1BCK1 B1     486   0.245   5.521   2.277
    1BCK1 B1     487  -0.762   2.629   6.425
    1BCK1 B1     488  -0.803   2.468   6.569
    1BCK1 B1     489  -0.847   2.309   6.713
    1BCK1 B1     490  -0.895   2.153   6.854
    1BCK1 B1     491  -0.951   2.001   6.993
    1BCK1 B1     492  -1.016   1.855   7.128
    1BCK1 B1     493  -1.092   1.715   7.258
    1BCK1 B1     494  -1.180   1.583   7.384
    1BCK1 B1     495  -1.282   1.460   7.505
    1BCK1 B1     496  -1.397   1.344   7.620
    1BCK1 B1     497  -1.526   1.237   7.730
    1BCK1 B1     498  -1.669   1.138   7.835
    1BCK1 B1     499  -1.823   1.047   7.935
    1BCK1 B1     500  -1.989   0.963   8.031
    1BCK1 B1     501  -2.164   0.884   8.123
    1BCK1 B1     502  -2.346   0.809   8.212
    1BCK1 B1     503  -2.534   0.738   8.300
    1BCK1 B1     504  -2.723   0.668   8.386
    1BCK1 B1     505   9.800   3.401   0.101
    1BCK1 B1     506   9.845   3.568   0.070
    1BCK1 B1     507   9.892   3.733   0.040
    1BCK1 B1     508   9.942   3.894   0.012
    1BCK1 B1     509   9.999   4.049  -0.013
    1BCK1 B1     510  10.064   4.196  -0.034
    1BCK1 B1     511  10.137   4.334  -0.050
    1BCK1 B1     512  10.221   4.462  -0.061
    1BCK1 B1     513  10.315   4.579  -0.067
    1BCK1 B1     514  10.421   4.685  -0.067
    1BCK1 B1     515  10.538   4.779  -0.061
    1BCK1 B1     516  10.666   4.863  -0.050
    1BCK1 B1     517  10.804   4.936  -0.034
    1BCK1 B1     518  10.951   5.001  -0.013
    1BCK1 B1     519  11.106   5.058   0.012
    1BCK1 B1     520  11.267   5.108   0.040
    1BCK1 B1     521  11.432   5.155   0.070
    1BCK1 B1     522  11.599   5.200   0.101
    1BCK1 B1     523   0.089   6.286   9.784
    1BCK1 B1     524   0.062   6.199   9.868
    1BCK1 B1     525   0.035   6.114   9.953
    1BCK1 B1     526   0.011   6.035  10.037
    1BCK1 B1     527  -0.011   5.965  10.121
    1BCK1 B1     528  -0.029   5.905  10.205
    1BCK1 B1     529  -0.044   5.859  10.289
    1BCK1 B1     530  -0.054   5.827  10.374
    1BCK1 B1     531  -0.059   5.811  10.458
    1BCK1 B1     532  -0.059   5.811  10.542
    1BCK1 B1     533  -0.054   5.827  10.626
    1BCK1 B1     534  -0.044   5.859  10.711
    1BCK1 B1     535  -0.029   5.905  10.795
    1BCK1 B1     536  -0.011   5.965  10.879
    1BCK1 B1     537   0.011   6.035  10.963
    1BCK1 B1     538   0.035   6.114  11.047
    1BCK1 B1     539   0.062   6.199  11.132
    1BCK1 B1     540   0.089   6.286  11.216
    1BCK1 B1     541  -0.259   8.849   6.784
    1BCK1 B1     542  -0.180   8.895   6.868
    1BCK1 B1     543  -0.103   8.940   6.953
    1BCK1 B1     544  -0.032   8.982   7.037
    1BCK1 B1     545   0.032   9.019   7.121
    1BCK1 B1     546   0.086   9.050   7.205
    1BCK1 B1     547   0.128   9.074   7.289
    1BCK1 B1     548   0.157   9.091   7.374
    1BCK1 B1     549   0.171   9.100   7.458
    1BCK1 B1     550   0.171   9.100   7.542
    1BCK1 B1     551   0.157   9.091   7.626
    1BCK1 B1     552   0.128   9.074   7.711
    1BCK1 B1     553   0.086   9.050   7.795
    1BCK1 B1     554   0.032   9.019   7.879
    1BCK1 B1     555  -0.032   8.982   7.963
    1BCK1 B1     556  -0.103   8.940   8.047
    1BCK1 B1     557  -0.180   8.895   8.132
    1BCK1 B1     558  -0.259   8.849   8.216
    1BCK1 B1     559  -0.784   9.222   3.202
    1BCK1 B1     560  -0.868   9.154   3.140
    1BCK1 B1     561  -0.953   9.088   3.080
    1BCK1 B1     562  -1.037   9.027   3.025
    1BCK1 B1     563  -1.121   8.973   2.975
    1BCK1 B1     564  -1.205   8.927   2.933
    1BCK1 B1     565  -1.289   8.891   2.901
    1BCK1 B1     566  -1.374   8.866   2.878
    1BCK1 B1     567  -1.458   8.853   2.867
    1BCK1 B1     568  -1.542   8.853   2.867
    1BCK1 B1     569  -1.626   8.866   2.878
    1BCK1 B1     570  -1.711   8.891   2.901
    1BCK1 B1     571  -1.795   8.927   2.933
    1BCK1 B1     572  -1.879   8.973   2.975
    1BCK1 B1     573  -1.963   9.027   3.025
    1BCK1 B1     574  -2.047   9.088   3.080
    1BCK1 B1     575  -2.132   9.154   3.140
    1BCK1 B1     576  -2.216   9.222   3.202
    1BCK1 B1     577  -0.784   8.973   8.701
    1BCK1 B1     578  -0.868   8.981   8.793
    1BCK1 B1     579  -0.953   8.989   8.881
    1BCK1 B1     580  -1.037   8.997   8.964
    1BCK1 B1     581  -1.121   9.003   9.037
    1BCK1 B1     582  -1.205   9.009   9.099
    1BCK1 B1     583  -1.289   9.014   9.147
    1BCK1 B1     584  -1.374   9.017   9.180
    1BCK1 B1     585  -1.458   9.018   9.197
    1BCK1 B1     586  -1.542   9.018   9.197
    1BCK1 B1     587  -1.626   9.017   9.180
    1BCK1 B1     588  -1.711   9.014   9.147
    1BCK1 B1     589  -1.795   9.009   9.099
    1BCK1 B1     590  -1.879   9.003   9.037
    1BCK1 B1     591  -1.963   8.997   8.964
    1BCK1 B1     592  -2.047   8.989   8.881
    1BCK1 B1     593  -2.132   8.981   8.793
    1BCK1 B1     594  -2.216   8.973   8.701
    1BCK1 B1     595   5.862   8.211   6.413
    1BCK1 B1     596   5.904   8.163   6.576
    1BCK1 B1     597   5.945   8.113   6.738
    1BCK1 B1     598   5.983   8.059   6.895
    1BCK1 B1     599   6.017   7.999   7.047
    1BCK1 B1     600   6.046   7.933   7.192
    1BCK1 B1     601   6.068   7.857   7.328
    1BCK1 B1     602   6.084   7.772   7.455
    1BCK1 B1     603   6.091   7.677   7.571
    1BCK1 B1     604   6.091   7.571   7.677
    1BCK1 B1     605   6.084   7.455   7.772
    1BCK1 B1     606   6.068   7.328   7.857
    1BCK1 B1     607   6.046   7.192   7.933
    1BCK1 B1     608   6.017   7.047   7.999
    1BCK1 B1     609   5.983   6.895   8.059
    1BCK1 B1     610   5.945   6.738   8.113
    1BCK1 B1     611   5.904   6.576   8.163
    1BCK1 B1     612   5.862   6.413   8.211
    1BCK1 B1     613   9.380   8.585   5.237
    1BCK1 B1     614   9.538   8.438   5.196
    1BCK1 B1     615   9.695   8.291   5.153
    1BCK1 B1     616   9.849   8.147   5.105
    1BCK1 B1     617   9.998   8.006   5.049
    1BCK1 B1     618  10.142   7.869   4.984
    1BCK1 B1     619  10.280   7.737   4.909
    1BCK1 B1     620  10.411   7.610   4.820
    1BCK1 B1     621  10.534   7.489   4.719
    1BCK1 B1     622  10.650   7.373   4.604
    1BCK1 B1     623  10.757   7.264   4.474
    1BCK1 B1     624  10.857   7.160   4.332
    1BCK1 B1     625  10.950   7.062   4.177
    1BCK1 B1     626  11.036   6.968   4.011
    1BCK1 B1     627  11.117   6.878   3.836
    1BCK1 B1     628  11.194   6.792   3.653
    1BCK1 B1     629  11.268   6.707   3.466
    1BCK1 B1     630  11.341   6.624   3.276
    1BCK1 B1     631   2.708   3.554   9.648
    1BCK1 B1     632   2.797   3.674   9.739
    1BCK1 B1     633   2.884   3.794   9.831
    1BCK1 B1     634   2.964   3.912   9.924
    1BCK1 B1     635   3.036   4.030  10.018
    1BCK1 B1     636   3.097   4.145  10.114
    1BCK1 B1     637   3.144   4.259  10.212
    1BCK1 B1     638   3.177   4.370  10.313
    1BCK1 B1     639   3.193   4.478  10.416
    1BCK1 B1     640   3.193   4.584  10.522
    1BCK1 B1     641   3.177   4.687  10.630
    1BCK1 B1     642   3.144   4.788  10.741
    1BCK1 B1     643   3.097   4.886  10.855
    1BCK1 B1     644   3.036   4.982  10.970
    1BCK1 B1     645   2.964   5.076  11.088
    1BCK1 B1     646   2.884   5.169  11.206
    1BCK1 B1     647   2.797   5.261  11.326
    1BCK1 B1     648   2.708   5.352  11.446
    1BCK1 B1     649   2.740   8.294   8.504
    1BCK1 B1     650   2.819   8.221   8.366
    1BCK1 B1     651   2.897   8.146   8.229
    1BCK1 B1     652   2.968   8.069   8.095
    1BCK1 B1     653   3.032   7.989   7.963
    1BCK1 B1     654   3.086   7.905   7.835
    1BCK1 B1     655   3.128   7.816   7.713
    1BCK1 B1     656   3.157   7.722   7.595
    1BCK1 B1     657   3.172   7.622   7.483
    1BCK1 B1     658   3.172   7.517   7.378
    1BCK1 B1     659   3.157   7.405   7.278
    1BCK1 B1     660   3.128   7.287   7.184
    1BCK1 B1     661   3.086   7.165   7.095
    1BCK1 B1     662   3.032   7.037   7.011
    1BCK1 B1     663   2.968   6.905   6.931
    1BCK1 B1     664   2.897   6.771   6.854
    1BCK1 B1     665   2.819   6.634   6.779
    1BCK1 B1     666   2.740   6.496   6.706
    1BCK1 B1     667   2.406   6.280   2.316
    1BCK1 B1     668   2.313   6.469   2.251
    1BCK1 B1     669   2.220   6.655   2.184
    1BCK1 B1     670   2.125   6.836   2.114
    1BCK1 B1     671   2.028   7.010   2.039
    1BCK1 B1     672   1.928   7.175   1.958
    1BCK1 B1     673   1.825   7.330   1.869
    1BCK1 B1     674   1.718   7.472   1.772
    1BCK1 B1     675   1.607   7.600   1.666
    1BCK1 B1     676   1.492   7.716   1.551
    1BCK1 B1     677   1.372   7.818   1.426
    1BCK1 B1     678   1.248   7.906   1.293
    1BCK1 B1     679   1.121   7.983   1.151
    1BCK1 B1     680   0.990   8.049   1.001
    1BCK1 B1     681   0.856   8.105   0.846
    1BCK1 B1     682   0.720   8.155   0.685
    1BCK1 B1     683   0.583   8.199   0.521
    1BCK1 B1     684   0.445   8.241   0.355
    1BCK1 B1     685   3.417   6.378   9.763
    1BCK1 B1     686   3.564   6.537   9.804
    1BCK1 B1     687   3.710   6.694   9.847
    1BCK1 B1     688   3.853   6.848   9.895
    1BCK1 B1     689   3.994   6.998   9.951
    1BCK1 B1     690   4.130   7.143  10.016
    1BCK1 B1     691   4.262   7.281  10.091
    1BCK1 B1     692   4.389   7.412  10.180
    1BCK1 B1     693   4.510   7.536  10.281
    1BCK1 B1     694   4.625   7.651  10.397
    1BCK1 B1     695   4.735   7.758  10.526
    1BCK1 B1     696   4.839   7.858  10.668
    1BCK1 B1     697   4.938   7.951  10.823
    1BCK1 B1     698   5.032   8.037  10.989
    1BCK1 B1     699   5.122   8.117  11.164
    1BCK1 B1     700   5.209   8.194  11.347
    1BCK1 B1     701   5.294   8.267  11.534
    1BCK1 B1     702   5.378   8.339  11.724
    1BCK1 B1     703   3.237   9.784  -0.184
    1BCK1 B1     704   3.164   9.868  -0.127
    1BCK1 B1     705   3.094   9.953  -0.073
    1BCK1 B1     706   3.029  10.037  -0.022
    1BCK1 B1     707   2.971  10.121   0.023
    1BCK1 B1     708   2.922  10.205   0.061
    1BCK1 B1     709   2.883  10.289   0.091
    1BCK1 B1     710   2.857  10.374   0.111
    1BCK1 B1     711   2.843  10.458   0.121
    1BCK1 B1     712   2.843  10.542   0.121
    1BCK1 B1     713   2.857  10.626   0.111
    1BCK1 B1     714   2.883  10.711   0.091
    1BCK1 B1     715   2.922  10.795   0.061
    1BCK1 B1     716   2.971  10.879   0.023
    1BCK1 B1     717   3.029  10.963  -0.022
    1BCK1 B1     718   3.094  11.047  -0.073
    1BCK1 B1     719   3.164  11.132  -0.127
    1BCK1 B1     720   3.237  11.216  -0.184
    1BCK1 B1     721   3.750   5.667   5.524
    1BCK1 B1     722   3.795   5.495   5.396
    1BCK1 B1     723   3.842   5.324   5.267
    1BCK1 B1     724   3.894   5.157   5.140
    1BCK1 B1     725   3.952   4.996   5.014
    1BCK1 B1     726   4.020   4.842   4.889
    1BCK1 B1     727   4.098   4.696   4.767
    1BCK1 B1     728   4.188   4.560   4.647
    1BCK1 B1     729   4.290   4.434   4.529
    1BCK1 B1     730   4.405   4.319   4.413
    1BCK1 B1     731   4.534   4.214   4.300
    1BCK1 B1     732   4.675   4.120   4.190
    1BCK1 B1     733   4.827   4.034   4.082
    1BCK1 B1     734   4.991   3.958   3.975
    1BCK1 B1     735   5.163   3.888   3.871
    1BCK1 B1     736   5.341   3.824   3.768
    1BCK1 B1     737   5.525   3.764   3.665
    1BCK1 B1     738   5.711   3.706   3.563
    1BCK1 B1     739   6.204   0.784   3.220
    1BCK1 B1     740   6.141   0.868   3.152
    1BCK1 B1     741   6.081   0.953   3.087
    1BCK1 B1     742   6.025   1.037   3.027
    1BCK1 B1     743   5.975   1.121   2.973
    1BCK1 B1     744   5.933   1.205   2.927
    1BCK1 B1     745   5.900   1.289   2.892
    1BCK1 B1     746   5.877   1.374   2.867
    1BCK1 B1     747   5.865   1.458   2.855
    1BCK1 B1     748   5.865   1.542   2.855
    1BCK1 B1     749   5.877   1.626   2.867
    1BCK1 B1     750   5.900   1.711   2.892
    1BCK1 B1     751   5.933   1.795   2.927
    1BCK1 B1     752   5.975   1.879   2.973
    1BCK1 B1     753   6.025   1.963   3.027
    1BCK1 B1     754   6.081   2.047   3.087
    1BCK1 B1     755   6.141   2.132   3.152
    1BCK1 B1     756   6.204   2.216   3.220
    1BCK1 B1     757   6.345   0.457   5.244
    1BCK1 B1     758   6.514   0.592   5.201
    1BCK1 B1     759   6.681   0.726   5.156
    1BCK1 B1     760   6.844   0.858   5.106
    1BCK1 B1     761   7.002   0.989   5.048
    1BCK1 B1     762   7.154   1.117   4.982
    1BCK1 B1     763   7.297   1.242   4.905
    1BCK1 B1     764   7.432   1.364   4.816
    1BCK1 B1     765   7.557   1.483   4.714
    1BCK1 B1     766   7.673   1.599   4.598
    1BCK1 B1     767   7.778   1.710   4.470
    1BCK1 B1     768   7.874   1.819   4.328
    1BCK1 B1     769   7.961   1.924   4.174
    1BCK1 B1     770   8.041   2.027   4.010
    1BCK1 B1     771   8.113   2.127   3.837
    1BCK1 B1     772   8.181   2.225   3.656
    1BCK1 B1     773   8.244   2.322   3.471
    1BCK1 B1     774   8.306   2.418   3.283
    1BCK1 B1     775   2.275   6.302   6.532
    1BCK1 B1     776   2.223   6.484   6.643
    1BCK1 B1     777   2.168   6.664   6.755
    1BCK1 B1     778   2.109   6.839   6.867
    1BCK1 B1     779   2.045   7.008   6.979
    1BCK1 B1     780   1.972   7.168   7.092
    1BCK1 B1     781   1.890   7.319   7.206
    1BCK1 B1     782   1.797   7.459   7.320
    1BCK1 B1     783   1.694   7.586   7.434
    1BCK1 B1     784   1.578   7.702   7.550
    1BCK1 B1     785   1.451   7.805   7.666
    1BCK1 B1     786   1.313   7.896   7.782
    1BCK1 B1     787   1.164   7.976   7.900
    1BCK1 B1     788   1.006   8.046   8.018
    1BCK1 B1     789   0.840   8.108   8.136
    1BCK1 B1     790   0.668   8.163   8.255
    1BCK1 B1     791   0.492   8.214   8.374
    1BCK1 B1     792   0.314   8.263   8.493
    1BCK1 B1     793   6.800   0.402   8.896
    1BCK1 B1     794   6.844   0.569   8.928
    1BCK1 B1     795   6.891   0.733   8.959
    1BCK1 B1     796   6.942   0.894   8.987
    1BCK1 B1     797   6.999   1.049   9.013
    1BCK1 B1     798   7.064   1.196   9.034
    1BCK1 B1     799   7.138   1.334   9.051
    1BCK1 B1     800   7.221   1.461   9.063
    1BCK1 B1     801   7.316   1.578   9.069
    1BCK1 B1     802   7.422   1.684   9.069
    1BCK1 B1     803   7.539   1.779   9.063
    1BCK1 B1     804   7.666   1.862   9.051
    1BCK1 B1     805   7.804   1.936   9.034
    1BCK1 B1     806   7.951   2.001   9.013
    1BCK1 B1     807   8.106   2.058   8.987
    1BCK1 B1     808   8.267   2.109   8.959
    1BCK1 B1     809   8.431   2.156   8.928
    1BCK1 B1     810   8.598   2.200   8.896
    1BCK1 B1     811   8.330   9.277   5.388
    1BCK1 B1     812   8.261   9.467   5.301
    1BCK1 B1     813   8.190   9.654   5.213
    1BCK1 B1     814   8.116   9.836   5.123
    1BCK1 B1     815   8.038  10.011   5.031
    1BCK1 B1     816   7.953  10.177   4.934
    1BCK1 B1     817   7.862  10.331   4.834
    1BCK1 B1     818   7.764  10.473   4.729
    1BCK1 B1     819   7.657  10.603   4.619
    1BCK1 B1     820   7.542  10.718   4.503
    1BCK1 B1     821   7.418  10.820   4.383
    1BCK1 B1     822   7.286  10.908   4.257
    1BCK1 B1     823   7.146  10.984   4.127
    1BCK1 B1     824   6.999  11.049   3.992
    1BCK1 B1     825   6.847  11.105   3.854
    1BCK1 B1     826   6.691  11.153   3.714
    1BCK1 B1     827   6.531  11.197   3.571
    1BCK1 B1     828   6.369  11.238   3.427
    1BCK1 B1     829   9.054   0.784   3.295
    1BCK1 B1     830   9.037   0.868   3.205
    1BCK1 B1     831   9.021   0.953   3.117
    1BCK1 B1     832   9.007   1.037   3.036
    1BCK1 B1     833   8.993   1.121   2.964
    1BCK1 B1     834   8.982   1.205   2.902
    1BCK1 B1     835   8.973   1.289   2.855
    1BCK1 B1     836   8.967   1.374   2.822
    1BCK1 B1     837   8.964   1.458   2.805
    1BCK1 B1     838   8.964   1.542   2.805
    1BCK1 B1     839   8.967   1.626   2.822
    1BCK1 B1     840   8.973   1.711   2.855
    1BCK1 B1     841   8.982   1.795   2.902
    1BCK1 B1     842   8.993   1.879   2.964
    1BCK1 B1     843   9.007   1.963   3.036
    1BCK1 B1     844   9.021   2.047   3.117
    1BCK1 B1     845   9.037   2.132   3.205
    1BCK1 B1     846   9.054   2.216   3.295
    1BCK1 B1     847  -0.459   0.223   3.742
    1BCK1 B1     848  -0.608   0.155   3.805
    1BCK1 B1     849  -0.756   0.089   3.869
    1BCK1 B1     850  -0.901   0.027   3.935
    1BCK1 B1     851  -1.041  -0.028   4.006
    1BCK1 B1     852  -1.177  -0.074   4.083
    1BCK1 B1     853  -1.305  -0.110   4.166
    1BCK1 B1     854  -1.427  -0.135   4.256
    1BCK1 B1     855  -1.541  -0.148   4.354
    1BCK1 B1     856  -1.646  -0.148   4.459
    1BCK1 B1     857  -1.744  -0.135   4.573
    1BCK1 B1     858  -1.834  -0.110   4.695
    1BCK1 B1     859  -1.917  -0.074   4.823
    1BCK1 B1     860  -1.994  -0.028   4.959
    1BCK1 B1     861  -2.065   0.027   5.099
    1BCK1 B1     862  -2.131   0.089   5.244
    1BCK1 B1     863  -2.195   0.155   5.392
    1BCK1 B1     864  -2.258   0.223   5.541
    1BCK1 B1     865   9.398   3.764  -0.396
    1BCK1 B1     866   9.551   3.805  -0.549
    1BCK1 B1     867   9.702   3.847  -0.701
    1BCK1 B1     868   9.851   3.895  -0.850
    1BCK1 B1     869   9.996   3.951  -0.996
    1BCK1 B1     870  10.136   4.015  -1.137
    1BCK1 B1     871  10.271   4.091  -1.273
    1BCK1 B1     872  10.400   4.179  -1.402
    1BCK1 B1     873  10.522   4.281  -1.524
    1BCK1 B1     874  10.638   4.396  -1.639
    1BCK1 B1     875  10.746   4.525  -1.748
    1BCK1 B1     876  10.848   4.668  -1.849
    1BCK1 B1     877  10.944   4.823  -1.945
    1BCK1 B1     878  11.034   4.989  -2.034
    1BCK1 B1     879  11.120   5.164  -2.119
    1BCK1 B1     880  11.202   5.347  -2.201
    1BCK1 B1     881  11.281   5.535  -2.279
    1BCK1 B1     882  11.360   5.725  -2.357
    1BCK1 B1     883   6.338  -0.752  -0.468
    1BCK1 B1     884   6.509  -0.796  -0.599
    1BCK1 B1     885   6.678  -0.843  -0.730
    1BCK1 B1     886   6.843  -0.894  -0.859
    1BCK1 B1     887   7.003  -0.952  -0.987
    1BCK1 B1     888   7.156  -1.019  -1.113
    1BCK1 B1     889   7.301  -1.097  -1.237
    1BCK1 B1     890   7.437  -1.186  -1.358
    1BCK1 B1     891   7.562  -1.288  -1.476
    1BCK1 B1     892   7.678  -1.404  -1.592
    1BCK1 B1     893   7.783  -1.532  -1.704
    1BCK1 B1     894   7.878  -1.674  -1.814
    1BCK1 B1     895   7.964  -1.827  -1.921
    1BCK1 B1     896   8.042  -1.990  -2.025
    1BCK1 B1     897   8.112  -2.163  -2.128
    1BCK1 B1     898   8.178  -2.342  -2.229
    1BCK1 B1     899   8.239  -2.527  -2.330
    1BCK1 B1     900   8.299  -2.713  -2.429
    1BCK1 B1     901   3.281  -0.784   9.104
    1BCK1 B1     902   3.195  -0.868   9.072
    1BCK1 B1     903   3.112  -0.953   9.042
    1BCK1 B1     904   3.034  -1.037   9.013
    1BCK1 B1     905   2.965  -1.121   8.987
    1BCK1 B1     906   2.907  -1.205   8.965
    1BCK1 B1     907   2.861  -1.289   8.949
    1BCK1 B1     908   2.830  -1.374   8.937
    1BCK1 B1     909   2.814  -1.458   8.931
    1BCK1 B1     910   2.814  -1.542   8.931
    1BCK1 B1     911   2.830  -1.626   8.937
    1BCK1 B1     912   2.861  -1.711   8.949
    1BCK1 B1     913   2.907  -1.795   8.965
    1BCK1 B1     914   2.965  -1.879   8.987
    1BCK1 B1     915   3.034  -1.963   9.013
    1BCK1 B1     916   3.112  -2.047   9.042
    1BCK1 B1     917   3.195  -2.132   9.072
    1BCK1 B1     918   3.281  -2.216   9.104
    1BCK1 B1     919   8.287   5.745   9.489
    1BCK1 B1     920   8.216   5.823   9.629
    1BCK1 B1     921   8.143   5.899   9.768
    1BCK1 B1     922   8.068   5.969   9.905
    1BCK1 B1     923   7.990   6.031  10.038
    1BCK1 B1     924   7.907   6.084  10.167
    1BCK1 B1     925   7.820   6.126  10.291
    1BCK1 B1     926   7.726   6.154  10.409
    1BCK1 B1     927   7.627   6.168  10.521
    1BCK1 B1     928   7.521   6.168  10.627
    1BCK1 B1     929   7.409   6.154  10.726
    1BCK1 B1     930   7.291   6.126  10.820
    1BCK1 B1     931   7.167   6.084  10.907
    1BCK1 B1     932   7.038   6.031  10.990
    1BCK1 B1     933   6.905   5.969  11.068
    1BCK1 B1     934   6.768   5.899  11.143
    1BCK1 B1     935   6.629   5.823  11.216
    1BCK1 B1     936   6.489   5.745  11.287
    1BCK1 B1     937   8.705   2.438   8.361
    1BCK1 B1     938   8.796   2.320   8.267
    1BCK1 B1     939   8.883   2.203   8.172
    1BCK1 B1     940   8.964   2.087   8.077
    1BCK1 B1     941   9.036   1.971   7.981
    1BCK1 B1     942   9.098   1.858   7.883
    1BCK1 B1     943   9.145   1.746   7.783
    1BCK1 B1     944   9.178   1.636   7.682
    1BCK1 B1     945   9.195   1.528   7.578
    1BCK1 B1     946   9.195   1.422   7.472
    1BCK1 B1     947   9.178   1.318   7.364
    1BCK1 B1     948   9.145   1.217   7.254
    1BCK1 B1     949   9.098   1.117   7.142
    1BCK1 B1     950   9.036   1.019   7.029
    1BCK1 B1     951   8.964   0.923   6.913
    1BCK1 B1     952   8.883   0.828   6.797
    1BCK1 B1     953   8.796   0.733   6.680
    1BCK1 B1     954   8.705   0.639   6.562
    1BCK1 B1     955  -0.813   2.611   9.011
    1BCK1 B1     956  -0.853   2.440   9.008
    1BCK1 B1     957  -0.897   2.272   9.004
    1BCK1 B1     958  -0.944   2.108   9.001
    1BCK1 B1     959  -0.998   1.950   8.999
    1BCK1 B1     960  -1.060   1.800   8.996
    1BCK1 B1     961  -1.131   1.660   8.995
    1BCK1 B1     962  -1.213   1.531   8.993
    1BCK1 B1     963  -1.307   1.413   8.993
    1BCK1 B1     964  -1.413   1.307   8.993
    1BCK1 B1     965  -1.531   1.213   8.993
    1BCK1 B1     966  -1.660   1.131   8.995
    1BCK1 B1     967  -1.800   1.060   8.996
    1BCK1 B1     968  -1.950   0.998   8.999
    1BCK1 B1     969  -2.108   0.944   9.001
    1BCK1 B1     970  -2.272   0.897   9.004
    1BCK1 B1     971  -2.440   0.853   9.008
    1BCK1 B1     972  -2.611   0.813   9.011
    1BCK1 B1     973   3.080   0.396   3.805
    1BCK1 B1     974   3.055   0.565   3.848
    1BCK1 B1     975   3.032   0.731   3.894
    1BCK1 B1     976   3.010   0.893   3.943
    1BCK1 B1     977   2.990   1.049   3.999
    1BCK1 B1     978   2.974   1.197   4.062
    1BCK1 B1     979   2.961   1.336   4.135
    1BCK1 B1     980   2.952   1.465   4.218
    1BCK1 B1     981   2.947   1.582   4.312
    1BCK1 B1     982   2.947   1.688   4.418
    1BCK1 B1     983   2.952   1.782   4.535
    1BCK1 B1     984   2.961   1.865   4.664
    1BCK1 B1     985   2.974   1.938   4.803
    1BCK1 B1     986   2.990   2.001   4.951
    1BCK1 B1     987   3.010   2.057   5.107
    1BCK1 B1     988   3.032   2.106   5.269
    1BCK1 B1     989   3.055   2.152   5.435
    1BCK1 B1     990   3.080   2.195   5.604
    1BCK1 B1     991   0.201   0.223   9.784
    1BCK1 B1     992   0.139   0.154   9.868
    1BCK1 B1     993   0.080   0.088   9.953
    1BCK1 B1     994   0.024   0.027  10.037
    1BCK1 B1     995  -0.025  -0.028  10.121
    1BCK1 B1     996  -0.066  -0.074  10.205
    1BCK1 B1     997  -0.099  -0.110  10.289
    1BCK1 B1     998  -0.121  -0.134  10.374
    1BCK1 B1     999  -0.133  -0.147  10.458
    1BCK1 B1    1000  -0.133  -0.147  10.542
    1BCK1 B1    1001  -0.121  -0.134  10.626
    1BCK1 B1    1002  -0.099  -0.110  10.711
    1BCK1 B1    1003  -0.066  -0.074  10.795
    1BCK1 B1    1004  -0.025  -0.028  10.879
    1BCK1 B1    1005   0.024   0.027  10.963
    1BCK1 B1    1006   0.080   0.088  11.047
    1BCK1 B1    1007   0.139   0.154  11.132
    1BCK1 B1    1008   0.201   0.223  11.216
    1BCK1 B1    1009   0.942   3.125   9.273
    1BCK1 B1    1010   1.184   3.086   9.189
    1BCK1 B1    1011   1.426   3.050   9.108
    1BCK1 B1    1012   1.668   3.015   9.033
    1BCK1 B1    1013   1.911   2.985   8.966
    1BCK1 B1    1014   2.153   2.959   8.910
    1BCK1 B1    1015   2.395   2.939   8.866
    1BCK1 B1    1016   2.637   2.925   8.835
    1BCK1 B1    1017   2.879   2.918   8.820
    1BCK1 B1    1018   3.121   2.918   8.820
    1BCK1 B1    1019   3.363   2.925   8.835
    1BCK1 B1    1020   3.605   2.939   8.866
    1BCK1 B1    1021   3.847   2.959   8.910
    1BCK1 B1    1022   4.089   2.985   8.966
    1BCK1 B1    1023   4.332   3.015   9.033
    1BCK1 B1    1024   4.574   3.050   9.108
    1BCK1 B1    1025   4.816   3.086   9.189
    1BCK1 B1    1026   5.058   3.125   9.273
    1BCK1 B1    1027   6.799   5.414   5.827
    1BCK1 B1    1028   6.828   5.319   5.605
    1BCK1 B1    1029   6.861   5.223   5.387
    1BCK1 B1    1030   6.900   5.126   5.177
    1BCK1 B1    1031   6.946   5.027   4.976
    1BCK1 B1    1032   7.004   4.926   4.789
    1BCK1 B1    1033   7.074   4.821   4.618
    1BCK1 B1    1034   7.158   4.713   4.464
    1BCK1 B1    1035   7.258   4.602   4.329
    1BCK1 B1    1036   7.373   4.487   4.214
    1BCK1 B1    1037   7.504   4.367   4.118
    1BCK1 B1    1038   7.651   4.245   4.041
    1BCK1 B1    1039   7.811   4.118   3.982
    1BCK1 B1    1040   7.985   3.989   3.938
    1BCK1 B1    1041   8.168   3.857   3.908
    1BCK1 B1    1042   8.361   3.724   3.888
    1BCK1 B1    1043   8.559   3.588   3.875
    1BCK1 B1    1044   8.760   3.453   3.866
    1BCK1 B1    1045  -0.054   3.295   9.784
    1BCK1 B1    1046  -0.038   3.204   9.868
    1BCK1 B1    1047  -0.022   3.117   9.953
    1BCK1 B1    1048  -0.007   3.036  10.037
    1BCK1 B1    1049   0.007   2.964  10.121
    1BCK1 B1    1050   0.018   2.902  10.205
    1BCK1 B1    1051   0.027   2.855  10.289
    1BCK1 B1    1052   0.033   2.822  10.374
    1BCK1 B1    1053   0.036   2.805  10.458
    1BCK1 B1    1054   0.036   2.805  10.542
    1BCK1 B1    1055   0.033   2.822  10.626
    1BCK1 B1    1056   0.027   2.855  10.711
    1BCK1 B1    1057   0.018   2.902  10.795
    1BCK1 B1    1058   0.007   2.964  10.879
    1BCK1 B1    1059  -0.007   3.036  10.963
    1BCK1 B1    1060  -0.022   3.117  11.047
    1BCK1 B1    1061  -0.038   3.204  11.132
    1BCK1 B1    1062  -0.054   3.295  11.216
    1BCK1 B1    1063  -0.237   2.270   3.471
    1BCK1 B1    1064  -0.165   2.204   3.617
    1BCK1 B1    1065  -0.094   2.136   3.761
    1BCK1 B1    1066  -0.029   2.066   3.902
    1BCK1 B1    1067   0.029   1.992   4.040
    1BCK1 B1    1068   0.079   1.913   4.173
    1BCK1 B1    1069   0.117   1.828   4.299
    1BCK1 B1    1070   0.143   1.737   4.420
    1BCK1 B1    1071   0.157   1.639   4.533
    1BCK1 B1    1072   0.157   1.533   4.639
    1BCK1 B1    1073   0.143   1.420   4.737
    1BCK1 B1    1074   0.117   1.299   4.828
    1BCK1 B1    1075   0.079   1.173   4.913
    1BCK1 B1    1076   0.029   1.040   4.992
    1BCK1 B1    1077  -0.029   0.902   5.066
    1BCK1 B1    1078  -0.094   0.761   5.136
    1BCK1 B1    1079  -0.165   0.617   5.204
    1BCK1 B1    1080  -0.237   0.471   5.270
    1BCK1 B1    1081   9.258   6.708   6.493
    1BCK1 B1    1082   9.179   6.781   6.632
    1BCK1 B1    1083   9.103   6.855   6.770
    1BCK1 B1    1084   9.032   6.931   6.905
    1BCK1 B1    1085   8.968   7.011   7.037
    1BCK1 B1    1086   8.914   7.094   7.165
    1BCK1 B1    1087   8.873   7.183   7.289
    1BCK1 B1    1088   8.844   7.276   7.406
    1BCK1 B1    1089   8.829   7.376   7.518
    1BCK1 B1    1090   8.829   7.482   7.624
    1BCK1 B1    1091   8.844   7.594   7.724
    1BCK1 B1    1092   8.873   7.711   7.817
    1BCK1 B1    1093   8.914   7.835   7.906
    1BCK1 B1    1094   8.968   7.963   7.989
    1BCK1 B1    1095   9.032   8.095   8.069
    1BCK1 B1    1096   9.103   8.230   8.145
    1BCK1 B1    1097   9.179   8.368   8.219
    1BCK1 B1    1098   9.258   8.507   8.292
    1BCK1 B1    1099   0.942   6.251   9.163
    1BCK1 B1    1100   1.184   6.174   9.113
    1BCK1 B1    1101   1.426   6.100   9.065
    1BCK1 B1    1102   1.668   6.031   9.020
    1BCK1 B1    1103   1.911   5.969   8.980
    1BCK1 B1    1104   2.153   5.917   8.946
    1BCK1 B1    1105   2.395   5.876   8.920
    1BCK1 B1    1106   2.637   5.848   8.901
    1BCK1 B1    1107   2.879   5.834   8.892
    1BCK1 B1    1108   3.121   5.834   8.892
    1BCK1 B1    1109   3.363   5.848   8.901
    1BCK1 B1    1110   3.605   5.876   8.920
    1BCK1 B1    1111   3.847   5.917   8.946
    1BCK1 B1    1112   4.089   5.969   8.980
    1BCK1 B1    1113   4.332   6.031   9.020
    1BCK1 B1    1114   4.574   6.100   9.065
    1BCK1 B1    1115   4.816   6.174   9.113
    1BCK1 B1    1116   5.058   6.251   9.163
    1BCK1 B1    1117  -0.377   9.763   2.582
    1BCK1 B1    1118  -0.536   9.804   2.436
    1BCK1 B1    1119  -0.694   9.847   2.290
    1BCK1 B1    1120  -0.848   9.895   2.147
    1BCK1 B1    1121  -0.998   9.951   2.007
    1BCK1 B1    1122  -1.143  10.016   1.870
    1BCK1 B1    1123  -1.282  10.091   1.738
    1BCK1 B1    1124  -1.413  10.180   1.612
    1BCK1 B1    1125  -1.536  10.281   1.491
    1BCK1 B1    1126  -1.652  10.397   1.375
    1BCK1 B1    1127  -1.759  10.526   1.266
    1BCK1 B1    1128  -1.858  10.668   1.162
    1BCK1 B1    1129  -1.951  10.823   1.063
    1BCK1 B1    1130  -2.037  10.989   0.968
    1BCK1 B1    1131  -2.117  11.164   0.878
    1BCK1 B1    1132  -2.193  11.347   0.791
    1BCK1 B1    1133  -2.267  11.534   0.705
    1BCK1 B1    1134  -2.338  11.724   0.621
    1BCK1 B1    1135   3.324   0.490  -0.745
    1BCK1 B1    1136   3.499   0.614  -0.791
    1BCK1 B1    1137   3.673   0.738  -0.840
    1BCK1 B1    1138   3.842   0.862  -0.893
    1BCK1 B1    1139   4.005   0.985  -0.953
    1BCK1 B1    1140   4.161   1.106  -1.022
    1BCK1 B1    1141   4.308   1.226  -1.101
    1BCK1 B1    1142   4.445   1.345  -1.191
    1BCK1 B1    1143   4.571   1.462  -1.293
    1BCK1 B1    1144   4.687   1.577  -1.409
    1BCK1 B1    1145   4.791   1.691  -1.537
    1BCK1 B1    1146   4.885   1.803  -1.677
    1BCK1 B1    1147   4.968   1.914  -1.829
    1BCK1 B1    1148   5.043   2.023  -1.991
    1BCK1 B1    1149   5.111   2.131  -2.162
    1BCK1 B1    1150   5.172   2.238  -2.339
    1BCK1 B1    1151   5.230   2.344  -2.521
    1BCK1 B1    1152   5.285   2.451  -2.706
    1BCK1 B1    1153   3.543  -0.658   3.288
    1BCK1 B1    1154   3.667  -0.746   3.200
    1BCK1 B1    1155   3.789  -0.835   3.115
    1BCK1 B1    1156   3.911  -0.925   3.035
    1BCK1 B1    1157   4.031  -1.017   2.964
    1BCK1 B1    1158   4.149  -1.111   2.904
    1BCK1 B1    1159   4.264  -1.207   2.858
    1BCK1 B1    1160   4.376  -1.307   2.826
    1BCK1 B1    1161   4.485  -1.409   2.809
    1BCK1 B1    1162   4.591  -1.515   2.809
    1BCK1 B1    1163   4.693  -1.624   2.826
    1BCK1 B1    1164   4.793  -1.736   2.858
    1BCK1 B1    1165   4.889  -1.851   2.904
    1BCK1 B1    1166   4.983  -1.969   2.964
    1BCK1 B1    1167   5.075  -2.089   3.035
    1BCK1 B1    1168   5.165  -2.211   3.115
    1BCK1 B1    1169   5.254  -2.333   3.200
    1BCK1 B1    1170   5.342  -2.457   3.288
    1BCK1 B1    1171   3.239  -0.729   9.472
    1BCK1 B1    1172   3.165  -0.796   9.618
    1BCK1 B1    1173   3.095  -0.863   9.761
    1BCK1 B1    1174   3.029  -0.934   9.902
    1BCK1 B1    1175   2.970  -1.008  10.040
    1BCK1 B1    1176   2.921  -1.087  10.172
    1BCK1 B1    1177   2.882  -1.172  10.299
    1BCK1 B1    1178   2.856  -1.264  10.419
    1BCK1 B1    1179   2.842  -1.362  10.532
    1BCK1 B1    1180   2.842  -1.468  10.638
    1BCK1 B1    1181   2.856  -1.581  10.736
    1BCK1 B1    1182   2.882  -1.701  10.828
    1BCK1 B1    1183   2.921  -1.828  10.913
    1BCK1 B1    1184   2.970  -1.960  10.992
    1BCK1 B1    1185   3.029  -2.098  11.066
    1BCK1 B1    1186   3.095  -2.239  11.137
    1BCK1 B1    1187   3.165  -2.382  11.204
    1BCK1 B1    1188   3.239  -2.528  11.271
    1BCK1 B1    1189   6.345   3.755   3.458
    1BCK1 B1    1190   6.514   3.798   3.592
    1BCK1 B1    1191   6.681   3.844   3.726
    1BCK1 B1    1192   6.844   3.894   3.858
    1BCK1 B1    1193   7.003   3.952   3.988
    1BCK1 B1    1194   7.154   4.018   4.117
    1BCK1 B1    1195   7.298   4.095   4.242
    1BCK1 B1    1196   7.432   4.184   4.364
    1BCK1 B1    1197   7.558   4.286   4.483
    1BCK1 B1    1198   7.673   4.402   4.598
    1BCK1 B1    1199   7.779   4.531   4.710
    1BCK1 B1    1200   7.874   4.672   4.819
    1BCK1 B1    1201   7.962   4.826   4.924
    1BCK1 B1    1202   8.041   4.990   5.027
    1BCK1 B1    1203   8.113   5.163   5.127
    1BCK1 B1    1204   8.180   5.344   5.225
    1BCK1 B1    1205   8.244   5.529   5.323
    1BCK1 B1    1206   8.306   5.716   5.419
    1BCK1 B1    1207   0.532   3.301   6.725
    1BCK1 B1    1208   0.644   3.484   6.777
    1BCK1 B1    1209   0.755   3.664   6.832
    1BCK1 B1    1210   0.867   3.839   6.891
    1BCK1 B1    1211   0.979   4.008   6.956
    1BCK1 B1    1212   1.092   4.168   7.028
    1BCK1 B1    1213   1.205   4.319   7.110
    1BCK1 B1    1214   1.319   4.459   7.203
    1BCK1 B1    1215   1.434   4.586   7.307
    1BCK1 B1    1216   1.549   4.702   7.422
    1BCK1 B1    1217   1.665   4.805   7.549
    1BCK1 B1    1218   1.782   4.896   7.687
    1BCK1 B1    1219   1.899   4.976   7.836
    1BCK1 B1    1220   2.017   5.046   7.994
    1BCK1 B1    1221   2.136   5.108   8.159
    1BCK1 B1    1222   2.255   5.163   8.331
    1BCK1 B1    1223   2.374   5.214   8.507
    1BCK1 B1    1224   2.493   5.262   8.686
    1BCK1 B1    1225   3.799   3.105   9.402
    1BCK1 B1    1226   3.844   3.073   9.569
    1BCK1 B1    1227   3.891   3.042   9.733
    1BCK1 B1    1228   3.942   3.013   9.894
    1BCK1 B1    1229   3.999   2.987  10.048
    1BCK1 B1    1230   4.064   2.965  10.195
    1BCK1 B1    1231   4.138   2.948  10.333
    1BCK1 B1    1232   4.221   2.936  10.461
    1BCK1 B1    1233   4.316   2.931  10.578
    1BCK1 B1    1234   4.422   2.931  10.684
    1BCK1 B1    1235   4.539   2.936  10.779
    1BCK1 B1    1236   4.667   2.948  10.862
    1BCK1 B1    1237   4.805   2.965  10.936
    1BCK1 B1    1238   4.952   2.987  11.001
    1BCK1 B1    1239   5.106   3.013  11.058
    1BCK1 B1    1240   5.267   3.042  11.109
    1BCK1 B1    1241   5.431   3.073  11.156
    1BCK1 B1    1242   5.598   3.105  11.201
    1BCK1 B1    1243   2.851   5.699  -0.901
    1BCK1 B1    1244   2.896   5.501  -0.915
    1BCK1 B1    1245   2.941   5.307  -0.932
    1BCK1 B1    1246   2.982   5.118  -0.955
    1BCK1 B1    1247   3.018   4.939  -0.987
    1BCK1 B1    1248   3.049   4.771  -1.030
    1BCK1 B1    1249   3.074   4.617  -1.088
    1BCK1 B1    1250   3.090   4.477  -1.160
    1BCK1 B1    1251   3.099   4.355  -1.249
    1BCK1 B1    1252   3.099   4.249  -1.355
    1BCK1 B1    1253   3.090   4.160  -1.477
    1BCK1 B1    1254   3.074   4.088  -1.617
    1BCK1 B1    1255   3.049   4.030  -1.771
    1BCK1 B1    1256   3.018   3.987  -1.939
    1BCK1 B1    1257   2.982   3.955  -2.118
    1BCK1 B1    1258   2.941   3.932  -2.307
    1BCK1 B1    1259   2.896   3.915  -2.501
    1BCK1 B1    1260   2.851   3.901  -2.699
    1BCK1 B1    1261   2.900   8.058  -0.283
    1BCK1 B1    1262   2.931   7.816  -0.196
    1BCK1 B1    1263   2.960   7.574  -0.112
    1BCK1 B1    1264   2.988   7.332  -0.034
    1BCK1 B1    1265   3.012   7.089   0.035
    1BCK1 B1    1266   3.033   6.847   0.094
    1BCK1 B1    1267   3.049   6.605   0.139
    1BCK1 B1    1268   3.060   6.363   0.171
    1BCK1 B1    1269   3.066   6.121   0.187
    1BCK1 B1    1270   3.066   5.879   0.187
    1BCK1 B1    1271   3.060   5.637   0.171
    1BCK1 B1    1272   3.049   5.395   0.139
    1BCK1 B1    1273   3.033   5.153   0.094
    1BCK1 B1    1274   3.012   4.911   0.035
    1BCK1 B1    1275   2.988   4.668  -0.034
    1BCK1 B1    1276   2.960   4.426  -0.112
    1BCK1 B1    1277   2.931   4.184  -0.196
    1BCK1 B1    1278   2.900   3.942  -0.283
    1BCK1 B1    1279   2.425   5.715   3.698
    1BCK1 B1    1280   2.327   5.528   3.759
    1BCK1 B1    1281   2.228   5.343   3.821
    1BCK1 B1    1282   2.128   5.163   3.887
    1BCK1 B1    1283   2.026   4.990   3.959
    1BCK1 B1    1284   1.922   4.826   4.037
    1BCK1 B1    1285   1.816   4.673   4.123
    1BCK1 B1    1286   1.706   4.532   4.219
    1BCK1 B1    1287   1.594   4.403   4.324
    1BCK1 B1    1288   1.479   4.288   4.439
    1BCK1 B1    1289   1.360   4.185   4.565
    1BCK1 B1    1290   1.239   4.096   4.700
    1BCK1 B1    1291   1.115   4.019   4.845
    1BCK1 B1    1292   0.988   3.952   4.997
    1BCK1 B1    1293   0.859   3.894   5.156
    1BCK1 B1    1294   0.728   3.843   5.321
    1BCK1 B1    1295   0.597   3.797   5.489
    1BCK1 B1    1296   0.464   3.754   5.659
    1BCK1 B1    1297   3.214   6.210   8.216
    1BCK1 B1    1298   3.148   6.146   8.132
    1BCK1 B1    1299   3.085   6.083   8.047
    1BCK1 B1    1300   3.026   6.026   7.963
    1BCK1 B1    1301   2.974   5.974   7.879
    1BCK1 B1    1302   2.929   5.931   7.795
    1BCK1 B1    1303   2.894   5.897   7.711
    1BCK1 B1    1304   2.871   5.873   7.626
    1BCK1 B1    1305   2.859   5.861   7.542
    1BCK1 B1    1306   2.859   5.861   7.458
    1BCK1 B1    1307   2.871   5.873   7.374
    1BCK1 B1    1308   2.894   5.897   7.289
    1BCK1 B1    1309   2.929   5.931   7.205
    1BCK1 B1    1310   2.974   5.974   7.121
    1BCK1 B1    1311   3.026   6.026   7.037
    1BCK1 B1    1312   3.085   6.083   6.953
    1BCK1 B1    1313   3.148   6.146   6.868
    1BCK1 B1    1314   3.214   6.210   6.784
    1BCK1 B1    1315   3.286   8.337   6.538
    1BCK1 B1    1316   3.199   8.250   6.663
    1BCK1 B1    1317   3.114   8.163   6.787
    1BCK1 B1    1318   3.035   8.074   6.911
    1BCK1 B1    1319   2.965   7.984   7.032
    1BCK1 B1    1320   2.905   7.891   7.150
    1BCK1 B1    1321   2.859   7.795   7.266
    1BCK1 B1    1322   2.827   7.697   7.379
    1BCK1 B1    1323   2.811   7.594   7.489
    1BCK1 B1    1324   2.811   7.489   7.594
    1BCK1 B1    1325   2.827   7.379   7.697
    1BCK1 B1    1326   2.859   7.266   7.795
    1BCK1 B1    1327   2.905   7.150   7.891
    1BCK1 B1    1328   2.965   7.032   7.984
    1BCK1 B1    1329   3.035   6.911   8.074
    1BCK1 B1    1330   3.114   6.787   8.163
    1BCK1 B1    1331   3.199   6.663   8.250
    1BCK1 B1    1332   3.286   6.538   8.337
    1BCK1 B1    1333   6.477   0.244   0.724
    1BCK1 B1    1334   6.621   0.169   0.792
    1BCK1 B1    1335   6.763   0.097   0.861
    1BCK1 B1    1336   6.903   0.030   0.933
    1BCK1 B1    1337   7.039  -0.030   1.009
    1BCK1 B1    1338   7.171  -0.081   1.089
    1BCK1 B1    1339   7.296  -0.120   1.175
    1BCK1 B1    1340   7.416  -0.147   1.267
    1BCK1 B1    1341   7.529  -0.161   1.366
    1BCK1 B1    1342   7.634  -0.161   1.471
    1BCK1 B1    1343   7.733  -0.147   1.584
    1BCK1 B1    1344   7.825  -0.120   1.704
    1BCK1 B1    1345   7.911  -0.081   1.829
    1BCK1 B1    1346   7.991  -0.030   1.961
    1BCK1 B1    1347   8.067   0.030   2.097
    1BCK1 B1    1348   8.139   0.097   2.237
    1BCK1 B1    1349   8.208   0.169   2.379
    1BCK1 B1    1350   8.276   0.244   2.523
    1BCK1 B1    1351   3.372  -0.762   9.424
    1BCK1 B1    1352   3.533  -0.803   9.568
    1BCK1 B1    1353   3.692  -0.847   9.712
    1BCK1 B1    1354   3.848  -0.895   9.854
    1BCK1 B1    1355   3.999  -0.951   9.993
    1BCK1 B1    1356   4.145  -1.016  10.128
    1BCK1 B1    1357   4.284  -1.092  10.259
    1BCK1 B1    1358   4.416  -1.180  10.385
    1BCK1 B1    1359   4.539  -1.282  10.506
    1BCK1 B1    1360   4.655  -1.397  10.621
    1BCK1 B1    1361   4.762  -1.526  10.731
    1BCK1 B1    1362   4.861  -1.669  10.836
    1BCK1 B1    1363   4.952  -1.823  10.936
    1BCK1 B1    1364   5.037  -1.989  11.031
    1BCK1 B1    1365   5.117  -2.164  11.123
    1BCK1 B1    1366   5.191  -2.346  11.212
    1BCK1 B1    1367   5.263  -2.534  11.299
    1BCK1 B1    1368   5.333  -2.723  11.385
    1BCK1 B1    1369   2.562   9.360   2.240
    1BCK1 B1    1370   2.422   9.524   2.198
    1BCK1 B1    1371   2.282   9.687   2.154
    1BCK1 B1    1372   2.144   9.846   2.105
    1BCK1 B1    1373   2.009  10.001   2.049
    1BCK1 B1    1374   1.877  10.149   1.983
    1BCK1 B1    1375   1.748  10.290   1.907
    1BCK1 B1    1376   1.624  10.423   1.818
    1BCK1 B1    1377   1.504  10.548   1.717
    1BCK1 B1    1378   1.389  10.663   1.601
    1BCK1 B1    1379   1.278  10.769   1.472
    1BCK1 B1    1380   1.172  10.867   1.330
    1BCK1 B1    1381   1.069  10.956   1.176
    1BCK1 B1    1382   0.971  11.039   1.011
    1BCK1 B1    1383   0.875  11.115   0.836
    1BCK1 B1    1384   0.783  11.186   0.655
    1BCK1 B1    1385   0.691  11.255   0.468
    1BCK1 B1    1386   0.601  11.321   0.279
    1BCK1 B1    1387   6.784   3.087   3.287
    1BCK1 B1    1388   6.868   3.060   3.199
    1BCK1 B1    1389   6.953   3.035   3.114
    1BCK1 B1    1390   7.037   3.011   3.035
    1BCK1 B1    1391   7.121   2.989   2.965
    1BCK1 B1    1392   7.205   2.971   2.905
    1BCK1 B1    1393   7.289   2.957   2.859
    1BCK1 B1    1394   7.374   2.947   2.827
    1BCK1 B1    1395   7.458   2.942   2.810
    1BCK1 B1    1396   7.542   2.942   2.810
    1BCK1 B1    1397   7.626   2.947   2.827
    1BCK1 B1    1398   7.711   2.957   2.859
    1BCK1 B1    1399   7.795   2.971   2.905
    1BCK1 B1    1400   7.879   2.989   2.965
    1BCK1 B1    1401   7.963   3.011   3.035
    1BCK1 B1    1402   8.047   3.035   3.114
    1BCK1 B1    1403   8.132   3.060   3.199
    1BCK1 B1    1404   8.216   3.087   3.287
    1BCK1 B1    1405   6.585   5.309   6.282
    1BCK1 B1    1406   6.681   5.246   6.470
    1BCK1 B1    1407   6.776   5.182   6.656
    1BCK1 B1    1408   6.874   5.114   6.837
    1BCK1 B1    1409   6.973   5.040   7.010
    1BCK1 B1    1410   7.074   4.960   7.175
    1BCK1 B1    1411   7.179   4.873   7.329
    1BCK1 B1    1412   7.287   4.777   7.470
    1BCK1 B1    1413   7.399   4.671   7.599
    1BCK1 B1    1414   7.514   4.555   7.714
    1BCK1 B1    1415   7.633   4.430   7.816
    1BCK1 B1    1416   7.756   4.296   7.905
    1BCK1 B1    1417   7.882   4.153   7.982
    1BCK1 B1    1418   8.011   4.002   8.048
    1BCK1 B1    1419   8.142   3.845   8.106
    1BCK1 B1    1420   8.276   3.682   8.156
    1BCK1 B1    1421   8.411   3.516   8.201
    1BCK1 B1    1422   8.546   3.348   8.243
    1BCK1 B1    1423   5.347   6.275   2.370
    1BCK1 B1    1424   5.272   6.465   2.288
    1BCK1 B1    1425   5.197   6.653   2.206
    1BCK1 B1    1426   5.118   6.836   2.121
    1BCK1 B1    1427   5.036   7.011   2.033
    1BCK1 B1    1428   4.948   7.177   1.940
    1BCK1 B1    1429   4.854   7.332   1.843
    1BCK1 B1    1430   4.754   7.475   1.740
    1BCK1 B1    1431   4.646   7.604   1.631
    1BCK1 B1    1432   4.531   7.719   1.515
    1BCK1 B1    1433   4.408   7.821   1.394
    1BCK1 B1    1434   4.278   7.909   1.266
    1BCK1 B1    1435   4.141   7.985   1.133
    1BCK1 B1    1436   3.997   8.049   0.995
    1BCK1 B1    1437   3.849   8.105   0.852
    1BCK1 B1    1438   3.697   8.153   0.706
    1BCK1 B1    1439   3.542   8.196   0.558
    1BCK1 B1    1440   3.386   8.236   0.409
    1BCK1 B1    1441   5.520   8.670   2.251
    1BCK1 B1    1442   5.393   8.496   2.206
    1BCK1 B1    1443   5.266   8.325   2.159
    1BCK1 B1    1444   5.139   8.158   2.107
    1BCK1 B1    1445   5.014   7.996   2.047
    1BCK1 B1    1446   4.891   7.841   1.980
    1BCK1 B1    1447   4.769   7.695   1.901
    1BCK1 B1    1448   4.649   7.559   1.811
    1BCK1 B1    1449   4.531   7.433   1.709
    1BCK1 B1    1450   4.416   7.317   1.594
    1BCK1 B1    1451   4.303   7.213   1.465
    1BCK1 B1    1452   4.192   7.118   1.325
    1BCK1 B1    1453   4.083   7.034   1.172
    1BCK1 B1    1454   3.976   6.958   1.009
    1BCK1 B1    1455   3.870   6.889   0.838
    1BCK1 B1    1456   3.766   6.825   0.659
    1BCK1 B1    1457   3.663   6.766   0.476
    1BCK1 B1    1458   3.559   6.709   0.290
    1BCK1 B1    1459   8.673   6.485  -0.747
    1BCK1 B1    1460   8.499   6.611  -0.792
    1BCK1 B1    1461   8.326   6.736  -0.840
    1BCK1 B1    1462   8.158   6.861  -0.893
    1BCK1 B1    1463   7.995   6.985  -0.953
    1BCK1 B1    1464   7.840   7.108  -1.021
    1BCK1 B1    1465   7.693   7.229  -1.100
    1BCK1 B1    1466   7.557   7.348  -1.190
    1BCK1 B1    1467   7.430   7.465  -1.292
    1BCK1 B1    1468   7.315   7.581  -1.408
    1BCK1 B1    1469   7.211   7.694  -1.536
    1BCK1 B1    1470   7.117   7.805  -1.676
    1BCK1 B1    1471   7.033   7.915  -1.829
    1BCK1 B1    1472   6.957   8.023  -1.991
    1BCK1 B1    1473   6.889   8.130  -2.162
    1BCK1 B1    1474   6.827   8.236  -2.340
    1BCK1 B1    1475   6.768   8.341  -2.523
    1BCK1 B1    1476   6.712   8.446  -2.708
    1BCK1 B1    1477   5.705   9.784   9.055
    1BCK1 B1    1478   5.796   9.868   9.038
    1BCK1 B1    1479   5.883   9.953   9.022
    1BCK1 B1    1480   5.964  10.037   9.007
    1BCK1 B1    1481   6.036  10.121   8.993
    1BCK1 B1    1482   6.098  10.205   8.982
    1BCK1 B1    1483   6.145  10.289   8.973
    1BCK1 B1    1484   6.178  10.374   8.967
    1BCK1 B1    1485   6.195  10.458   8.963
    1BCK1 B1    1486   6.195  10.542   8.963
    1BCK1 B1    1487   6.178  10.626   8.967
    1BCK1 B1    1488   6.145  10.711   8.973
    1BCK1 B1    1489   6.098  10.795   8.982
    1BCK1 B1    1490   6.036  10.879   8.993
    1BCK1 B1    1491   5.964  10.963   9.007
    1BCK1 B1    1492   5.883  11.047   9.022
    1BCK1 B1    1493   5.796  11.132   9.038
    1BCK1 B1    1494   5.705  11.216   9.055
    1BCK1 B1    1495   9.651   8.449   3.444
    1BCK1 B1    1496   9.741   8.328   3.308
    1BCK1 B1    1497   9.832   8.207   3.177
    1BCK1 B1    1498   9.924   8.088   3.054
    1BCK1 B1    1499  10.018   7.970   2.945
    1BCK1 B1    1500  10.113   7.854   2.853
    1BCK1 B1    1501  10.211   7.740   2.781
    1BCK1 B1    1502  10.311   7.629   2.732
    1BCK1 B1    1503  10.414   7.520   2.707
    1BCK1 B1    1504  10.520   7.414   2.707
    1BCK1 B1    1505  10.629   7.311   2.732
    1BCK1 B1    1506  10.740   7.211   2.781
    1BCK1 B1    1507  10.854   7.113   2.853
    1BCK1 B1    1508  10.970   7.018   2.945
    1BCK1 B1    1509  11.088   6.924   3.054
    1BCK1 B1    1510  11.207   6.832   3.177
    1BCK1 B1    1511  11.328   6.741   3.308
    1BCK1 B1    1512  11.449   6.651   3.444
    1BCK1 B1    1513   9.401   0.457   6.744
    1BCK1 B1    1514   9.278   0.607   6.806
    1BCK1 B1    1515   9.160   0.755   6.869
    1BCK1 B1    1516   9.049   0.901   6.936
    1BCK1 B1    1517   8.950   1.042   7.006
    1BCK1 B1    1518   8.867   1.177   7.082
    1BCK1 B1    1519   8.802   1.306   7.165
    1BCK1 B1    1520   8.757   1.428   7.255
    1BCK1 B1    1521   8.735   1.542   7.352
    1BCK1 B1    1522   8.735   1.648   7.458
    1BCK1 B1    1523   8.757   1.745   7.572
    1BCK1 B1    1524   8.802   1.835   7.694
    1BCK1 B1    1525   8.867   1.918   7.823
    1BCK1 B1    1526   8.950   1.994   7.958
    1BCK1 B1    1527   9.049   2.064   8.099
    1BCK1 B1    1528   9.160   2.131   8.245
    1BCK1 B1    1529   9.278   2.194   8.393
    1BCK1 B1    1530   9.401   2.256   8.543
    1BCK1 B1    1531   9.164   0.251   8.216
    1BCK1 B1    1532   9.114   0.174   8.132
    1BCK1 B1    1533   9.065   0.100   8.047
    1BCK1 B1    1534   9.020   0.031   7.963
    1BCK1 B1    1535   8.980  -0.031   7.879
    1BCK1 B1    1536   8.946  -0.083   7.795
    1BCK1 B1    1537   8.919  -0.124   7.711
    1BCK1 B1    1538   8.901  -0.152   7.626
    1BCK1 B1    1539   8.892  -0.166   7.542
    1BCK1 B1    1540   8.892  -0.166   7.458
    1BCK1 B1    1541   8.901  -0.152   7.374
    1BCK1 B1    1542   8.919  -0.124   7.289
    1BCK1 B1    1543   8.946  -0.083   7.205
    1BCK1 B1    1544   8.980  -0.031   7.121
    1BCK1 B1    1545   9.020   0.031   7.037
    1BCK1 B1    1546   9.065   0.100   6.953
    1BCK1 B1    1547   9.114   0.174   6.868
    1BCK1 B1    1548   9.164   0.251   6.784
    1BCK1 B1    1549   9.280   3.784   2.894
    1BCK1 B1    1550   9.195   3.868   2.927
    1BCK1 B1    1551   9.111   3.953   2.958
    1BCK1 B1    1552   9.034   4.037   2.987
    1BCK1 B1    1553   8.965   4.121   3.013
    1BCK1 B1    1554   8.907   4.205   3.035
    1BCK1 B1    1555   8.862   4.289   3.052
    1BCK1 B1    1556   8.831   4.374   3.064
    1BCK1 B1    1557   8.815   4.458   3.070
    1BCK1 B1    1558   8.815   4.542   3.070
    1BCK1 B1    1559   8.831   4.626   3.064
    1BCK1 B1    1560   8.862   4.711   3.052
    1BCK1 B1    1561   8.907   4.795   3.035
    1BCK1 B1    1562   8.965   4.879   3.013
    1BCK1 B1    1563   9.034   4.963   2.987
    1BCK1 B1    1564   9.111   5.047   2.958
    1BCK1 B1    1565   9.195   5.132   2.927
    1BCK1 B1    1566   9.280   5.216   2.894
    1BCK1 B1    1567   8.316   8.724  -0.517
    1BCK1 B1    1568   8.236   8.809  -0.649
    1BCK1 B1    1569   8.154   8.890  -0.779
    1BCK1 B1    1570   8.072   8.966  -0.908
    1BCK1 B1    1571   7.986   9.034  -1.034
    1BCK1 B1    1572   7.898   9.091  -1.157
    1BCK1 B1    1573   7.806   9.136  -1.277
    1BCK1 B1    1574   7.709   9.167  -1.392
    1BCK1 B1    1575   7.608   9.182  -1.502
    1BCK1 B1    1576   7.502   9.182  -1.608
    1BCK1 B1    1577   7.392   9.167  -1.709
    1BCK1 B1    1578   7.277   9.136  -1.806
    1BCK1 B1    1579   7.157   9.091  -1.898
    1BCK1 B1    1580   7.034   9.034  -1.986
    1BCK1 B1    1581   6.908   8.966  -2.072
    1BCK1 B1    1582   6.779   8.890  -2.154
    1BCK1 B1    1583   6.649   8.809  -2.236
    1BCK1 B1    1584   6.517   8.724  -2.316
    1BCK1 B1    1585   9.334   2.250   9.474
    1BCK1 B1    1586   9.506   2.205   9.603
    1BCK1 B1    1587   9.676   2.158   9.732
    1BCK1 B1    1588   9.843   2.106   9.860
    1BCK1 B1    1589  10.004   2.048   9.987
    1BCK1 B1    1590  10.158   1.980  10.111
    1BCK1 B1    1591  10.303   1.902  10.234
    1BCK1 B1    1592  10.439   1.813  10.354
    1BCK1 B1    1593  10.565   1.710  10.472
    1BCK1 B1    1594  10.680   1.595  10.588
    1BCK1 B1    1595  10.785   1.467  10.700
    1BCK1 B1    1596  10.880   1.326  10.811
    1BCK1 B1    1597  10.965   1.173  10.919
    1BCK1 B1    1598  11.042   1.009  11.025
    1BCK1 B1    1599  11.112   0.837  11.129
    1BCK1 B1    1600  11.176   0.658  11.232
    1BCK1 B1    1601  11.236   0.475  11.334
    1BCK1 B1    1602  11.295   0.289  11.435
    1BCK1 B1    1603   8.058   6.292  -0.068
    1BCK1 B1    1604   7.816   6.202  -0.047
    1BCK1 B1    1605   7.574   6.116  -0.027
    1BCK1 B1    1606   7.332   6.036  -0.008
    1BCK1 B1    1607   7.089   5.964   0.008
    1BCK1 B1    1608   6.847   5.903   0.023
    1BCK1 B1    1609   6.605   5.856   0.034
    1BCK1 B1    1610   6.363   5.824   0.041
    1BCK1 B1    1611   6.121   5.807   0.045
    1BCK1 B1    1612   5.879   5.807   0.045
    1BCK1 B1    1613   5.637   5.824   0.041
    1BCK1 B1    1614   5.395   5.856   0.034
    1BCK1 B1    1615   5.153   5.903   0.023
    1BCK1 B1    1616   4.911   5.964   0.008
    1BCK1 B1    1617   4.668   6.036  -0.008
    1BCK1 B1    1618   4.426   6.116  -0.027
    1BCK1 B1    1619   4.184   6.202  -0.047
    1BCK1 B1    1620   3.942   6.292  -0.068
    1BCK1 B1    1621  -0.799   5.893   3.403
    1BCK1 B1    1622  -0.844   5.926   3.569
    1BCK1 B1    1623  -0.891   5.957   3.734
    1BCK1 B1    1624  -0.942   5.987   3.894
    1BCK1 B1    1625  -0.999   6.013   4.048
    1BCK1 B1    1626  -1.064   6.036   4.195
    1BCK1 B1    1627  -1.138   6.053   4.333
    1BCK1 B1    1628  -1.222   6.065   4.461
    1BCK1 B1    1629  -1.316   6.071   4.578
    1BCK1 B1    1630  -1.422   6.071   4.684
    1BCK1 B1    1631  -1.539   6.065   4.778
    1BCK1 B1    1632  -1.667   6.053   4.862
    1BCK1 B1    1633  -1.805   6.036   4.936
    1BCK1 B1    1634  -1.952   6.013   5.001
    1BCK1 B1    1635  -2.106   5.987   5.058
    1BCK1 B1    1636  -2.266   5.957   5.109
    1BCK1 B1    1637  -2.431   5.926   5.156
    1BCK1 B1    1638  -2.597   5.893   5.201
    1BCK1 B1    1639   8.611  -0.812   0.017
    1BCK1 B1    1640   8.440  -0.853   0.012
    1BCK1 B1    1641   8.272  -0.896   0.007
    1BCK1 B1    1642   8.108  -0.944   0.002
    1BCK1 B1    1643   7.950  -0.998  -0.002
    1BCK1 B1    1644   7.800  -1.060  -0.006
    1BCK1 B1    1645   7.660  -1.131  -0.008
    1BCK1 B1    1646   7.531  -1.213  -0.010
    1BCK1 B1    1647   7.413  -1.307  -0.011
    1BCK1 B1    1648   7.307  -1.413  -0.011
    1BCK1 B1    1649   7.213  -1.531  -0.010
    1BCK1 B1    1650   7.131  -1.660  -0.008
    1BCK1 B1    1651   7.060  -1.800  -0.006
    1BCK1 B1    1652   6.998  -1.950  -0.002
    1BCK1 B1    1653   6.944  -2.108   0.002
    1BCK1 B1    1654   6.896  -2.272   0.007
    1BCK1 B1    1655   6.853  -2.440   0.012
    1BCK1 B1    1656   6.812  -2.611   0.017
    1HEX  C0    1657   0.000   0.000   0.000
    1HB   S1    1658   0.350   0.000   0.000
    1HB   S2    1659  -0.350   0.000   0.000
    1HB   S3    1660   0.000   0.350   0.000
    1HB   S4    1661   0.000  -0.350   0.000
    1HB   S5    1662   0.000   0.000   0.350
    1HB   S6    1663   0.000   0.000  -0.350
    1HEX  C0    1664   0.000   0.000   3.000
    1HB   S1    1665   0.350   0.000   3.000
    1HB   S2    1666  -0.350   0.000   3.000
    1HB   S3    1667   0.000   0.350   3.000
    1HB   S4    1668   0.000  -0.350   3.000
    1HB   S5    1669   0.000   0.000   3.350
    1HB   S6    1670   0.000   0.000   2.650
    1HEX  C0    1671   0.000   0.000   6.000
    1HB   S1    1672   0.350   0.000   6.000
    1HB   S2    1673  -0.350   0.000   6.000
    1HB   S3    1674   0.000   0.350   6.000
    1HB   S4    1675   0.000  -0.350   6.000
    1HB   S5    1676   0.000   0.000   6.350
    1HB   S6    1677   0.000   0.000   5.650
    1HEX  C0    1678   0.000   0.000   9.000
    1HB   S1    1679   0.350   0.000   9.000
    1HB   S2    1680  -0.350   0.000   9.000
    1HB   S3    1681   0.000   0.350   9.000
    1HB   S4    1682   0.000  -0.350   9.000
    1HB   S5    1683   0.000   0.000   9.350
    1HB   S6    1684   0.000   0.000   8.650
    1HEX  C0    1685   0.000   3.000   0.000
    1HB   S1    1686   0.350   3.000   0.000
    1HB   S2    1687  -0.350   3.000   0.000
    1HB   S3    1688   0.000   3.350   0.000
    1HB   S4    1689   0.000   2.650   0.000
    1HB   S5    1690   0.000   3.000   0.350
    1HB   S6    1691   0.000   3.000  -0.350
    1HEX  C0    1692   0.000   3.000   3.000
    1HB   S1    1693   0.350   3.000   3.000
    1HB   S2    1694  -0.350   3.000   3.000
    1HB   S3    1695   0.000   3.350   3.000
    1HB   S4    1696   0.000   2.650   3.000
    1HB   S5    1697   0.000   3.000   3.350
    1HB   S6    1698   0.000   3.000   2.650
    1HEX  C0    1699   0.000   3.000   6.000
    1HB   S1    1700   0.350   3.000   6.000
    1HB   S2    1701  -0.350   3.000   6.000
    1HB   S3    1702   0.000   3.350   6.000
    1HB   S4    1703   0.000   2.650   6.000
    1HB   S5    1704   0.000   3.000   6.350
    1HB   S6    1705   0.000   3.000   5.650
    1HEX  C0    1706   0.000   3.000   9.000
    1HB   S1    1707   0.350   3.000   9.000
    1HB   S2    1708  -0.350   3.000   9.000
    1HB   S3    1709   0.000   3.350   9.000
    1HB   S4    1710   0.000   2.650   9.000
    1HB   S5    1711   0.000   3.000   9.350
    1HB   S6    1712   0.000   3.000   8.650
    1HEX  C0    1713   0.000   6.000   0.000
    1HB   S1    1714   0.350   6.000   0.000
    1HB   S2    1715  -0.350   6.000   0.000
    1HB   S3    1716   0.000   6.350   0.000
    1HB   S4    1717   0.000   5.650   0.000
    1HB   S5    1718   0.000   6.000   0.350
    1HB   S6    1719   0.000   6.000  -0.350
    1HEX  C0    1720   0.000   6.000   3.000
    1HB   S1    1721   0.350   6.000   3.000
    1HB   S2    1722  -0.350   6.000   3.000
    1HB   S3    1723   0.000   6.350   3.000
    1HB   S4    1724   0.000   5.650   3.000
    1HB   S5    1725   0.000   6.000   3.350
    1HB   S6    1726   0.000   6.000   2.650
    1HEX  C0    1727   0.000   6.000   6.000
    1HB   S1    1728   0.350   6.000   6.000
    1HB   S2    1729  -0.350   6.000   6.000
    1HB   S3    1730   0.000   6.350   6.000
    1HB   S4    1731   0.000   5.650   6.000
    1HB   S5    1732   0.000   6.000   6.350
    1HB   S6    1733   0.000   6.000   5.650
    1HEX  C0    1734   0.000   6.000   9.000
    1HB   S1    1735   0.350   6.000   9.000
    1HB   S2    1736  -0.350   6.000   9.000
    1HB   S3    1737   0.000   6.350   9.000
    1HB   S4    1738   0.000   5.650   9.000
    1HB   S5    1739   0.000   6.000   9.350
    1HB   S6    1740   0.000   6.000   8.650
    1HEX  C0    1741   0.000   9.000   0.000
    1HB   S1    1742   0.350   9.000   0.000
    1HB   S2    1743  -0.350   9.000   0.000
    1HB   S3    1744   0.000   9.350   0.000
    1HB   S4    1745   0.000   8.650   0.000
    1HB   S5    1746   0.000   9.000   0.350
    1HB   S6    1747   0.000   9.000  -0.350
    1HEX  C0    1748   0.000   9.000   3.000
    1HB   S1    1749   0.350   9.000   3.000
    1HB   S2    1750  -0.350   9.000   3.000
    1HB   S3    1751   0.000   9.350   3.000
    1HB   S4    1752   0.000   8.650   3.000
    1HB   S5    1753   0.000   9.000   3.350
    1HB   S6    1754   0.000   9.000   2.650
    1HEX  C0    1755   0.000   9.000   6.000
    1HB   S1    1756   0.350   9.000   6.000
    1HB   S2    1757  -0.350   9.000   6.000
    1HB   S3    1758   0.000   9.350   6.000
    1HB   S4    1759   0.000   8.650   6.000
    1HB   S5    1760   0.000   9.000   6.350
    1HB   S6    1761   0.000   9.000   5.650
    1HEX  C0    1762   0.000   9.000   9.000
    1HB   S1    1763   0.350   9.000   9.000
    1HB   S2    1764  -0.350   9.000   9.000
    1HB   S3    1765   0.000   9.350   9.000
    1HB   S4    1766   0.000   8.650   9.000
    1HB   S5    1767   0.000   9.000   9.350
    1HB   S6    1768   0.000   9.000   8.650
    1HEX  C0    1769   3.000   0.000   0.000
    1HB   S1    1770   3.350   0.000   0.000
    1HB   S2    1771   2.650   0.000   0.000
    1HB   S3    1772   3.000   0.350   0.000
    1HB   S4    1773   3.000  -0.350   0.000
    1HB   S5    1774   3.000   0.000   0.350
    1HB   S6    1775   3.000   0.000  -0.350
    1HEX  C0    1776   3.000   0.000   3.000
    1HB   S1    1777   3.350   0.000   3.000
    1HB   S2    1778   2.650   0.000   3.000
    1HB   S3    1779   3.000   0.350   3.000
    1HB   S4    1780   3.000  -0.350   3.000
    1HB   S5    1781   3.000   0.000   3.350
    1HB   S6    1782   3.000   0.000   2.650
    1HEX  C0    1783   3.000   0.000   6.000
    1HB   S1    1784   3.350   0.000   6.000
    1HB   S2    1785   2.650   0.000   6.000
    1HB   S3    1786   3.000   0.350   6.000
    1HB   S4    1787   3.000  -0.350   6.000
    1HB   S5    1788   3.000   0.000   6.350
    1HB   S6    1789   3.000   0.000   5.650
    1HEX  C0    1790   3.000   0.000   9.000
    1HB   S1    1791   3.350   0.000   9.000
    1HB   S2    1792   2.650   0.000   9.000
    1HB   S3    1793   3.000   0.350   9.000
    1HB   S4    1794   3.000  -0.350   9.000
    1HB   S5    1795   3.000   0.000   9.350
    1HB   S6    1796   3.000   0.000   8.650
    1HEX  C0    1797   3.000   3.000   0.000
    1HB   S1    1798   3.350   3.000   0.000
    1HB   S2    1799   2.650   3.000   0.000
    1HB   S3    1800   3.000   3.350   0.000
    1HB   S4    1801   3.000   2.650   0.000
    1HB   S5    1802   3.000   3.000   0.350
    1HB   S6    1803   3.000   3.000  -0.350
    1HEX  C0    1804   3.000   3.000   3.000
    1HB   S1    1805   3.350   3.000   3.000
    1HB   S2    1806   2.650   3.000   3.000
    1HB   S3    1807   3.000   3.350   3.000
    1HB   S4    1808   3.000   2.650   3.000
    1HB   S5    1809   3.000   3.000   3.350
    1HB   S6    1810   3.000   3.000   2.650
    1HEX  C0    1811   3.000   3.000   6.000
    1HB   S1    1812   3.350   3.000   6.000
    1HB   S2    1813   2.650   3.000   6.000
    1HB   S3    1814   3.000   3.350   6.000
    1HB   S4    1815   3.000   2.650   6.000
    1HB   S5    1816   3.000   3.000   6.350
    1HB   S6    1817   3.000   3.000   5.650
    1HEX  C0    1818   3.000   3.000   9.000
    1HB   S1    1819   3.350   3.000   9.000
    1HB   S2    1820   2.650   3.000   9.000
    1HB   S3    1821   3.000   3.350   9.000
    1HB   S4    1822   3.000   2.650   9.000
    1HB   S5    1823   3.000   3.000   9.350
    1HB   S6    1824   3.000   3.000   8.650
    1HEX  C0    1825   3.000   6.000   0.000
    1HB   S1    1826   3.350   6.000   0.000
    1HB   S2    1827   2.650   6.000   0.000
    1HB   S3    1828   3.000   6.350   0.000
    1HB   S4    1829   3.000   5.650   0.000
    1HB   S5    1830   3.000   6.000   0.350
    1HB   S6    1831   3.000   6.000  -0.350
    1HEX  C0    1832   3.000   6.000   3.000
    1HB   S1    1833   3.350   6.000   3.000
    1HB   S2    1834   2.650   6.000   3.000
    1HB   S3    1835   3.000   6.350   3.000
    1HB   S4    1836   3.000   5.650   3.000
    1HB   S5    1837   3.000   6.000   3.350
    1HB   S6    1838   3.000   6.000   2.650
    1HEX  C0    1839   3.000   6.000   6.000
    1HB   S1    1840   3.350   6.000   6.000
    1HB   S2    1841   2.650   6.000   6.000
    1HB   S3    1842   3.000   6.350   6.000
    1HB   S4    1843   3.000   5.650   6.000
    1HB   S5    1844   3.000   6.000   6.350
    1HB   S6    1845   3.000   6.000   5.650
    1HEX  C0    1846   3.000   6.000   9.000
    1HB   S1    1847   3.350   6.000   9.000
    1HB   S2    1848   2.650   6.000   9.000
    1HB   S3    1849   3.000   6.350   9.000
    1HB   S4    1850   3.000   5.650   9.000
    1HB   S5    1851   3.000   6.000   9.350
    1HB   S6    1852   3.000   6.000   8.650
    1HEX  C0    1853   3.000   9.000   0.000
    1HB   S1    1854   3.350   9.000   0.000
    1HB   S2    1855   2.650   9.000   0.000
    1HB   S3    1856   3.000   9.350   0.000
    1HB   S4    1857   3.000   8.650   0.000
    1HB   S5    1858   3.000   9.000   0.350
    1HB   S6    1859   3.000   9.000  -0.350
    1HEX  C0    1860   3.000   9.000   3.000
    1HB   S1    1861   3.350   9.000   3.000
    1HB   S2    1862   2.650   9.000   3.000
    1HB   S3    1863   3.000   9.350   3.000
    1HB   S4    1864   3.000   8.650   3.000
    1HB   S5    1865   3.000   9.000   3.350
    1HB   S6    1866   3.000   9.000   2.650
    1HEX  C0    1867   3.000   9.000   6.000
    1HB   S1    1868   3.350   9.000   6.000
    1HB   S2    1869   2.650   9.000   6.000
    1HB   S3    1870   3.000   9.350   6.000
    1HB   S4    1871   3.000   8.650   6.000
    1HB   S5    1872   3.000   9.000   6.350
    1HB   S6    1873   3.000   9.000   5.650
    1HEX  C0    1874   3.000   9.000   9.000
    1HB   S1    1875   3.350   9.000   9.000
    1HB   S2    1876   2.650   9.000   9.000
    1HB   S3    1877   3.000   9.350   9.000
    1HB   S4    1878   3.000   8.650   9.000
    1HB   S5    1879   3.000   9.000   9.350
    1HB   S6    1880   3.000   9.000   8.650
    1HEX  C0    1881   6.000   0.000   0.000
    1HB   S1    1882   6.350   0.000   0.000
    1HB   S2    1883   5.650   0.000   0.000
    1HB   S3    1884   6.000   0.350   0.000
    1HB   S4    1885   6.000  -0.350   0.000
    1HB   S5    1886   6.000   0.000   0.350
    1HB   S6    1887   6.000   0.000  -0.350
    1HEX  C0    1888   6.000   0.000   3.000
    1HB   S1    1889   6.350   0.000   3.000
    1HB   S2    1890   5.650   0.000   3.000
    1HB   S3    1891   6.000   0.350   3.000
    1HB   S4    1892   6.000  -0.350   3.000
    1HB   S5    1893   6.000   0.000   3.350
    1HB   S6    1894   6.000   0.000   2.650
    1HEX  C0    1895   6.000   0.000   6.000
    1HB   S1    1896   6.350   0.000   6.000
    1HB   S2    1897   5.650   0.000   6.000
    1HB   S3    1898   6.000   0.350   6.000
    1HB   S4    1899   6.000  -0.350   6.000
    1HB   S5    1900   6.000   0.000   6.350
    1HB   S6    1901   6.000   0.000   5.650
    1HEX  C0    1902   6.000   0.000   9.000
    1HB   S1    1903   6.350   0.000   9.000
    1HB   S2    1904   5.650   0.000   9.000
    1HB   S3    1905   6.000   0.350   9.000
    1HB   S4    1906   6.000  -0.350   9.000
    1HB   S5    1907   6.000   0.000   9.350
    1HB   S6    1908   6.000   0.000   8.650
    1HEX  C0    1909   6.000   3.000   0.000
    1HB   S1    1910   6.350   3.000   0.000
    1HB   S2    1911   5.650   3.000   0.000
    1HB   S3    1912   6.000   3.350   0.000
    1HB   S4    1913   6.000   2.650   0.000
    1HB   S5    1914   6.000   3.000   0.350
    1HB   S6    1915   6.000   3.000  -0.350
    1HEX  C0    1916   6.000   3.000   3.000
    1HB   S1    1917   6.350   3.000   3.000
    1HB   S2    1918   5.650   3.000   3.000
    1HB   S3    1919   6.000   3.350   3.000
    1HB   S4    1920   6.000   2.650   3.000
    1HB   S5    1921   6.000   3.000   3.350
    1HB   S6    1922   6.000   3.000   2.650
    1HEX  C0    1923   6.000   3.000   6.000
    1HB   S1    1924   6.350   3.000   6.000
    1HB   S2    1925   5.650   3.000   6.000
    1HB   S3    1926   6.000   3.350   6.000
    1HB   S4    1927   6.000   2.650   6.000
    1HB   S5    1928   6.000   3.000   6.350
    1HB   S6    1929   6.000   3.000   5.650
    1HEX  C0    1930   6.000   3.000   9.000
    1HB   S1    1931   6.350   3.000   9.000
    1HB   S2    1932   5.650   3.000   9.000
    1HB   S3    1933   6.000   3.350   9.000
    1HB   S4    1934   6.000   2.650   9.000
    1HB   S5    1935   6.000   3.000   9.350
    1HB   S6    1936   6.000   3.000   8.650
    1HEX  C0    1937   6.000   6.000   0.000
    1HB   S1    1938   6.350   6.000   0.000
    1HB   S2    1939   5.650   6.000   0.000
    1HB   S3    1940   6.000   6.350   0.000
    1HB   S4    1941   6.000   5.650   0.000
    1HB   S5    1942   6.000   6.000   0.350
    1HB   S6    1943   6.000   6.000  -0.350
    1HEX  C0    1944   6.000   6.000   3.000
    1HB   S1    1945   6.350   6.000   3.000
    1HB   S2    1946   5.650   6.000   3.000
    1HB   S3    1947   6.000   6.350   3.000
    1HB   S4    1948   6.000   5.650   3.000
    1HB   S5    1949   6.000   6.000   3.350
    1HB   S6    1950   6.000   6.000   2.650
    1HEX  C0    1951   6.000   6.000   6.000
    1HB   S1    1952   6.350   6.000   6.000
    1HB   S2    1953   5.650   6.000   6.000
    1HB   S3    1954   6.000   6.350   6.000
    1HB   S4    1955   6.000   5.650   6.000
    1HB   S5    1956   6.000   6.000   6.350
    1HB   S6    1957   6.000   6.000   5.650
    1HEX  C0    1958   6.000   6.000   9.000
    1HB   S1    1959   6.350   6.000   9.000
    1HB   S2    1960   5.650   6.000   9.000
    1HB   S3    1961   6.000   6.350   9.000
    1HB   S4    1962   6.000   5.650   9.000
    1HB   S5    1963   6.000   6.000   9.350
    1HB   S6    1964   6.000   6.000   8.650
    1HEX  C0    1965   6.000   9.000   0.000
    1HB   S1    1966   6.350   9.000   0.000
    1HB   S2    1967   5.650   9.000   0.000
    1HB   S3    1968   6.000   9.350   0.000
    1HB   S4    1969   6.000   8.650   0.000
    1HB   S5    1970   6.000   9.000   0.350
    1HB   S6    1971   6.000   9.000  -0.350
    1HEX  C0    1972   6.000   9.000   3.000
    1HB   S1    1973   6.350   9.000   3.000
    1HB   S2    1974   5.650   9.000   3.000
    1HB   S3    1975   6.000   9.350   3.000
    1HB   S4    1976   6.000   8.650   3.000
    1HB   S5    1977   6.000   9.000   3.350
    1HB   S6    1978   6.000   9.000   2.650
    1HEX  C0    1979   6.000   9.000   6.000
    1HB   S1    1980   6.350   9.000   6.000
    1HB   S2    1981   5.650   9.000   6.000
    1HB   S3    1982   6.000   9.350   6.000
    1HB   S4    1983   6.000   8.650   6.000
    1HB   S5    1984   6.000   9.000   6.350
    1HB   S6    1985   6.000   9.000   5.650
    1HEX  C0    1986   6.000   9.000   9.000
    1HB   S1    1987   6.350   9.000   9.000
    1HB   S2    1988   5.650   9.000   9.000
    1HB   S3    1989   6.000   9.350   9.000
    1HB   S4    1990   6.000   8.650   9.000
    1HB   S5    1991   6.000   9.000   9.350
    1HB   S6    1992   6.000   9.000   8.650
    1HEX  C0    1993   9.000   0.000   0.000
    1HB   S1    1994   9.350   0.000   0.000
    1HB   S2    1995   8.650   0.000   0.000
    1HB   S3    1996   9.000   0.350   0.000
    1HB   S4    1997   9.000  -0.350   0.000
    1HB   S5    1998   9.000   0.000   0.350
    1HB   S6    1999   9.000   0.000  -0.350
    1HEX  C0    2000   9.000   0.000   3.000
    1HB   S1    2001   9.350   0.000   3.000
    1HB   S2    2002   8.650   0.000   3.000
    1HB   S3    2003   9.000   0.350   3.000
    1HB   S4    2004   9.000  -0.350   3.000
    1HB   S5    2005   9.000   0.000   3.350
    1HB   S6    2006   9.000   0.000   2.650
    1HEX  C0    2007   9.000   0.000   6.000
    1HB   S1    2008   9.350   0.000   6.000
    1HB   S2    2009   8.650   0.000   6.000
    1HB   S3    2010   9.000   0.350   6.000
    1HB   S4    2011   9.000  -0.350   6.000
    1HB   S5    2012   9.000   0.000   6.350
    1HB   S6    2013   9.000   0.000   5.650
    1HEX  C0    2014   9.000   0.000   9.000
    1HB   S1    2015   9.350   0.000   9.000
    1HB   S2    2016   8.650   0.000   9.000
    1HB   S3    2017   9.000   0.350   9.000
    1HB   S4    2018   9.000  -0.350   9.000
    1HB   S5    2019   9.000   0.000   9.350
    1HB   S6    2020   9.000   0.000   8.650
    1HEX  C0    2021   9.000   3.000   0.000
    1HB   S1    2022   9.350   3.000   0.000
    1HB   S2    2023   8.650   3.000   0.000
    1HB   S3    2024   9.000   3.350   0.000
    1HB   S4    2025   9.000   2.650   0.000
    1HB   S5    2026   9.000   3.000   0.350
    1HB   S6    2027   9.000   3.000  -0.350
    1HEX  C0    2028   9.000   3.000   3.000
    1HB   S1    2029   9.350   3.000   3.000
    1HB   S2    2030   8.650   3.000   3.000
    1HB   S3    2031   9.000   3.350   3.000
    1HB   S4    2032   9.000   2.650   3.000
    1HB   S5    2033   9.000   3.000   3.350
    1HB   S6    2034   9.000   3.000   2.650
    1HEX  C0    2035   9.000   3.000   6.000
    1HB   S1    2036   9.350   3.000   6.000
    1HB   S2    2037   8.650   3.000   6.000
    1HB   S3    2038   9.000   3.350   6.000
    1HB   S4    2039   9.000   2.650   6.000
    1HB   S5    2040   9.000   3.000   6.350
    1HB   S6    2041   9.000   3.000   5.650
    1HEX  C0    2042   9.000   3.000   9.000
    1HB   S1    2043   9.350   3.000   9.000
    1HB   S2    2044   8.650   3.000   9.000
    1HB   S3    2045   9.000   3.350   9.000
    1HB   S4    2046   9.000   2.650   9.000
    1HB   S5    2047   9.000   3.000   9.350
    1HB   S6    2048   9.000   3.000   8.650
    1HEX  C0    2049   9.000   6.000   0.000
    1HB   S1    2050   9.350   6.000   0.000
    1HB   S2    2051   8.650   6.000   0.000
    1HB   S3    2052   9.000   6.350   0.000
    1HB   S4    2053   9.000   5.650   0.000
    1HB   S5    2054   9.000   6.000   0.350
    1HB   S6    2055   9.000   6.000  -0.350
    1HEX  C0    2056   9.000   6.000   3.000
    1HB   S1    2057   9.350   6.000   3.000
    1HB   S2    2058   8.650   6.000   3.000
    1HB   S3    2059   9.000   6.350   3.000
    1HB   S4    2060   9.000   5.650   3.000
    1HB   S5    2061   9.000   6.000   3.350
    1HB   S6    2062   9.000   6.000   2.650
    1HEX  C0    2063   9.000   6.000   6.000
    1HB   S1    2064   9.350   6.000   6.000
    1HB   S2    2065   8.650   6.000   6.000
    1HB   S3    2066   9.000   6.350   6.000
    1HB   S4    2067   9.000   5.650   6.000
    1HB   S5    2068   9.000   6.000   6.350
    1HB   S6    2069   9.000   6.000   5.650
    1HEX  C0    2070   9.000   6.000   9.000
    1HB   S1    2071   9.350   6.000   9.000
    1HB   S2    2072   8.650   6.000   9.000
    1HB   S3    2073   9.000   6.350   9.000
    1HB   S4    2074   9.000   5.650   9.000
    1HB   S5    2075   9.000   6.000   9.350
    1HB   S6    2076   9.000   6.000   8.650
    1HEX  C0    2077   9.000   9.000   0.000
    1HB   S1    2078   9.350   9.000   0.000
    1HB   S2    2079   8.650   9.000   0.000
    1HB   S3    2080   9.000   9.350   0.000
    1HB   S4    2081   9.000   8.650   0.000
    1HB   S5    2082   9.000   9.000   0.350
    1HB   S6    2083   9.000   9.000  -0.350
    1HEX  C0    2084   9.000   9.000   3.000
    1HB   S1    2085   9.350   9.000   3.000
    1HB   S2    2086   8.650   9.000   3.000
    1HB   S3    2087   9.000   9.350   3.000
    1HB   S4    2088   9.000   8.650   3.000
    1HB   S5    2089   9.000   9.000   3.350
    1HB   S6    2090   9.000   9.000   2.650
    1HEX  C0    2091   9.000   9.000   6.000
    1HB   S1    2092   9.350   9.000   6.000
    1HB   S2    2093   8.650   9.000   6.000
    1HB   S3    2094   9.000   9.350   6.000
    1HB   S4    2095   9.000   8.650   6.000
    1HB   S5    2096   9.000   9.000   6.350
    1HB   S6    2097   9.000   9.000   5.650
    1HEX  C0    2098   9.000   9.000   9.000
    1HB   S1    2099   9.350   9.000   9.000
    1HB   S2    2100   8.650   9.000   9.000
    1HB   S3    2101   9.000   9.350   9.000
    1HB   S4    2102   9.000   8.650   9.000
    1HB   S5    2103   9.000   9.000   9.350
    1HB   S6    2104   9.000   9.000   8.650
   12.00000    12.00000    12.00000
