; Combined Gromacs.itp file generated by write_combined_itp
[ moleculetype ]
; name  nrexcl
HYDROGEL           1

[ atoms ]
;   nr    type    resnr   residu    atom    cgnr  charge  mass
1      C1    1     BCK1  B1    1     0.0000  56.0000 
2      C1    1     BCK1  B1    1     0.0000  56.0000 
3      C1    1     BCK1  B1    1     0.0000  56.0000 
4      C1    1     BCK1  B1    1     0.0000  56.0000 
5      C1    1     BCK1  B1    1     0.0000  56.0000 
6      C1    1     BCK1  B1    1     0.0000  56.0000 
7      C1    1     BCK1  B1    1     0.0000  56.0000 
8      C1    1     BCK1  B1    1     0.0000  56.0000 
9      C1    1     BCK1  B1    1     0.0000  56.0000 
10     C1    1     BCK1  B1    1     0.0000  56.0000 
11     C1    1     BCK1  B1    1     0.0000  56.0000 
12     C1    1     BCK1  B1    1     0.0000  56.0000 
13     C1    1     BCK1  B1    1     0.0000  56.0000 
14     C1    1     BCK1  B1    1     0.0000  56.0000 
15     C1    1     BCK1  B1    1     0.0000  56.0000 
16     C1    1     BCK1  B1    1     0.0000  56.0000 
17     C1    1     BCK1  B1    1     0.0000  56.0000 
18     C1    1     BCK1  B1    1     0.0000  56.0000 
19     C1    1     BCK1  B1    1     0.0000  56.0000 
20     C1    1     BCK1  B1    1     0.0000  56.0000 
21     C1    1     BCK1  B1    1     0.0000  56.0000 
22     C1    1     BCK1  B1    1     0.0000  56.0000 
23     C1    1     BCK1  B1    1     0.0000  56.0000 
24     C1    1     BCK1  B1    1     0.0000  56.0000 
25     C1    1     BCK1  B1    1     0.0000  56.0000 
26     C1    1     BCK1  B1    1     0.0000  56.0000 
27     C1    1     BCK1  B1    1     0.0000  56.0000 
28     C1    1     BCK1  B1    1     0.0000  56.0000 
29     C1    1     BCK1  B1    1     0.0000  56.0000 
30     C1    1     BCK1  B1    1     0.0000  56.0000 
31     C1    1     BCK1  B1    1     0.0000  56.0000 
32     C1    1     BCK1  B1    1     0.0000  56.0000 
33     C1    1     BCK1  B1    1     0.0000  56.0000 
34     C1    1     BCK1  B1    1     0.0000  56.0000 
35     C1    1     BCK1  B1    1     0.0000  56.0000 
36     C1    1     BCK1  B1    1     0.0000  56.0000 
37     C1    1     BCK1  B1    1     0.0000  56.0000 
38     C1    1     BCK1  B1    1     0.0000  56.0000 
39     C1    1     BCK1  B1    1     0.0000  56.0000 
40     C1    1     BCK1  B1    1     0.0000  56.0000 
41     C1    1     BCK1  B1    1     0.0000  56.0000 
42     C1    1     BCK1  B1    1     0.0000  56.0000 
43     C1    1     BCK1  B1    1     0.0000  56.0000 
44     C1    1     BCK1  B1    1     0.0000  56.0000 
45     C1    1     BCK1  B1    1     0.0000  56.0000 
46     C1    1     BCK1  B1    1     0.0000  56.0000 
47     C1    1     BCK1  B1    1     0.0000  56.0000 
48     C1    1     BCK1  B1    1     0.0000  56.0000 
49     C1    1     BCK1  B1    1     0.0000  56.0000 
50     C1    1     BCK1  B1    1     0.0000  56.0000 
51     C1    1     BCK1  B1    1     0.0000  56.0000 
52     C1    1     BCK1  B1    1     0.0000  56.0000 
53     C1    1     BCK1  B1    1     0.0000  56.0000 
54     C1    1     BCK1  B1    1     0.0000  56.0000 
55     C1    1     BCK1  B1    1     0.0000  56.0000 
56     C1    1     BCK1  B1    1     0.0000  56.0000 
57     C1    1     BCK1  B1    1     0.0000  56.0000 
58     C1    1     BCK1  B1    1     0.0000  56.0000 
59     C1    1     BCK1  B1    1     0.0000  56.0000 
60     C1    1     BCK1  B1    1     0.0000  56.0000 
61     C1    1     BCK1  B1    1     0.0000  56.0000 
62     C1    1     BCK1  B1    1     0.0000  56.0000 
63     C1    1     BCK1  B1    1     0.0000  56.0000 
64     C1    1     BCK1  B1    1     0.0000  56.0000 
65     C1    1     BCK1  B1    1     0.0000  56.0000 
66     C1    1     BCK1  B1    1     0.0000  56.0000 
67     C1    1     BCK1  B1    1     0.0000  56.0000 
68     C1    1     BCK1  B1    1     0.0000  56.0000 
69     C1    1     BCK1  B1    1     0.0000  56.0000 
70     C1    1     BCK1  B1    1     0.0000  56.0000 
71     C1    1     BCK1  B1    1     0.0000  56.0000 
72     C1    1     BCK1  B1    1     0.0000  56.0000 
73     C1    1     BCK1  B1    1     0.0000  56.0000 
74     C1    1     BCK1  B1    1     0.0000  56.0000 
75     C1    1     BCK1  B1    1     0.0000  56.0000 
76     C1    1     BCK1  B1    1     0.0000  56.0000 
77     C1    1     BCK1  B1    1     0.0000  56.0000 
78     C1    1     BCK1  B1    1     0.0000  56.0000 
79     C1    1     BCK1  B1    1     0.0000  56.0000 
80     C1    1     BCK1  B1    1     0.0000  56.0000 
81     C1    1     BCK1  B1    1     0.0000  56.0000 
82     C1    1     BCK1  B1    1     0.0000  56.0000 
83     C1    1     BCK1  B1    1     0.0000  56.0000 
84     C1    1     BCK1  B1    1     0.0000  56.0000 
85     C1    1     BCK1  B1    1     0.0000  56.0000 
86     C1    1     BCK1  B1    1     0.0000  56.0000 
87     C1    1     BCK1  B1    1     0.0000  56.0000 
88     C1    1     BCK1  B1    1     0.0000  56.0000 
89     C1    1     BCK1  B1    1     0.0000  56.0000 
90     C1    1     BCK1  B1    1     0.0000  56.0000 
91     C1    1     BCK1  B1    1     0.0000  56.0000 
92     C1    1     BCK1  B1    1     0.0000  56.0000 
93     C1    1     BCK1  B1    1     0.0000  56.0000 
94     C1    1     BCK1  B1    1     0.0000  56.0000 
95     C1    1     BCK1  B1    1     0.0000  56.0000 
96     C1    1     BCK1  B1    1     0.0000  56.0000 
97     C1    1     BCK1  B1    1     0.0000  56.0000 
98     C1    1     BCK1  B1    1     0.0000  56.0000 
99     C1    1     BCK1  B1    1     0.0000  56.0000 
100    C1    1     BCK1  B1    1     0.0000  56.0000 
101    C1    1     BCK1  B1    1     0.0000  56.0000 
102    C1    1     BCK1  B1    1     0.0000  56.0000 
103    C1    1     BCK1  B1    1     0.0000  56.0000 
104    C1    1     BCK1  B1    1     0.0000  56.0000 
105    C1    1     BCK1  B1    1     0.0000  56.0000 
106    C1    1     BCK1  B1    1     0.0000  56.0000 
107    C1    1     BCK1  B1    1     0.0000  56.0000 
108    C1    1     BCK1  B1    1     0.0000  56.0000 
109    C1    1     BCK1  B1    1     0.0000  56.0000 
110    C1    1     BCK1  B1    1     0.0000  56.0000 
111    C1    1     BCK1  B1    1     0.0000  56.0000 
112    C1    1     BCK1  B1    1     0.0000  56.0000 
113    C1    1     BCK1  B1    1     0.0000  56.0000 
114    C1    1     BCK1  B1    1     0.0000  56.0000 
115    C1    1     BCK1  B1    1     0.0000  56.0000 
116    C1    1     BCK1  B1    1     0.0000  56.0000 
117    C1    1     BCK1  B1    1     0.0000  56.0000 
118    C1    1     BCK1  B1    1     0.0000  56.0000 
119    C1    1     BCK1  B1    1     0.0000  56.0000 
120    C1    1     BCK1  B1    1     0.0000  56.0000 
121    C1    1     BCK1  B1    1     0.0000  56.0000 
122    C1    1     BCK1  B1    1     0.0000  56.0000 
123    C1    1     BCK1  B1    1     0.0000  56.0000 
124    C1    1     BCK1  B1    1     0.0000  56.0000 
125    C1    1     BCK1  B1    1     0.0000  56.0000 
126    C1    1     BCK1  B1    1     0.0000  56.0000 
127    C1    1     BCK1  B1    1     0.0000  56.0000 
128    C1    1     BCK1  B1    1     0.0000  56.0000 
129    C1    1     BCK1  B1    1     0.0000  56.0000 
130    C1    1     BCK1  B1    1     0.0000  56.0000 
131    C1    1     BCK1  B1    1     0.0000  56.0000 
132    C1    1     BCK1  B1    1     0.0000  56.0000 
133    C1    1     BCK1  B1    1     0.0000  56.0000 
134    C1    1     BCK1  B1    1     0.0000  56.0000 
135    C1    1     BCK1  B1    1     0.0000  56.0000 
136    C1    1     BCK1  B1    1     0.0000  56.0000 
137    C1    1     BCK1  B1    1     0.0000  56.0000 
138    C1    1     BCK1  B1    1     0.0000  56.0000 
139    C1    1     BCK1  B1    1     0.0000  56.0000 
140    C1    1     BCK1  B1    1     0.0000  56.0000 
141    C1    1     BCK1  B1    1     0.0000  56.0000 
142    C1    1     BCK1  B1    1     0.0000  56.0000 
143    C1    1     BCK1  B1    1     0.0000  56.0000 
144    C1    1     BCK1  B1    1     0.0000  56.0000 
145    C1    1     BCK1  B1    1     0.0000  56.0000 
146    C1    1     BCK1  B1    1     0.0000  56.0000 
147    C1    1     BCK1  B1    1     0.0000  56.0000 
148    C1    1     BCK1  B1    1     0.0000  56.0000 
149    C1    1     BCK1  B1    1     0.0000  56.0000 
150    C1    1     BCK1  B1    1     0.0000  56.0000 
151    C1    1     BCK1  B1    1     0.0000  56.0000 
152    C1    1     BCK1  B1    1     0.0000  56.0000 
153    C1    1     BCK1  B1    1     0.0000  56.0000 
154    C1    1     BCK1  B1    1     0.0000  56.0000 
155    C1    1     BCK1  B1    1     0.0000  56.0000 
156    C1    1     BCK1  B1    1     0.0000  56.0000 
157    C1    1     BCK1  B1    1     0.0000  56.0000 
158    C1    1     BCK1  B1    1     0.0000  56.0000 
159    C1    1     BCK1  B1    1     0.0000  56.0000 
160    C1    1     BCK1  B1    1     0.0000  56.0000 
161    C1    1     BCK1  B1    1     0.0000  56.0000 
162    C1    1     BCK1  B1    1     0.0000  56.0000 
163    C1    1     BCK1  B1    1     0.0000  56.0000 
164    C1    1     BCK1  B1    1     0.0000  56.0000 
165    C1    1     BCK1  B1    1     0.0000  56.0000 
166    C1    1     BCK1  B1    1     0.0000  56.0000 
167    C1    1     BCK1  B1    1     0.0000  56.0000 
168    C1    1     BCK1  B1    1     0.0000  56.0000 
169    C1    1     BCK1  B1    1     0.0000  56.0000 
170    C1    1     BCK1  B1    1     0.0000  56.0000 
171    C1    1     BCK1  B1    1     0.0000  56.0000 
172    C1    1     BCK1  B1    1     0.0000  56.0000 
173    C1    1     BCK1  B1    1     0.0000  56.0000 
174    C1    1     BCK1  B1    1     0.0000  56.0000 
175    C1    1     BCK1  B1    1     0.0000  56.0000 
176    C1    1     BCK1  B1    1     0.0000  56.0000 
177    C1    1     BCK1  B1    1     0.0000  56.0000 
178    C1    1     BCK1  B1    1     0.0000  56.0000 
179    C1    1     BCK1  B1    1     0.0000  56.0000 
180    C1    1     BCK1  B1    1     0.0000  56.0000 
181    C1    1     BCK1  B1    1     0.0000  56.0000 
182    C1    1     BCK1  B1    1     0.0000  56.0000 
183    C1    1     BCK1  B1    1     0.0000  56.0000 
184    C1    1     BCK1  B1    1     0.0000  56.0000 
185    C1    1     BCK1  B1    1     0.0000  56.0000 
186    C1    1     BCK1  B1    1     0.0000  56.0000 
187    C1    1     BCK1  B1    1     0.0000  56.0000 
188    C1    1     BCK1  B1    1     0.0000  56.0000 
189    C1    1     BCK1  B1    1     0.0000  56.0000 
190    C1    1     BCK1  B1    1     0.0000  56.0000 
191    C1    1     BCK1  B1    1     0.0000  56.0000 
192    C1    1     BCK1  B1    1     0.0000  56.0000 
193    C1    1     BCK1  B1    1     0.0000  56.0000 
194    C1    1     BCK1  B1    1     0.0000  56.0000 
195    C1    1     BCK1  B1    1     0.0000  56.0000 
196    C1    1     BCK1  B1    1     0.0000  56.0000 
197    C1    1     BCK1  B1    1     0.0000  56.0000 
198    C1    1     BCK1  B1    1     0.0000  56.0000 
199    C1    1     BCK1  B1    1     0.0000  56.0000 
200    C1    1     BCK1  B1    1     0.0000  56.0000 
201    C1    1     BCK1  B1    1     0.0000  56.0000 
202    C1    1     BCK1  B1    1     0.0000  56.0000 
203    C1    1     BCK1  B1    1     0.0000  56.0000 
204    C1    1     BCK1  B1    1     0.0000  56.0000 
205    C1    1     BCK1  B1    1     0.0000  56.0000 
206    C1    1     BCK1  B1    1     0.0000  56.0000 
207    C1    1     BCK1  B1    1     0.0000  56.0000 
208    C1    1     BCK1  B1    1     0.0000  56.0000 
209    C1    1     BCK1  B1    1     0.0000  56.0000 
210    C1    1     BCK1  B1    1     0.0000  56.0000 
211    C1    1     BCK1  B1    1     0.0000  56.0000 
212    C1    1     BCK1  B1    1     0.0000  56.0000 
213    C1    1     BCK1  B1    1     0.0000  56.0000 
214    C1    1     BCK1  B1    1     0.0000  56.0000 
215    C1    1     BCK1  B1    1     0.0000  56.0000 
216    C1    1     BCK1  B1    1     0.0000  56.0000 
217    C1    1     BCK1  B1    1     0.0000  56.0000 
218    C1    1     BCK1  B1    1     0.0000  56.0000 
219    C1    1     BCK1  B1    1     0.0000  56.0000 
220    C1    1     BCK1  B1    1     0.0000  56.0000 
221    C1    1     BCK1  B1    1     0.0000  56.0000 
222    C1    1     BCK1  B1    1     0.0000  56.0000 
223    C1    1     BCK1  B1    1     0.0000  56.0000 
224    C1    1     BCK1  B1    1     0.0000  56.0000 
225    C1    1     BCK1  B1    1     0.0000  56.0000 
226    C1    1     BCK1  B1    1     0.0000  56.0000 
227    C1    1     BCK1  B1    1     0.0000  56.0000 
228    C1    1     BCK1  B1    1     0.0000  56.0000 
229    C1    1     BCK1  B1    1     0.0000  56.0000 
230    C1    1     BCK1  B1    1     0.0000  56.0000 
231    C1    1     BCK1  B1    1     0.0000  56.0000 
232    C1    1     BCK1  B1    1     0.0000  56.0000 
233    C1    1     BCK1  B1    1     0.0000  56.0000 
234    C1    1     BCK1  B1    1     0.0000  56.0000 
235    C1    1     BCK1  B1    1     0.0000  56.0000 
236    C1    1     BCK1  B1    1     0.0000  56.0000 
237    C1    1     BCK1  B1    1     0.0000  56.0000 
238    C1    1     BCK1  B1    1     0.0000  56.0000 
239    C1    1     BCK1  B1    1     0.0000  56.0000 
240    C1    1     BCK1  B1    1     0.0000  56.0000 
241    C1    1     BCK1  B1    1     0.0000  56.0000 
242    C1    1     BCK1  B1    1     0.0000  56.0000 
243    C1    1     BCK1  B1    1     0.0000  56.0000 
244    C1    1     BCK1  B1    1     0.0000  56.0000 
245    C1    1     BCK1  B1    1     0.0000  56.0000 
246    C1    1     BCK1  B1    1     0.0000  56.0000 
247    C1    1     BCK1  B1    1     0.0000  56.0000 
248    C1    1     BCK1  B1    1     0.0000  56.0000 
249    C1    1     BCK1  B1    1     0.0000  56.0000 
250    C1    1     BCK1  B1    1     0.0000  56.0000 
251    C1    1     BCK1  B1    1     0.0000  56.0000 
252    C1    1     BCK1  B1    1     0.0000  56.0000 
253    C1    1     BCK1  B1    1     0.0000  56.0000 
254    C1    1     BCK1  B1    1     0.0000  56.0000 
255    C1    1     BCK1  B1    1     0.0000  56.0000 
256    C1    1     BCK1  B1    1     0.0000  56.0000 
257    C1    1     BCK1  B1    1     0.0000  56.0000 
258    C1    1     BCK1  B1    1     0.0000  56.0000 
259    C1    1     BCK1  B1    1     0.0000  56.0000 
260    C1    1     BCK1  B1    1     0.0000  56.0000 
261    C1    1     BCK1  B1    1     0.0000  56.0000 
262    C1    1     BCK1  B1    1     0.0000  56.0000 
263    C1    1     BCK1  B1    1     0.0000  56.0000 
264    C1    1     BCK1  B1    1     0.0000  56.0000 
265    C1    1     BCK1  B1    1     0.0000  56.0000 
266    C1    1     BCK1  B1    1     0.0000  56.0000 
267    C1    1     BCK1  B1    1     0.0000  56.0000 
268    C1    1     BCK1  B1    1     0.0000  56.0000 
269    C1    1     BCK1  B1    1     0.0000  56.0000 
270    C1    1     BCK1  B1    1     0.0000  56.0000 
271    C1    1     BCK1  B1    1     0.0000  56.0000 
272    C1    1     BCK1  B1    1     0.0000  56.0000 
273    C1    1     BCK1  B1    1     0.0000  56.0000 
274    C1    1     BCK1  B1    1     0.0000  56.0000 
275    C1    1     BCK1  B1    1     0.0000  56.0000 
276    C1    1     BCK1  B1    1     0.0000  56.0000 
277    C1    1     BCK1  B1    1     0.0000  56.0000 
278    C1    1     BCK1  B1    1     0.0000  56.0000 
279    C1    1     BCK1  B1    1     0.0000  56.0000 
280    C1    1     BCK1  B1    1     0.0000  56.0000 
281    C1    1     BCK1  B1    1     0.0000  56.0000 
282    C1    1     BCK1  B1    1     0.0000  56.0000 
283    C1    1     BCK1  B1    1     0.0000  56.0000 
284    C1    1     BCK1  B1    1     0.0000  56.0000 
285    C1    1     BCK1  B1    1     0.0000  56.0000 
286    C1    1     BCK1  B1    1     0.0000  56.0000 
287    C1    1     BCK1  B1    1     0.0000  56.0000 
288    C1    1     BCK1  B1    1     0.0000  56.0000 
289    C1    1     BCK1  B1    1     0.0000  56.0000 
290    C1    1     BCK1  B1    1     0.0000  56.0000 
291    C1    1     BCK1  B1    1     0.0000  56.0000 
292    C1    1     BCK1  B1    1     0.0000  56.0000 
293    C1    1     BCK1  B1    1     0.0000  56.0000 
294    C1    1     BCK1  B1    1     0.0000  56.0000 
295    C1    1     BCK1  B1    1     0.0000  56.0000 
296    C1    1     BCK1  B1    1     0.0000  56.0000 
297    C1    1     BCK1  B1    1     0.0000  56.0000 
298    C1    1     BCK1  B1    1     0.0000  56.0000 
299    C1    1     BCK1  B1    1     0.0000  56.0000 
300    C1    1     BCK1  B1    1     0.0000  56.0000 
301    C1    1     BCK1  B1    1     0.0000  56.0000 
302    C1    1     BCK1  B1    1     0.0000  56.0000 
303    C1    1     BCK1  B1    1     0.0000  56.0000 
304    C1    1     BCK1  B1    1     0.0000  56.0000 
305    C1    1     BCK1  B1    1     0.0000  56.0000 
306    C1    1     BCK1  B1    1     0.0000  56.0000 
307    C1    1     BCK1  B1    1     0.0000  56.0000 
308    C1    1     BCK1  B1    1     0.0000  56.0000 
309    C1    1     BCK1  B1    1     0.0000  56.0000 
310    C1    1     BCK1  B1    1     0.0000  56.0000 
311    C1    1     BCK1  B1    1     0.0000  56.0000 
312    C1    1     BCK1  B1    1     0.0000  56.0000 
313    C1    1     BCK1  B1    1     0.0000  56.0000 
314    C1    1     BCK1  B1    1     0.0000  56.0000 
315    C1    1     BCK1  B1    1     0.0000  56.0000 
316    C1    1     BCK1  B1    1     0.0000  56.0000 
317    C1    1     BCK1  B1    1     0.0000  56.0000 
318    C1    1     BCK1  B1    1     0.0000  56.0000 
319    C1    1     BCK1  B1    1     0.0000  56.0000 
320    C1    1     BCK1  B1    1     0.0000  56.0000 
321    C1    1     BCK1  B1    1     0.0000  56.0000 
322    C1    1     BCK1  B1    1     0.0000  56.0000 
323    C1    1     BCK1  B1    1     0.0000  56.0000 
324    C1    1     BCK1  B1    1     0.0000  56.0000 
325    C1    1     BCK1  B1    1     0.0000  56.0000 
326    C1    1     BCK1  B1    1     0.0000  56.0000 
327    C1    1     BCK1  B1    1     0.0000  56.0000 
328    C1    1     BCK1  B1    1     0.0000  56.0000 
329    C1    1     BCK1  B1    1     0.0000  56.0000 
330    C1    1     BCK1  B1    1     0.0000  56.0000 
331    C1    1     BCK1  B1    1     0.0000  56.0000 
332    C1    1     BCK1  B1    1     0.0000  56.0000 
333    C1    1     BCK1  B1    1     0.0000  56.0000 
334    C1    1     BCK1  B1    1     0.0000  56.0000 
335    C1    1     BCK1  B1    1     0.0000  56.0000 
336    C1    1     BCK1  B1    1     0.0000  56.0000 
337    C1    1     BCK1  B1    1     0.0000  56.0000 
338    C1    1     BCK1  B1    1     0.0000  56.0000 
339    C1    1     BCK1  B1    1     0.0000  56.0000 
340    C1    1     BCK1  B1    1     0.0000  56.0000 
341    C1    1     BCK1  B1    1     0.0000  56.0000 
342    C1    1     BCK1  B1    1     0.0000  56.0000 
343    C1    1     BCK1  B1    1     0.0000  56.0000 
344    C1    1     BCK1  B1    1     0.0000  56.0000 
345    C1    1     BCK1  B1    1     0.0000  56.0000 
346    C1    1     BCK1  B1    1     0.0000  56.0000 
347    C1    1     BCK1  B1    1     0.0000  56.0000 
348    C1    1     BCK1  B1    1     0.0000  56.0000 
349    C1    1     BCK1  B1    1     0.0000  56.0000 
350    C1    1     BCK1  B1    1     0.0000  56.0000 
351    C1    1     BCK1  B1    1     0.0000  56.0000 
352    C1    1     BCK1  B1    1     0.0000  56.0000 
353    C1    1     BCK1  B1    1     0.0000  56.0000 
354    C1    1     BCK1  B1    1     0.0000  56.0000 
355    C1    1     BCK1  B1    1     0.0000  56.0000 
356    C1    1     BCK1  B1    1     0.0000  56.0000 
357    C1    1     BCK1  B1    1     0.0000  56.0000 
358    C1    1     BCK1  B1    1     0.0000  56.0000 
359    C1    1     BCK1  B1    1     0.0000  56.0000 
360    C1    1     BCK1  B1    1     0.0000  56.0000 
361    C1    1     BCK1  B1    1     0.0000  56.0000 
362    C1    1     BCK1  B1    1     0.0000  56.0000 
363    C1    1     BCK1  B1    1     0.0000  56.0000 
364    C1    1     BCK1  B1    1     0.0000  56.0000 
365    C1    1     BCK1  B1    1     0.0000  56.0000 
366    C1    1     BCK1  B1    1     0.0000  56.0000 
367    C1    1     BCK1  B1    1     0.0000  56.0000 
368    C1    1     BCK1  B1    1     0.0000  56.0000 
369    C1    1     BCK1  B1    1     0.0000  56.0000 
370    C1    1     BCK1  B1    1     0.0000  56.0000 
371    C1    1     BCK1  B1    1     0.0000  56.0000 
372    C1    1     BCK1  B1    1     0.0000  56.0000 
373    C1    1     BCK1  B1    1     0.0000  56.0000 
374    C1    1     BCK1  B1    1     0.0000  56.0000 
375    C1    1     BCK1  B1    1     0.0000  56.0000 
376    C1    1     BCK1  B1    1     0.0000  56.0000 
377    C1    1     BCK1  B1    1     0.0000  56.0000 
378    C1    1     BCK1  B1    1     0.0000  56.0000 
379    C1    1     BCK1  B1    1     0.0000  56.0000 
380    C1    1     BCK1  B1    1     0.0000  56.0000 
381    C1    1     BCK1  B1    1     0.0000  56.0000 
382    C1    1     BCK1  B1    1     0.0000  56.0000 
383    C1    1     BCK1  B1    1     0.0000  56.0000 
384    C1    1     BCK1  B1    1     0.0000  56.0000 
385    C1    1     BCK1  B1    1     0.0000  56.0000 
386    C1    1     BCK1  B1    1     0.0000  56.0000 
387    C1    1     BCK1  B1    1     0.0000  56.0000 
388    C1    1     BCK1  B1    1     0.0000  56.0000 
389    C1    1     BCK1  B1    1     0.0000  56.0000 
390    C1    1     BCK1  B1    1     0.0000  56.0000 
391    C1    1     BCK1  B1    1     0.0000  56.0000 
392    C1    1     BCK1  B1    1     0.0000  56.0000 
393    C1    1     BCK1  B1    1     0.0000  56.0000 
394    C1    1     BCK1  B1    1     0.0000  56.0000 
395    C1    1     BCK1  B1    1     0.0000  56.0000 
396    C1    1     BCK1  B1    1     0.0000  56.0000 
397    C1    1     BCK1  B1    1     0.0000  56.0000 
398    C1    1     BCK1  B1    1     0.0000  56.0000 
399    C1    1     BCK1  B1    1     0.0000  56.0000 
400    C1    1     BCK1  B1    1     0.0000  56.0000 
401    C1    1     BCK1  B1    1     0.0000  56.0000 
402    C1    1     BCK1  B1    1     0.0000  56.0000 
403    C1    1     BCK1  B1    1     0.0000  56.0000 
404    C1    1     BCK1  B1    1     0.0000  56.0000 
405    C1    1     BCK1  B1    1     0.0000  56.0000 
406    C1    1     BCK1  B1    1     0.0000  56.0000 
407    C1    1     BCK1  B1    1     0.0000  56.0000 
408    C1    1     BCK1  B1    1     0.0000  56.0000 
409    C1    1     BCK1  B1    1     0.0000  56.0000 
410    C1    1     BCK1  B1    1     0.0000  56.0000 
411    C1    1     BCK1  B1    1     0.0000  56.0000 
412    C1    1     BCK1  B1    1     0.0000  56.0000 
413    C1    1     BCK1  B1    1     0.0000  56.0000 
414    C1    1     BCK1  B1    1     0.0000  56.0000 
415    C1    1     BCK1  B1    1     0.0000  56.0000 
416    C1    1     BCK1  B1    1     0.0000  56.0000 
417    C1    1     BCK1  B1    1     0.0000  56.0000 
418    C1    1     BCK1  B1    1     0.0000  56.0000 
419    C1    1     BCK1  B1    1     0.0000  56.0000 
420    C1    1     BCK1  B1    1     0.0000  56.0000 
421    C1    1     BCK1  B1    1     0.0000  56.0000 
422    C1    1     BCK1  B1    1     0.0000  56.0000 
423    C1    1     BCK1  B1    1     0.0000  56.0000 
424    C1    1     BCK1  B1    1     0.0000  56.0000 
425    C1    1     BCK1  B1    1     0.0000  56.0000 
426    C1    1     BCK1  B1    1     0.0000  56.0000 
427    C1    1     BCK1  B1    1     0.0000  56.0000 
428    C1    1     BCK1  B1    1     0.0000  56.0000 
429    C1    1     BCK1  B1    1     0.0000  56.0000 
430    C1    1     BCK1  B1    1     0.0000  56.0000 
431    C1    1     BCK1  B1    1     0.0000  56.0000 
432    C1    1     BCK1  B1    1     0.0000  56.0000 
433    C1    1     BCK1  B1    1     0.0000  56.0000 
434    C1    1     BCK1  B1    1     0.0000  56.0000 
435    C1    1     BCK1  B1    1     0.0000  56.0000 
436    C1    1     BCK1  B1    1     0.0000  56.0000 
437    C1    1     BCK1  B1    1     0.0000  56.0000 
438    C1    1     BCK1  B1    1     0.0000  56.0000 
439    C1    1     BCK1  B1    1     0.0000  56.0000 
440    C1    1     BCK1  B1    1     0.0000  56.0000 
441    C1    1     BCK1  B1    1     0.0000  56.0000 
442    C1    1     BCK1  B1    1     0.0000  56.0000 
443    C1    1     BCK1  B1    1     0.0000  56.0000 
444    C1    1     BCK1  B1    1     0.0000  56.0000 
445    C1    1     BCK1  B1    1     0.0000  56.0000 
446    C1    1     BCK1  B1    1     0.0000  56.0000 
447    C1    1     BCK1  B1    1     0.0000  56.0000 
448    C1    1     BCK1  B1    1     0.0000  56.0000 
449    C1    1     BCK1  B1    1     0.0000  56.0000 
450    C1    1     BCK1  B1    1     0.0000  56.0000 
451    C1    1     BCK1  B1    1     0.0000  56.0000 
452    C1    1     BCK1  B1    1     0.0000  56.0000 
453    C1    1     BCK1  B1    1     0.0000  56.0000 
454    C1    1     BCK1  B1    1     0.0000  56.0000 
455    C1    1     BCK1  B1    1     0.0000  56.0000 
456    C1    1     BCK1  B1    1     0.0000  56.0000 
457    C1    1     BCK1  B1    1     0.0000  56.0000 
458    C1    1     BCK1  B1    1     0.0000  56.0000 
459    C1    1     BCK1  B1    1     0.0000  56.0000 
460    C1    1     BCK1  B1    1     0.0000  56.0000 
461    C1    1     BCK1  B1    1     0.0000  56.0000 
462    C1    1     BCK1  B1    1     0.0000  56.0000 
463    C1    1     BCK1  B1    1     0.0000  56.0000 
464    C1    1     BCK1  B1    1     0.0000  56.0000 
465    C1    1     BCK1  B1    1     0.0000  56.0000 
466    C1    1     BCK1  B1    1     0.0000  56.0000 
467    C1    1     BCK1  B1    1     0.0000  56.0000 
468    C1    1     BCK1  B1    1     0.0000  56.0000 
469    C1    1     BCK1  B1    1     0.0000  56.0000 
470    C1    1     BCK1  B1    1     0.0000  56.0000 
471    C1    1     BCK1  B1    1     0.0000  56.0000 
472    C1    1     BCK1  B1    1     0.0000  56.0000 
473    C1    1     BCK1  B1    1     0.0000  56.0000 
474    C1    1     BCK1  B1    1     0.0000  56.0000 
475    C1    1     BCK1  B1    1     0.0000  56.0000 
476    C1    1     BCK1  B1    1     0.0000  56.0000 
477    C1    1     BCK1  B1    1     0.0000  56.0000 
478    C1    1     BCK1  B1    1     0.0000  56.0000 
479    C1    1     BCK1  B1    1     0.0000  56.0000 
480    C1    1     BCK1  B1    1     0.0000  56.0000 
481    C1    1     BCK1  B1    1     0.0000  56.0000 
482    C1    1     BCK1  B1    1     0.0000  56.0000 
483    C1    1     BCK1  B1    1     0.0000  56.0000 
484    C1    1     BCK1  B1    1     0.0000  56.0000 
485    C1    1     BCK1  B1    1     0.0000  56.0000 
486    C1    1     BCK1  B1    1     0.0000  56.0000 
487    C1    1     BCK1  B1    1     0.0000  56.0000 
488    C1    1     BCK1  B1    1     0.0000  56.0000 
489    C1    1     BCK1  B1    1     0.0000  56.0000 
490    C1    1     BCK1  B1    1     0.0000  56.0000 
491    C1    1     BCK1  B1    1     0.0000  56.0000 
492    C1    1     BCK1  B1    1     0.0000  56.0000 
493    C1    1     BCK1  B1    1     0.0000  56.0000 
494    C1    1     BCK1  B1    1     0.0000  56.0000 
495    C1    1     BCK1  B1    1     0.0000  56.0000 
496    C1    1     BCK1  B1    1     0.0000  56.0000 
497    C1    1     BCK1  B1    1     0.0000  56.0000 
498    C1    1     BCK1  B1    1     0.0000  56.0000 
499    C1    1     BCK1  B1    1     0.0000  56.0000 
500    C1    1     BCK1  B1    1     0.0000  56.0000 
501    C1    1     BCK1  B1    1     0.0000  56.0000 
502    C1    1     BCK1  B1    1     0.0000  56.0000 
503    C1    1     BCK1  B1    1     0.0000  56.0000 
504    C1    1     BCK1  B1    1     0.0000  56.0000 
505    C1    1     BCK1  B1    1     0.0000  56.0000 
506    C1    1     BCK1  B1    1     0.0000  56.0000 
507    C1    1     BCK1  B1    1     0.0000  56.0000 
508    C1    1     BCK1  B1    1     0.0000  56.0000 
509    C1    1     BCK1  B1    1     0.0000  56.0000 
510    C1    1     BCK1  B1    1     0.0000  56.0000 
511    C1    1     BCK1  B1    1     0.0000  56.0000 
512    C1    1     BCK1  B1    1     0.0000  56.0000 
513    C1    1     BCK1  B1    1     0.0000  56.0000 
514    C1    1     BCK1  B1    1     0.0000  56.0000 
515    C1    1     BCK1  B1    1     0.0000  56.0000 
516    C1    1     BCK1  B1    1     0.0000  56.0000 
517    C1    1     BCK1  B1    1     0.0000  56.0000 
518    C1    1     BCK1  B1    1     0.0000  56.0000 
519    C1    1     BCK1  B1    1     0.0000  56.0000 
520    C1    1     BCK1  B1    1     0.0000  56.0000 
521    C1    1     BCK1  B1    1     0.0000  56.0000 
522    C1    1     BCK1  B1    1     0.0000  56.0000 
523    C1    1     BCK1  B1    1     0.0000  56.0000 
524    C1    1     BCK1  B1    1     0.0000  56.0000 
525    C1    1     BCK1  B1    1     0.0000  56.0000 
526    C1    1     BCK1  B1    1     0.0000  56.0000 
527    C1    1     BCK1  B1    1     0.0000  56.0000 
528    C1    1     BCK1  B1    1     0.0000  56.0000 
529    C1    1     BCK1  B1    1     0.0000  56.0000 
530    C1    1     BCK1  B1    1     0.0000  56.0000 
531    C1    1     BCK1  B1    1     0.0000  56.0000 
532    C1    1     BCK1  B1    1     0.0000  56.0000 
533    C1    1     BCK1  B1    1     0.0000  56.0000 
534    C1    1     BCK1  B1    1     0.0000  56.0000 
535    C1    1     BCK1  B1    1     0.0000  56.0000 
536    C1    1     BCK1  B1    1     0.0000  56.0000 
537    C1    1     BCK1  B1    1     0.0000  56.0000 
538    C1    1     BCK1  B1    1     0.0000  56.0000 
539    C1    1     BCK1  B1    1     0.0000  56.0000 
540    C1    1     BCK1  B1    1     0.0000  56.0000 
541    C1    1     BCK1  B1    1     0.0000  56.0000 
542    C1    1     BCK1  B1    1     0.0000  56.0000 
543    C1    1     BCK1  B1    1     0.0000  56.0000 
544    C1    1     BCK1  B1    1     0.0000  56.0000 
545    C1    1     BCK1  B1    1     0.0000  56.0000 
546    C1    1     BCK1  B1    1     0.0000  56.0000 
547    C1    1     BCK1  B1    1     0.0000  56.0000 
548    C1    1     BCK1  B1    1     0.0000  56.0000 
549    C1    1     BCK1  B1    1     0.0000  56.0000 
550    C1    1     BCK1  B1    1     0.0000  56.0000 
551    C1    1     BCK1  B1    1     0.0000  56.0000 
552    C1    1     BCK1  B1    1     0.0000  56.0000 
553    C1    1     BCK1  B1    1     0.0000  56.0000 
554    C1    1     BCK1  B1    1     0.0000  56.0000 
555    C1    1     BCK1  B1    1     0.0000  56.0000 
556    C1    1     BCK1  B1    1     0.0000  56.0000 
557    C1    1     BCK1  B1    1     0.0000  56.0000 
558    C1    1     BCK1  B1    1     0.0000  56.0000 
559    C1    1     BCK1  B1    1     0.0000  56.0000 
560    C1    1     BCK1  B1    1     0.0000  56.0000 
561    C1    1     BCK1  B1    1     0.0000  56.0000 
562    C1    1     BCK1  B1    1     0.0000  56.0000 
563    C1    1     BCK1  B1    1     0.0000  56.0000 
564    C1    1     BCK1  B1    1     0.0000  56.0000 
565    C1    1     BCK1  B1    1     0.0000  56.0000 
566    C1    1     BCK1  B1    1     0.0000  56.0000 
567    C1    1     BCK1  B1    1     0.0000  56.0000 
568    C1    1     BCK1  B1    1     0.0000  56.0000 
569    C1    1     BCK1  B1    1     0.0000  56.0000 
570    C1    1     BCK1  B1    1     0.0000  56.0000 
571    C1    1     BCK1  B1    1     0.0000  56.0000 
572    C1    1     BCK1  B1    1     0.0000  56.0000 
573    C1    1     BCK1  B1    1     0.0000  56.0000 
574    C1    1     BCK1  B1    1     0.0000  56.0000 
575    C1    1     BCK1  B1    1     0.0000  56.0000 
576    C1    1     BCK1  B1    1     0.0000  56.0000 
577    C1    1     BCK1  B1    1     0.0000  56.0000 
578    C1    1     BCK1  B1    1     0.0000  56.0000 
579    C1    1     BCK1  B1    1     0.0000  56.0000 
580    C1    1     BCK1  B1    1     0.0000  56.0000 
581    C1    1     BCK1  B1    1     0.0000  56.0000 
582    C1    1     BCK1  B1    1     0.0000  56.0000 
583    C1    1     BCK1  B1    1     0.0000  56.0000 
584    C1    1     BCK1  B1    1     0.0000  56.0000 
585    C1    1     BCK1  B1    1     0.0000  56.0000 
586    C1    1     BCK1  B1    1     0.0000  56.0000 
587    C1    1     BCK1  B1    1     0.0000  56.0000 
588    C1    1     BCK1  B1    1     0.0000  56.0000 
589    C1    1     BCK1  B1    1     0.0000  56.0000 
590    C1    1     BCK1  B1    1     0.0000  56.0000 
591    C1    1     BCK1  B1    1     0.0000  56.0000 
592    C1    1     BCK1  B1    1     0.0000  56.0000 
593    C1    1     BCK1  B1    1     0.0000  56.0000 
594    C1    1     BCK1  B1    1     0.0000  56.0000 
595    C1    1     BCK1  B1    1     0.0000  56.0000 
596    C1    1     BCK1  B1    1     0.0000  56.0000 
597    C1    1     BCK1  B1    1     0.0000  56.0000 
598    C1    1     BCK1  B1    1     0.0000  56.0000 
599    C1    1     BCK1  B1    1     0.0000  56.0000 
600    C1    1     BCK1  B1    1     0.0000  56.0000 
601    C1    1     BCK1  B1    1     0.0000  56.0000 
602    C1    1     BCK1  B1    1     0.0000  56.0000 
603    C1    1     BCK1  B1    1     0.0000  56.0000 
604    C1    1     BCK1  B1    1     0.0000  56.0000 
605    C1    1     BCK1  B1    1     0.0000  56.0000 
606    C1    1     BCK1  B1    1     0.0000  56.0000 
607    C1    1     BCK1  B1    1     0.0000  56.0000 
608    C1    1     BCK1  B1    1     0.0000  56.0000 
609    C1    1     BCK1  B1    1     0.0000  56.0000 
610    C1    1     BCK1  B1    1     0.0000  56.0000 
611    C1    1     BCK1  B1    1     0.0000  56.0000 
612    C1    1     BCK1  B1    1     0.0000  56.0000 
613    C1    1     BCK1  B1    1     0.0000  56.0000 
614    C1    1     BCK1  B1    1     0.0000  56.0000 
615    C1    1     BCK1  B1    1     0.0000  56.0000 
616    C1    1     BCK1  B1    1     0.0000  56.0000 
617    C1    1     BCK1  B1    1     0.0000  56.0000 
618    C1    1     BCK1  B1    1     0.0000  56.0000 
619    C1    1     BCK1  B1    1     0.0000  56.0000 
620    C1    1     BCK1  B1    1     0.0000  56.0000 
621    C1    1     BCK1  B1    1     0.0000  56.0000 
622    C1    1     BCK1  B1    1     0.0000  56.0000 
623    C1    1     BCK1  B1    1     0.0000  56.0000 
624    C1    1     BCK1  B1    1     0.0000  56.0000 
625    C1    1     BCK1  B1    1     0.0000  56.0000 
626    C1    1     BCK1  B1    1     0.0000  56.0000 
627    C1    1     BCK1  B1    1     0.0000  56.0000 
628    C1    1     BCK1  B1    1     0.0000  56.0000 
629    C1    1     BCK1  B1    1     0.0000  56.0000 
630    C1    1     BCK1  B1    1     0.0000  56.0000 
631    C1    1     BCK1  B1    1     0.0000  56.0000 
632    C1    1     BCK1  B1    1     0.0000  56.0000 
633    C1    1     BCK1  B1    1     0.0000  56.0000 
634    C1    1     BCK1  B1    1     0.0000  56.0000 
635    C1    1     BCK1  B1    1     0.0000  56.0000 
636    C1    1     BCK1  B1    1     0.0000  56.0000 
637    C1    1     BCK1  B1    1     0.0000  56.0000 
638    C1    1     BCK1  B1    1     0.0000  56.0000 
639    C1    1     BCK1  B1    1     0.0000  56.0000 
640    C1    1     BCK1  B1    1     0.0000  56.0000 
641    C1    1     BCK1  B1    1     0.0000  56.0000 
642    C1    1     BCK1  B1    1     0.0000  56.0000 
643    C1    1     BCK1  B1    1     0.0000  56.0000 
644    C1    1     BCK1  B1    1     0.0000  56.0000 
645    C1    1     BCK1  B1    1     0.0000  56.0000 
646    C1    1     BCK1  B1    1     0.0000  56.0000 
647    C1    1     BCK1  B1    1     0.0000  56.0000 
648    C1    1     BCK1  B1    1     0.0000  56.0000 
649    C1    1     BCK1  B1    1     0.0000  56.0000 
650    C1    1     BCK1  B1    1     0.0000  56.0000 
651    C1    1     BCK1  B1    1     0.0000  56.0000 
652    C1    1     BCK1  B1    1     0.0000  56.0000 
653    C1    1     BCK1  B1    1     0.0000  56.0000 
654    C1    1     BCK1  B1    1     0.0000  56.0000 
655    C1    1     BCK1  B1    1     0.0000  56.0000 
656    C1    1     BCK1  B1    1     0.0000  56.0000 
657    C1    1     BCK1  B1    1     0.0000  56.0000 
658    C1    1     BCK1  B1    1     0.0000  56.0000 
659    C1    1     BCK1  B1    1     0.0000  56.0000 
660    C1    1     BCK1  B1    1     0.0000  56.0000 
661    C1    1     BCK1  B1    1     0.0000  56.0000 
662    C1    1     BCK1  B1    1     0.0000  56.0000 
663    C1    1     BCK1  B1    1     0.0000  56.0000 
664    C1    1     BCK1  B1    1     0.0000  56.0000 
665    C1    1     BCK1  B1    1     0.0000  56.0000 
666    C1    1     BCK1  B1    1     0.0000  56.0000 
667    C1    1     BCK1  B1    1     0.0000  56.0000 
668    C1    1     BCK1  B1    1     0.0000  56.0000 
669    C1    1     BCK1  B1    1     0.0000  56.0000 
670    C1    1     BCK1  B1    1     0.0000  56.0000 
671    C1    1     BCK1  B1    1     0.0000  56.0000 
672    C1    1     BCK1  B1    1     0.0000  56.0000 
673    C1    1     BCK1  B1    1     0.0000  56.0000 
674    C1    1     BCK1  B1    1     0.0000  56.0000 
675    C1    1     BCK1  B1    1     0.0000  56.0000 
676    C1    1     BCK1  B1    1     0.0000  56.0000 
677    C1    1     BCK1  B1    1     0.0000  56.0000 
678    C1    1     BCK1  B1    1     0.0000  56.0000 
679    C1    1     BCK1  B1    1     0.0000  56.0000 
680    C1    1     BCK1  B1    1     0.0000  56.0000 
681    C1    1     BCK1  B1    1     0.0000  56.0000 
682    C1    1     BCK1  B1    1     0.0000  56.0000 
683    C1    1     BCK1  B1    1     0.0000  56.0000 
684    C1    1     BCK1  B1    1     0.0000  56.0000 
685    C1    1     BCK1  B1    1     0.0000  56.0000 
686    C1    1     BCK1  B1    1     0.0000  56.0000 
687    C1    1     BCK1  B1    1     0.0000  56.0000 
688    C1    1     BCK1  B1    1     0.0000  56.0000 
689    C1    1     BCK1  B1    1     0.0000  56.0000 
690    C1    1     BCK1  B1    1     0.0000  56.0000 
691    C1    1     BCK1  B1    1     0.0000  56.0000 
692    C1    1     BCK1  B1    1     0.0000  56.0000 
693    C1    1     BCK1  B1    1     0.0000  56.0000 
694    C1    1     BCK1  B1    1     0.0000  56.0000 
695    C1    1     BCK1  B1    1     0.0000  56.0000 
696    C1    1     BCK1  B1    1     0.0000  56.0000 
697    C1    1     BCK1  B1    1     0.0000  56.0000 
698    C1    1     BCK1  B1    1     0.0000  56.0000 
699    C1    1     BCK1  B1    1     0.0000  56.0000 
700    C1    1     BCK1  B1    1     0.0000  56.0000 
701    C1    1     BCK1  B1    1     0.0000  56.0000 
702    C1    1     BCK1  B1    1     0.0000  56.0000 
703    C1    1     BCK1  B1    1     0.0000  56.0000 
704    C1    1     BCK1  B1    1     0.0000  56.0000 
705    C1    1     BCK1  B1    1     0.0000  56.0000 
706    C1    1     BCK1  B1    1     0.0000  56.0000 
707    C1    1     BCK1  B1    1     0.0000  56.0000 
708    C1    1     BCK1  B1    1     0.0000  56.0000 
709    C1    1     BCK1  B1    1     0.0000  56.0000 
710    C1    1     BCK1  B1    1     0.0000  56.0000 
711    C1    1     BCK1  B1    1     0.0000  56.0000 
712    C1    1     BCK1  B1    1     0.0000  56.0000 
713    C1    1     BCK1  B1    1     0.0000  56.0000 
714    C1    1     BCK1  B1    1     0.0000  56.0000 
715    C1    1     BCK1  B1    1     0.0000  56.0000 
716    C1    1     BCK1  B1    1     0.0000  56.0000 
717    C1    1     BCK1  B1    1     0.0000  56.0000 
718    C1    1     BCK1  B1    1     0.0000  56.0000 
719    C1    1     BCK1  B1    1     0.0000  56.0000 
720    C1    1     BCK1  B1    1     0.0000  56.0000 
721    C1    1     BCK1  B1    1     0.0000  56.0000 
722    C1    1     BCK1  B1    1     0.0000  56.0000 
723    C1    1     BCK1  B1    1     0.0000  56.0000 
724    C1    1     BCK1  B1    1     0.0000  56.0000 
725    C1    1     BCK1  B1    1     0.0000  56.0000 
726    C1    1     BCK1  B1    1     0.0000  56.0000 
727    C1    1     BCK1  B1    1     0.0000  56.0000 
728    C1    1     BCK1  B1    1     0.0000  56.0000 
729    C1    1     BCK1  B1    1     0.0000  56.0000 
730    C1    1     BCK1  B1    1     0.0000  56.0000 
731    C1    1     BCK1  B1    1     0.0000  56.0000 
732    C1    1     BCK1  B1    1     0.0000  56.0000 
733    C1    1     BCK1  B1    1     0.0000  56.0000 
734    C1    1     BCK1  B1    1     0.0000  56.0000 
735    C1    1     BCK1  B1    1     0.0000  56.0000 
736    C1    1     BCK1  B1    1     0.0000  56.0000 
737    C1    1     BCK1  B1    1     0.0000  56.0000 
738    C1    1     BCK1  B1    1     0.0000  56.0000 
739    C1    1     BCK1  B1    1     0.0000  56.0000 
740    C1    1     BCK1  B1    1     0.0000  56.0000 
741    C1    1     BCK1  B1    1     0.0000  56.0000 
742    C1    1     BCK1  B1    1     0.0000  56.0000 
743    C1    1     BCK1  B1    1     0.0000  56.0000 
744    C1    1     BCK1  B1    1     0.0000  56.0000 
745    C1    1     BCK1  B1    1     0.0000  56.0000 
746    C1    1     BCK1  B1    1     0.0000  56.0000 
747    C1    1     BCK1  B1    1     0.0000  56.0000 
748    C1    1     BCK1  B1    1     0.0000  56.0000 
749    C1    1     BCK1  B1    1     0.0000  56.0000 
750    C1    1     BCK1  B1    1     0.0000  56.0000 
751    C1    1     BCK1  B1    1     0.0000  56.0000 
752    C1    1     BCK1  B1    1     0.0000  56.0000 
753    C1    1     BCK1  B1    1     0.0000  56.0000 
754    C1    1     BCK1  B1    1     0.0000  56.0000 
755    C1    1     BCK1  B1    1     0.0000  56.0000 
756    C1    1     BCK1  B1    1     0.0000  56.0000 
757    C1    1     BCK1  B1    1     0.0000  56.0000 
758    C1    1     BCK1  B1    1     0.0000  56.0000 
759    C1    1     BCK1  B1    1     0.0000  56.0000 
760    C1    1     BCK1  B1    1     0.0000  56.0000 
761    C1    1     BCK1  B1    1     0.0000  56.0000 
762    C1    1     BCK1  B1    1     0.0000  56.0000 
763    C1    1     BCK1  B1    1     0.0000  56.0000 
764    C1    1     BCK1  B1    1     0.0000  56.0000 
765    C1    1     BCK1  B1    1     0.0000  56.0000 
766    C1    1     BCK1  B1    1     0.0000  56.0000 
767    C1    1     BCK1  B1    1     0.0000  56.0000 
768    C1    1     BCK1  B1    1     0.0000  56.0000 
769    C1    1     BCK1  B1    1     0.0000  56.0000 
770    C1    1     BCK1  B1    1     0.0000  56.0000 
771    C1    1     BCK1  B1    1     0.0000  56.0000 
772    C1    1     BCK1  B1    1     0.0000  56.0000 
773    C1    1     BCK1  B1    1     0.0000  56.0000 
774    C1    1     BCK1  B1    1     0.0000  56.0000 
775    C1    1     BCK1  B1    1     0.0000  56.0000 
776    C1    1     BCK1  B1    1     0.0000  56.0000 
777    C1    1     BCK1  B1    1     0.0000  56.0000 
778    C1    1     BCK1  B1    1     0.0000  56.0000 
779    C1    1     BCK1  B1    1     0.0000  56.0000 
780    C1    1     BCK1  B1    1     0.0000  56.0000 
781    C1    1     BCK1  B1    1     0.0000  56.0000 
782    C1    1     BCK1  B1    1     0.0000  56.0000 
783    C1    1     BCK1  B1    1     0.0000  56.0000 
784    C1    1     BCK1  B1    1     0.0000  56.0000 
785    C1    1     BCK1  B1    1     0.0000  56.0000 
786    C1    1     BCK1  B1    1     0.0000  56.0000 
787    C1    1     BCK1  B1    1     0.0000  56.0000 
788    C1    1     BCK1  B1    1     0.0000  56.0000 
789    C1    1     BCK1  B1    1     0.0000  56.0000 
790    C1    1     BCK1  B1    1     0.0000  56.0000 
791    C1    1     BCK1  B1    1     0.0000  56.0000 
792    C1    1     BCK1  B1    1     0.0000  56.0000 
793    C1    1     BCK1  B1    1     0.0000  56.0000 
794    C1    1     BCK1  B1    1     0.0000  56.0000 
795    C1    1     BCK1  B1    1     0.0000  56.0000 
796    C1    1     BCK1  B1    1     0.0000  56.0000 
797    C1    1     BCK1  B1    1     0.0000  56.0000 
798    C1    1     BCK1  B1    1     0.0000  56.0000 
799    C1    1     BCK1  B1    1     0.0000  56.0000 
800    C1    1     BCK1  B1    1     0.0000  56.0000 
801    C1    1     BCK1  B1    1     0.0000  56.0000 
802    C1    1     BCK1  B1    1     0.0000  56.0000 
803    C1    1     BCK1  B1    1     0.0000  56.0000 
804    C1    1     BCK1  B1    1     0.0000  56.0000 
805    C1    1     BCK1  B1    1     0.0000  56.0000 
806    C1    1     BCK1  B1    1     0.0000  56.0000 
807    C1    1     BCK1  B1    1     0.0000  56.0000 
808    C1    1     BCK1  B1    1     0.0000  56.0000 
809    C1    1     BCK1  B1    1     0.0000  56.0000 
810    C1    1     BCK1  B1    1     0.0000  56.0000 
811    C1    1     BCK1  B1    1     0.0000  56.0000 
812    C1    1     BCK1  B1    1     0.0000  56.0000 
813    C1    1     BCK1  B1    1     0.0000  56.0000 
814    C1    1     BCK1  B1    1     0.0000  56.0000 
815    C1    1     BCK1  B1    1     0.0000  56.0000 
816    C1    1     BCK1  B1    1     0.0000  56.0000 
817    C1    1     BCK1  B1    1     0.0000  56.0000 
818    C1    1     BCK1  B1    1     0.0000  56.0000 
819    C1    1     BCK1  B1    1     0.0000  56.0000 
820    C1    1     BCK1  B1    1     0.0000  56.0000 
821    C1    1     BCK1  B1    1     0.0000  56.0000 
822    C1    1     BCK1  B1    1     0.0000  56.0000 
823    C1    1     BCK1  B1    1     0.0000  56.0000 
824    C1    1     BCK1  B1    1     0.0000  56.0000 
825    C1    1     BCK1  B1    1     0.0000  56.0000 
826    C1    1     BCK1  B1    1     0.0000  56.0000 
827    C1    1     BCK1  B1    1     0.0000  56.0000 
828    C1    1     BCK1  B1    1     0.0000  56.0000 
829    C1    1     BCK1  B1    1     0.0000  56.0000 
830    C1    1     BCK1  B1    1     0.0000  56.0000 
831    C1    1     BCK1  B1    1     0.0000  56.0000 
832    C1    1     BCK1  B1    1     0.0000  56.0000 
833    C1    1     BCK1  B1    1     0.0000  56.0000 
834    C1    1     BCK1  B1    1     0.0000  56.0000 
835    C1    1     BCK1  B1    1     0.0000  56.0000 
836    C1    1     BCK1  B1    1     0.0000  56.0000 
837    C1    1     BCK1  B1    1     0.0000  56.0000 
838    C1    1     BCK1  B1    1     0.0000  56.0000 
839    C1    1     BCK1  B1    1     0.0000  56.0000 
840    C1    1     BCK1  B1    1     0.0000  56.0000 
841    C1    1     BCK1  B1    1     0.0000  56.0000 
842    C1    1     BCK1  B1    1     0.0000  56.0000 
843    C1    1     BCK1  B1    1     0.0000  56.0000 
844    C1    1     BCK1  B1    1     0.0000  56.0000 
845    C1    1     BCK1  B1    1     0.0000  56.0000 
846    C1    1     BCK1  B1    1     0.0000  56.0000 
847    C1    1     BCK1  B1    1     0.0000  56.0000 
848    C1    1     BCK1  B1    1     0.0000  56.0000 
849    C1    1     BCK1  B1    1     0.0000  56.0000 
850    C1    1     BCK1  B1    1     0.0000  56.0000 
851    C1    1     BCK1  B1    1     0.0000  56.0000 
852    C1    1     BCK1  B1    1     0.0000  56.0000 
853    C1    1     BCK1  B1    1     0.0000  56.0000 
854    C1    1     BCK1  B1    1     0.0000  56.0000 
855    C1    1     BCK1  B1    1     0.0000  56.0000 
856    C1    1     BCK1  B1    1     0.0000  56.0000 
857    C1    1     BCK1  B1    1     0.0000  56.0000 
858    C1    1     BCK1  B1    1     0.0000  56.0000 
859    C1    1     BCK1  B1    1     0.0000  56.0000 
860    C1    1     BCK1  B1    1     0.0000  56.0000 
861    C1    1     BCK1  B1    1     0.0000  56.0000 
862    C1    1     BCK1  B1    1     0.0000  56.0000 
863    C1    1     BCK1  B1    1     0.0000  56.0000 
864    C1    1     BCK1  B1    1     0.0000  56.0000 
865    C1    1     BCK1  B1    1     0.0000  56.0000 
866    C1    1     BCK1  B1    1     0.0000  56.0000 
867    C1    1     BCK1  B1    1     0.0000  56.0000 
868    C1    1     BCK1  B1    1     0.0000  56.0000 
869    C1    1     BCK1  B1    1     0.0000  56.0000 
870    C1    1     BCK1  B1    1     0.0000  56.0000 
871    C1    1     BCK1  B1    1     0.0000  56.0000 
872    C1    1     BCK1  B1    1     0.0000  56.0000 
873    C1    1     BCK1  B1    1     0.0000  56.0000 
874    C1    1     BCK1  B1    1     0.0000  56.0000 
875    C1    1     BCK1  B1    1     0.0000  56.0000 
876    C1    1     BCK1  B1    1     0.0000  56.0000 
877    C1    1     BCK1  B1    1     0.0000  56.0000 
878    C1    1     BCK1  B1    1     0.0000  56.0000 
879    C1    1     BCK1  B1    1     0.0000  56.0000 
880    C1    1     BCK1  B1    1     0.0000  56.0000 
881    C1    1     BCK1  B1    1     0.0000  56.0000 
882    C1    1     BCK1  B1    1     0.0000  56.0000 
883    C1    1     BCK1  B1    1     0.0000  56.0000 
884    C1    1     BCK1  B1    1     0.0000  56.0000 
885    C1    1     BCK1  B1    1     0.0000  56.0000 
886    C1    1     BCK1  B1    1     0.0000  56.0000 
887    C1    1     BCK1  B1    1     0.0000  56.0000 
888    C1    1     BCK1  B1    1     0.0000  56.0000 
889    C1    1     BCK1  B1    1     0.0000  56.0000 
890    C1    1     BCK1  B1    1     0.0000  56.0000 
891    C1    1     BCK1  B1    1     0.0000  56.0000 
892    C1    1     BCK1  B1    1     0.0000  56.0000 
893    C1    1     BCK1  B1    1     0.0000  56.0000 
894    C1    1     BCK1  B1    1     0.0000  56.0000 
895    C1    1     BCK1  B1    1     0.0000  56.0000 
896    C1    1     BCK1  B1    1     0.0000  56.0000 
897    C1    1     BCK1  B1    1     0.0000  56.0000 
898    C1    1     BCK1  B1    1     0.0000  56.0000 
899    C1    1     BCK1  B1    1     0.0000  56.0000 
900    C1    1     BCK1  B1    1     0.0000  56.0000 
901    C1    1     BCK1  B1    1     0.0000  56.0000 
902    C1    1     BCK1  B1    1     0.0000  56.0000 
903    C1    1     BCK1  B1    1     0.0000  56.0000 
904    C1    1     BCK1  B1    1     0.0000  56.0000 
905    C1    1     BCK1  B1    1     0.0000  56.0000 
906    C1    1     BCK1  B1    1     0.0000  56.0000 
907    C1    1     BCK1  B1    1     0.0000  56.0000 
908    C1    1     BCK1  B1    1     0.0000  56.0000 
909    C1    1     BCK1  B1    1     0.0000  56.0000 
910    C1    1     BCK1  B1    1     0.0000  56.0000 
911    C1    1     BCK1  B1    1     0.0000  56.0000 
912    C1    1     BCK1  B1    1     0.0000  56.0000 
913    C1    1     BCK1  B1    1     0.0000  56.0000 
914    C1    1     BCK1  B1    1     0.0000  56.0000 
915    C1    1     BCK1  B1    1     0.0000  56.0000 
916    C1    1     BCK1  B1    1     0.0000  56.0000 
917    C1    1     BCK1  B1    1     0.0000  56.0000 
918    C1    1     BCK1  B1    1     0.0000  56.0000 
919    C1    1     BCK1  B1    1     0.0000  56.0000 
920    C1    1     BCK1  B1    1     0.0000  56.0000 
921    C1    1     BCK1  B1    1     0.0000  56.0000 
922    C1    1     BCK1  B1    1     0.0000  56.0000 
923    C1    1     BCK1  B1    1     0.0000  56.0000 
924    C1    1     BCK1  B1    1     0.0000  56.0000 
925    C1    1     BCK1  B1    1     0.0000  56.0000 
926    C1    1     BCK1  B1    1     0.0000  56.0000 
927    C1    1     BCK1  B1    1     0.0000  56.0000 
928    C1    1     BCK1  B1    1     0.0000  56.0000 
929    C1    1     BCK1  B1    1     0.0000  56.0000 
930    C1    1     BCK1  B1    1     0.0000  56.0000 
931    C1    1     BCK1  B1    1     0.0000  56.0000 
932    C1    1     BCK1  B1    1     0.0000  56.0000 
933    C1    1     BCK1  B1    1     0.0000  56.0000 
934    C1    1     BCK1  B1    1     0.0000  56.0000 
935    C1    1     BCK1  B1    1     0.0000  56.0000 
936    C1    1     BCK1  B1    1     0.0000  56.0000 
937    C1    1     BCK1  B1    1     0.0000  56.0000 
938    C1    1     BCK1  B1    1     0.0000  56.0000 
939    C1    1     BCK1  B1    1     0.0000  56.0000 
940    C1    1     BCK1  B1    1     0.0000  56.0000 
941    C1    1     BCK1  B1    1     0.0000  56.0000 
942    C1    1     BCK1  B1    1     0.0000  56.0000 
943    C1    1     BCK1  B1    1     0.0000  56.0000 
944    C1    1     BCK1  B1    1     0.0000  56.0000 
945    C1    1     BCK1  B1    1     0.0000  56.0000 
946    C1    1     BCK1  B1    1     0.0000  56.0000 
947    C1    1     BCK1  B1    1     0.0000  56.0000 
948    C1    1     BCK1  B1    1     0.0000  56.0000 
949    C1    1     BCK1  B1    1     0.0000  56.0000 
950    C1    1     BCK1  B1    1     0.0000  56.0000 
951    C1    1     BCK1  B1    1     0.0000  56.0000 
952    C1    1     BCK1  B1    1     0.0000  56.0000 
953    C1    1     BCK1  B1    1     0.0000  56.0000 
954    C1    1     BCK1  B1    1     0.0000  56.0000 
955    C1    1     BCK1  B1    1     0.0000  56.0000 
956    C1    1     BCK1  B1    1     0.0000  56.0000 
957    C1    1     BCK1  B1    1     0.0000  56.0000 
958    C1    1     BCK1  B1    1     0.0000  56.0000 
959    C1    1     BCK1  B1    1     0.0000  56.0000 
960    C1    1     BCK1  B1    1     0.0000  56.0000 
961    C1    1     BCK1  B1    1     0.0000  56.0000 
962    C1    1     BCK1  B1    1     0.0000  56.0000 
963    C1    1     BCK1  B1    1     0.0000  56.0000 
964    C1    1     BCK1  B1    1     0.0000  56.0000 
965    C1    1     BCK1  B1    1     0.0000  56.0000 
966    C1    1     BCK1  B1    1     0.0000  56.0000 
967    C1    1     BCK1  B1    1     0.0000  56.0000 
968    C1    1     BCK1  B1    1     0.0000  56.0000 
969    C1    1     BCK1  B1    1     0.0000  56.0000 
970    C1    1     BCK1  B1    1     0.0000  56.0000 
971    C1    1     BCK1  B1    1     0.0000  56.0000 
972    C1    1     BCK1  B1    1     0.0000  56.0000 
973    C1    1     BCK1  B1    1     0.0000  56.0000 
974    C1    1     BCK1  B1    1     0.0000  56.0000 
975    C1    1     BCK1  B1    1     0.0000  56.0000 
976    C1    1     BCK1  B1    1     0.0000  56.0000 
977    C1    1     BCK1  B1    1     0.0000  56.0000 
978    C1    1     BCK1  B1    1     0.0000  56.0000 
979    C1    1     BCK1  B1    1     0.0000  56.0000 
980    C1    1     BCK1  B1    1     0.0000  56.0000 
981    C1    1     BCK1  B1    1     0.0000  56.0000 
982    C1    1     BCK1  B1    1     0.0000  56.0000 
983    C1    1     BCK1  B1    1     0.0000  56.0000 
984    C1    1     BCK1  B1    1     0.0000  56.0000 
985    C1    1     BCK1  B1    1     0.0000  56.0000 
986    C1    1     BCK1  B1    1     0.0000  56.0000 
987    C1    1     BCK1  B1    1     0.0000  56.0000 
988    C1    1     BCK1  B1    1     0.0000  56.0000 
989    C1    1     BCK1  B1    1     0.0000  56.0000 
990    C1    1     BCK1  B1    1     0.0000  56.0000 
991    C1    1     BCK1  B1    1     0.0000  56.0000 
992    C1    1     BCK1  B1    1     0.0000  56.0000 
993    C1    1     BCK1  B1    1     0.0000  56.0000 
994    C1    1     BCK1  B1    1     0.0000  56.0000 
995    C1    1     BCK1  B1    1     0.0000  56.0000 
996    C1    1     BCK1  B1    1     0.0000  56.0000 
997    C1    1     BCK1  B1    1     0.0000  56.0000 
998    C1    1     BCK1  B1    1     0.0000  56.0000 
999    C1    1     BCK1  B1    1     0.0000  56.0000 
1000   C1    1     BCK1  B1    1     0.0000  56.0000 
1001   C1    1     BCK1  B1    1     0.0000  56.0000 
1002   C1    1     BCK1  B1    1     0.0000  56.0000 
1003   C1    1     BCK1  B1    1     0.0000  56.0000 
1004   C1    1     BCK1  B1    1     0.0000  56.0000 
1005   C1    1     BCK1  B1    1     0.0000  56.0000 
1006   C1    1     BCK1  B1    1     0.0000  56.0000 
1007   C1    1     BCK1  B1    1     0.0000  56.0000 
1008   C1    1     BCK1  B1    1     0.0000  56.0000 
1009   C1    1     BCK1  B1    1     0.0000  56.0000 
1010   C1    1     BCK1  B1    1     0.0000  56.0000 
1011   C1    1     BCK1  B1    1     0.0000  56.0000 
1012   C1    1     BCK1  B1    1     0.0000  56.0000 
1013   C1    1     BCK1  B1    1     0.0000  56.0000 
1014   C1    1     BCK1  B1    1     0.0000  56.0000 
1015   C1    1     BCK1  B1    1     0.0000  56.0000 
1016   C1    1     BCK1  B1    1     0.0000  56.0000 
1017   C1    1     BCK1  B1    1     0.0000  56.0000 
1018   C1    1     BCK1  B1    1     0.0000  56.0000 
1019   C1    1     BCK1  B1    1     0.0000  56.0000 
1020   C1    1     BCK1  B1    1     0.0000  56.0000 
1021   C1    1     BCK1  B1    1     0.0000  56.0000 
1022   C1    1     BCK1  B1    1     0.0000  56.0000 
1023   C1    1     BCK1  B1    1     0.0000  56.0000 
1024   C1    1     BCK1  B1    1     0.0000  56.0000 
1025   C1    1     BCK1  B1    1     0.0000  56.0000 
1026   C1    1     BCK1  B1    1     0.0000  56.0000 
1027   C1    1     BCK1  B1    1     0.0000  56.0000 
1028   C1    1     BCK1  B1    1     0.0000  56.0000 
1029   C1    1     BCK1  B1    1     0.0000  56.0000 
1030   C1    1     BCK1  B1    1     0.0000  56.0000 
1031   C1    1     BCK1  B1    1     0.0000  56.0000 
1032   C1    1     BCK1  B1    1     0.0000  56.0000 
1033   C1    1     BCK1  B1    1     0.0000  56.0000 
1034   C1    1     BCK1  B1    1     0.0000  56.0000 
1035   C1    1     BCK1  B1    1     0.0000  56.0000 
1036   C1    1     BCK1  B1    1     0.0000  56.0000 
1037   C1    1     BCK1  B1    1     0.0000  56.0000 
1038   C1    1     BCK1  B1    1     0.0000  56.0000 
1039   C1    1     BCK1  B1    1     0.0000  56.0000 
1040   C1    1     BCK1  B1    1     0.0000  56.0000 
1041   C1    1     BCK1  B1    1     0.0000  56.0000 
1042   C1    1     BCK1  B1    1     0.0000  56.0000 
1043   C1    1     BCK1  B1    1     0.0000  56.0000 
1044   C1    1     BCK1  B1    1     0.0000  56.0000 
1045   C1    1     BCK1  B1    1     0.0000  56.0000 
1046   C1    1     BCK1  B1    1     0.0000  56.0000 
1047   C1    1     BCK1  B1    1     0.0000  56.0000 
1048   C1    1     BCK1  B1    1     0.0000  56.0000 
1049   C1    1     BCK1  B1    1     0.0000  56.0000 
1050   C1    1     BCK1  B1    1     0.0000  56.0000 
1051   C1    1     BCK1  B1    1     0.0000  56.0000 
1052   C1    1     BCK1  B1    1     0.0000  56.0000 
1053   C1    1     BCK1  B1    1     0.0000  56.0000 
1054   C1    1     BCK1  B1    1     0.0000  56.0000 
1055   C1    1     BCK1  B1    1     0.0000  56.0000 
1056   C1    1     BCK1  B1    1     0.0000  56.0000 
1057   C1    1     BCK1  B1    1     0.0000  56.0000 
1058   C1    1     BCK1  B1    1     0.0000  56.0000 
1059   C1    1     BCK1  B1    1     0.0000  56.0000 
1060   C1    1     BCK1  B1    1     0.0000  56.0000 
1061   C1    1     BCK1  B1    1     0.0000  56.0000 
1062   C1    1     BCK1  B1    1     0.0000  56.0000 
1063   C1    1     BCK1  B1    1     0.0000  56.0000 
1064   C1    1     BCK1  B1    1     0.0000  56.0000 
1065   C1    1     BCK1  B1    1     0.0000  56.0000 
1066   C1    1     BCK1  B1    1     0.0000  56.0000 
1067   C1    1     BCK1  B1    1     0.0000  56.0000 
1068   C1    1     BCK1  B1    1     0.0000  56.0000 
1069   C1    1     BCK1  B1    1     0.0000  56.0000 
1070   C1    1     BCK1  B1    1     0.0000  56.0000 
1071   C1    1     BCK1  B1    1     0.0000  56.0000 
1072   C1    1     BCK1  B1    1     0.0000  56.0000 
1073   C1    1     BCK1  B1    1     0.0000  56.0000 
1074   C1    1     BCK1  B1    1     0.0000  56.0000 
1075   C1    1     BCK1  B1    1     0.0000  56.0000 
1076   C1    1     BCK1  B1    1     0.0000  56.0000 
1077   C1    1     BCK1  B1    1     0.0000  56.0000 
1078   C1    1     BCK1  B1    1     0.0000  56.0000 
1079   C1    1     BCK1  B1    1     0.0000  56.0000 
1080   C1    1     BCK1  B1    1     0.0000  56.0000 
1081   C1    1     BCK1  B1    1     0.0000  56.0000 
1082   C1    1     BCK1  B1    1     0.0000  56.0000 
1083   C1    1     BCK1  B1    1     0.0000  56.0000 
1084   C1    1     BCK1  B1    1     0.0000  56.0000 
1085   C1    1     BCK1  B1    1     0.0000  56.0000 
1086   C1    1     BCK1  B1    1     0.0000  56.0000 
1087   C1    1     BCK1  B1    1     0.0000  56.0000 
1088   C1    1     BCK1  B1    1     0.0000  56.0000 
1089   C1    1     BCK1  B1    1     0.0000  56.0000 
1090   C1    1     BCK1  B1    1     0.0000  56.0000 
1091   C1    1     BCK1  B1    1     0.0000  56.0000 
1092   C1    1     BCK1  B1    1     0.0000  56.0000 
1093   C1    1     BCK1  B1    1     0.0000  56.0000 
1094   C1    1     BCK1  B1    1     0.0000  56.0000 
1095   C1    1     BCK1  B1    1     0.0000  56.0000 
1096   C1    1     BCK1  B1    1     0.0000  56.0000 
1097   C1    1     BCK1  B1    1     0.0000  56.0000 
1098   C1    1     BCK1  B1    1     0.0000  56.0000 
1099   C1    1     BCK1  B1    1     0.0000  56.0000 
1100   C1    1     BCK1  B1    1     0.0000  56.0000 
1101   C1    1     BCK1  B1    1     0.0000  56.0000 
1102   C1    1     BCK1  B1    1     0.0000  56.0000 
1103   C1    1     BCK1  B1    1     0.0000  56.0000 
1104   C1    1     BCK1  B1    1     0.0000  56.0000 
1105   C1    1     BCK1  B1    1     0.0000  56.0000 
1106   C1    1     BCK1  B1    1     0.0000  56.0000 
1107   C1    1     BCK1  B1    1     0.0000  56.0000 
1108   C1    1     BCK1  B1    1     0.0000  56.0000 
1109   C1    1     BCK1  B1    1     0.0000  56.0000 
1110   C1    1     BCK1  B1    1     0.0000  56.0000 
1111   C1    1     BCK1  B1    1     0.0000  56.0000 
1112   C1    1     BCK1  B1    1     0.0000  56.0000 
1113   C1    1     BCK1  B1    1     0.0000  56.0000 
1114   C1    1     BCK1  B1    1     0.0000  56.0000 
1115   C1    1     BCK1  B1    1     0.0000  56.0000 
1116   C1    1     BCK1  B1    1     0.0000  56.0000 
1117   C1    1     BCK1  B1    1     0.0000  56.0000 
1118   C1    1     BCK1  B1    1     0.0000  56.0000 
1119   C1    1     BCK1  B1    1     0.0000  56.0000 
1120   C1    1     BCK1  B1    1     0.0000  56.0000 
1121   C1    1     BCK1  B1    1     0.0000  56.0000 
1122   C1    1     BCK1  B1    1     0.0000  56.0000 
1123   C1    1     BCK1  B1    1     0.0000  56.0000 
1124   C1    1     BCK1  B1    1     0.0000  56.0000 
1125   C1    1     BCK1  B1    1     0.0000  56.0000 
1126   C1    1     BCK1  B1    1     0.0000  56.0000 
1127   C1    1     BCK1  B1    1     0.0000  56.0000 
1128   C1    1     BCK1  B1    1     0.0000  56.0000 
1129   C1    1     BCK1  B1    1     0.0000  56.0000 
1130   C1    1     BCK1  B1    1     0.0000  56.0000 
1131   C1    1     BCK1  B1    1     0.0000  56.0000 
1132   C1    1     BCK1  B1    1     0.0000  56.0000 
1133   C1    1     BCK1  B1    1     0.0000  56.0000 
1134   C1    1     BCK1  B1    1     0.0000  56.0000 
1135   C1    1     BCK1  B1    1     0.0000  56.0000 
1136   C1    1     BCK1  B1    1     0.0000  56.0000 
1137   C1    1     BCK1  B1    1     0.0000  56.0000 
1138   C1    1     BCK1  B1    1     0.0000  56.0000 
1139   C1    1     BCK1  B1    1     0.0000  56.0000 
1140   C1    1     BCK1  B1    1     0.0000  56.0000 
1141   C1    1     BCK1  B1    1     0.0000  56.0000 
1142   C1    1     BCK1  B1    1     0.0000  56.0000 
1143   C1    1     BCK1  B1    1     0.0000  56.0000 
1144   C1    1     BCK1  B1    1     0.0000  56.0000 
1145   C1    1     BCK1  B1    1     0.0000  56.0000 
1146   C1    1     BCK1  B1    1     0.0000  56.0000 
1147   C1    1     BCK1  B1    1     0.0000  56.0000 
1148   C1    1     BCK1  B1    1     0.0000  56.0000 
1149   C1    1     BCK1  B1    1     0.0000  56.0000 
1150   C1    1     BCK1  B1    1     0.0000  56.0000 
1151   C1    1     BCK1  B1    1     0.0000  56.0000 
1152   C1    1     BCK1  B1    1     0.0000  56.0000 
1153   C1    1     BCK1  B1    1     0.0000  56.0000 
1154   C1    1     BCK1  B1    1     0.0000  56.0000 
1155   C1    1     BCK1  B1    1     0.0000  56.0000 
1156   C1    1     BCK1  B1    1     0.0000  56.0000 
1157   C1    1     BCK1  B1    1     0.0000  56.0000 
1158   C1    1     BCK1  B1    1     0.0000  56.0000 
1159   C1    1     BCK1  B1    1     0.0000  56.0000 
1160   C1    1     BCK1  B1    1     0.0000  56.0000 
1161   C1    1     BCK1  B1    1     0.0000  56.0000 
1162   C1    1     BCK1  B1    1     0.0000  56.0000 
1163   C1    1     BCK1  B1    1     0.0000  56.0000 
1164   C1    1     BCK1  B1    1     0.0000  56.0000 
1165   C1    1     BCK1  B1    1     0.0000  56.0000 
1166   C1    1     BCK1  B1    1     0.0000  56.0000 
1167   C1    1     BCK1  B1    1     0.0000  56.0000 
1168   C1    1     BCK1  B1    1     0.0000  56.0000 
1169   C1    1     BCK1  B1    1     0.0000  56.0000 
1170   C1    1     BCK1  B1    1     0.0000  56.0000 
1171   C1    1     BCK1  B1    1     0.0000  56.0000 
1172   C1    1     BCK1  B1    1     0.0000  56.0000 
1173   C1    1     BCK1  B1    1     0.0000  56.0000 
1174   C1    1     BCK1  B1    1     0.0000  56.0000 
1175   C1    1     BCK1  B1    1     0.0000  56.0000 
1176   C1    1     BCK1  B1    1     0.0000  56.0000 
1177   C1    1     BCK1  B1    1     0.0000  56.0000 
1178   C1    1     BCK1  B1    1     0.0000  56.0000 
1179   C1    1     BCK1  B1    1     0.0000  56.0000 
1180   C1    1     BCK1  B1    1     0.0000  56.0000 
1181   C1    1     BCK1  B1    1     0.0000  56.0000 
1182   C1    1     BCK1  B1    1     0.0000  56.0000 
1183   C1    1     BCK1  B1    1     0.0000  56.0000 
1184   C1    1     BCK1  B1    1     0.0000  56.0000 
1185   C1    1     BCK1  B1    1     0.0000  56.0000 
1186   C1    1     BCK1  B1    1     0.0000  56.0000 
1187   C1    1     BCK1  B1    1     0.0000  56.0000 
1188   C1    1     BCK1  B1    1     0.0000  56.0000 
1189   C1    1     BCK1  B1    1     0.0000  56.0000 
1190   C1    1     BCK1  B1    1     0.0000  56.0000 
1191   C1    1     BCK1  B1    1     0.0000  56.0000 
1192   C1    1     BCK1  B1    1     0.0000  56.0000 
1193   C1    1     BCK1  B1    1     0.0000  56.0000 
1194   C1    1     BCK1  B1    1     0.0000  56.0000 
1195   C1    1     BCK1  B1    1     0.0000  56.0000 
1196   C1    1     BCK1  B1    1     0.0000  56.0000 
1197   C1    1     BCK1  B1    1     0.0000  56.0000 
1198   C1    1     BCK1  B1    1     0.0000  56.0000 
1199   C1    1     BCK1  B1    1     0.0000  56.0000 
1200   C1    1     BCK1  B1    1     0.0000  56.0000 
1201   C1    1     BCK1  B1    1     0.0000  56.0000 
1202   C1    1     BCK1  B1    1     0.0000  56.0000 
1203   C1    1     BCK1  B1    1     0.0000  56.0000 
1204   C1    1     BCK1  B1    1     0.0000  56.0000 
1205   C1    1     BCK1  B1    1     0.0000  56.0000 
1206   C1    1     BCK1  B1    1     0.0000  56.0000 
1207   C1    1     BCK1  B1    1     0.0000  56.0000 
1208   C1    1     BCK1  B1    1     0.0000  56.0000 
1209   C1    1     BCK1  B1    1     0.0000  56.0000 
1210   C1    1     BCK1  B1    1     0.0000  56.0000 
1211   C1    1     BCK1  B1    1     0.0000  56.0000 
1212   C1    1     BCK1  B1    1     0.0000  56.0000 
1213   C1    1     BCK1  B1    1     0.0000  56.0000 
1214   C1    1     BCK1  B1    1     0.0000  56.0000 
1215   C1    1     BCK1  B1    1     0.0000  56.0000 
1216   C1    1     BCK1  B1    1     0.0000  56.0000 
1217   C1    1     BCK1  B1    1     0.0000  56.0000 
1218   C1    1     BCK1  B1    1     0.0000  56.0000 
1219   C1    1     BCK1  B1    1     0.0000  56.0000 
1220   C1    1     BCK1  B1    1     0.0000  56.0000 
1221   C1    1     BCK1  B1    1     0.0000  56.0000 
1222   C1    1     BCK1  B1    1     0.0000  56.0000 
1223   C1    1     BCK1  B1    1     0.0000  56.0000 
1224   C1    1     BCK1  B1    1     0.0000  56.0000 
1225   C1    1     BCK1  B1    1     0.0000  56.0000 
1226   C1    1     BCK1  B1    1     0.0000  56.0000 
1227   C1    1     BCK1  B1    1     0.0000  56.0000 
1228   C1    1     BCK1  B1    1     0.0000  56.0000 
1229   C1    1     BCK1  B1    1     0.0000  56.0000 
1230   C1    1     BCK1  B1    1     0.0000  56.0000 
1231   C1    1     BCK1  B1    1     0.0000  56.0000 
1232   C1    1     BCK1  B1    1     0.0000  56.0000 
1233   C1    1     BCK1  B1    1     0.0000  56.0000 
1234   C1    1     BCK1  B1    1     0.0000  56.0000 
1235   C1    1     BCK1  B1    1     0.0000  56.0000 
1236   C1    1     BCK1  B1    1     0.0000  56.0000 
1237   C1    1     BCK1  B1    1     0.0000  56.0000 
1238   C1    1     BCK1  B1    1     0.0000  56.0000 
1239   C1    1     BCK1  B1    1     0.0000  56.0000 
1240   C1    1     BCK1  B1    1     0.0000  56.0000 
1241   C1    1     BCK1  B1    1     0.0000  56.0000 
1242   C1    1     BCK1  B1    1     0.0000  56.0000 
1243   C1    1     BCK1  B1    1     0.0000  56.0000 
1244   C1    1     BCK1  B1    1     0.0000  56.0000 
1245   C1    1     BCK1  B1    1     0.0000  56.0000 
1246   C1    1     BCK1  B1    1     0.0000  56.0000 
1247   C1    1     BCK1  B1    1     0.0000  56.0000 
1248   C1    1     BCK1  B1    1     0.0000  56.0000 
1249   C1    1     BCK1  B1    1     0.0000  56.0000 
1250   C1    1     BCK1  B1    1     0.0000  56.0000 
1251   C1    1     BCK1  B1    1     0.0000  56.0000 
1252   C1    1     BCK1  B1    1     0.0000  56.0000 
1253   C1    1     BCK1  B1    1     0.0000  56.0000 
1254   C1    1     BCK1  B1    1     0.0000  56.0000 
1255   C1    1     BCK1  B1    1     0.0000  56.0000 
1256   C1    1     BCK1  B1    1     0.0000  56.0000 
1257   C1    1     BCK1  B1    1     0.0000  56.0000 
1258   C1    1     BCK1  B1    1     0.0000  56.0000 
1259   C1    1     BCK1  B1    1     0.0000  56.0000 
1260   C1    1     BCK1  B1    1     0.0000  56.0000 
1261   C1    1     BCK1  B1    1     0.0000  56.0000 
1262   C1    1     BCK1  B1    1     0.0000  56.0000 
1263   C1    1     BCK1  B1    1     0.0000  56.0000 
1264   C1    1     BCK1  B1    1     0.0000  56.0000 
1265   C1    1     BCK1  B1    1     0.0000  56.0000 
1266   C1    1     BCK1  B1    1     0.0000  56.0000 
1267   C1    1     BCK1  B1    1     0.0000  56.0000 
1268   C1    1     BCK1  B1    1     0.0000  56.0000 
1269   C1    1     BCK1  B1    1     0.0000  56.0000 
1270   C1    1     BCK1  B1    1     0.0000  56.0000 
1271   C1    1     BCK1  B1    1     0.0000  56.0000 
1272   C1    1     BCK1  B1    1     0.0000  56.0000 
1273   C1    1     BCK1  B1    1     0.0000  56.0000 
1274   C1    1     BCK1  B1    1     0.0000  56.0000 
1275   C1    1     BCK1  B1    1     0.0000  56.0000 
1276   C1    1     BCK1  B1    1     0.0000  56.0000 
1277   C1    1     BCK1  B1    1     0.0000  56.0000 
1278   C1    1     BCK1  B1    1     0.0000  56.0000 
1279   C1    1     BCK1  B1    1     0.0000  56.0000 
1280   C1    1     BCK1  B1    1     0.0000  56.0000 
1281   C1    1     BCK1  B1    1     0.0000  56.0000 
1282   C1    1     BCK1  B1    1     0.0000  56.0000 
1283   C1    1     BCK1  B1    1     0.0000  56.0000 
1284   C1    1     BCK1  B1    1     0.0000  56.0000 
1285   C1    1     BCK1  B1    1     0.0000  56.0000 
1286   C1    1     BCK1  B1    1     0.0000  56.0000 
1287   C1    1     BCK1  B1    1     0.0000  56.0000 
1288   C1    1     BCK1  B1    1     0.0000  56.0000 
1289   C1    1     BCK1  B1    1     0.0000  56.0000 
1290   C1    1     BCK1  B1    1     0.0000  56.0000 
1291   C1    1     BCK1  B1    1     0.0000  56.0000 
1292   C1    1     BCK1  B1    1     0.0000  56.0000 
1293   C1    1     BCK1  B1    1     0.0000  56.0000 
1294   C1    1     BCK1  B1    1     0.0000  56.0000 
1295   C1    1     BCK1  B1    1     0.0000  56.0000 
1296   C1    1     BCK1  B1    1     0.0000  56.0000 
1297   C1    1     BCK1  B1    1     0.0000  56.0000 
1298   C1    1     BCK1  B1    1     0.0000  56.0000 
1299   C1    1     BCK1  B1    1     0.0000  56.0000 
1300   C1    1     BCK1  B1    1     0.0000  56.0000 
1301   C1    1     BCK1  B1    1     0.0000  56.0000 
1302   C1    1     BCK1  B1    1     0.0000  56.0000 
1303   C1    1     BCK1  B1    1     0.0000  56.0000 
1304   C1    1     BCK1  B1    1     0.0000  56.0000 
1305   C1    1     BCK1  B1    1     0.0000  56.0000 
1306   C1    1     BCK1  B1    1     0.0000  56.0000 
1307   C1    1     BCK1  B1    1     0.0000  56.0000 
1308   C1    1     BCK1  B1    1     0.0000  56.0000 
1309   C1    1     BCK1  B1    1     0.0000  56.0000 
1310   C1    1     BCK1  B1    1     0.0000  56.0000 
1311   C1    1     BCK1  B1    1     0.0000  56.0000 
1312   C1    1     BCK1  B1    1     0.0000  56.0000 
1313   C1    1     BCK1  B1    1     0.0000  56.0000 
1314   C1    1     BCK1  B1    1     0.0000  56.0000 
1315   C1    1     BCK1  B1    1     0.0000  56.0000 
1316   C1    1     BCK1  B1    1     0.0000  56.0000 
1317   C1    1     BCK1  B1    1     0.0000  56.0000 
1318   C1    1     BCK1  B1    1     0.0000  56.0000 
1319   C1    1     BCK1  B1    1     0.0000  56.0000 
1320   C1    1     BCK1  B1    1     0.0000  56.0000 
1321   C1    1     BCK1  B1    1     0.0000  56.0000 
1322   C1    1     BCK1  B1    1     0.0000  56.0000 
1323   C1    1     BCK1  B1    1     0.0000  56.0000 
1324   C1    1     BCK1  B1    1     0.0000  56.0000 
1325   C1    1     BCK1  B1    1     0.0000  56.0000 
1326   C1    1     BCK1  B1    1     0.0000  56.0000 
1327   C1    1     BCK1  B1    1     0.0000  56.0000 
1328   C1    1     BCK1  B1    1     0.0000  56.0000 
1329   C1    1     BCK1  B1    1     0.0000  56.0000 
1330   C1    1     BCK1  B1    1     0.0000  56.0000 
1331   C1    1     BCK1  B1    1     0.0000  56.0000 
1332   C1    1     BCK1  B1    1     0.0000  56.0000 
1333   C1    1     BCK1  B1    1     0.0000  56.0000 
1334   C1    1     BCK1  B1    1     0.0000  56.0000 
1335   C1    1     BCK1  B1    1     0.0000  56.0000 
1336   C1    1     BCK1  B1    1     0.0000  56.0000 
1337   C1    1     BCK1  B1    1     0.0000  56.0000 
1338   C1    1     BCK1  B1    1     0.0000  56.0000 
1339   C1    1     BCK1  B1    1     0.0000  56.0000 
1340   C1    1     BCK1  B1    1     0.0000  56.0000 
1341   C1    1     BCK1  B1    1     0.0000  56.0000 
1342   C1    1     BCK1  B1    1     0.0000  56.0000 
1343   C1    1     BCK1  B1    1     0.0000  56.0000 
1344   C1    1     BCK1  B1    1     0.0000  56.0000 
1345   C1    1     BCK1  B1    1     0.0000  56.0000 
1346   C1    1     BCK1  B1    1     0.0000  56.0000 
1347   C1    1     BCK1  B1    1     0.0000  56.0000 
1348   C1    1     BCK1  B1    1     0.0000  56.0000 
1349   C1    1     BCK1  B1    1     0.0000  56.0000 
1350   C1    1     BCK1  B1    1     0.0000  56.0000 
1351   C1    1     BCK1  B1    1     0.0000  56.0000 
1352   C1    1     BCK1  B1    1     0.0000  56.0000 
1353   C1    1     BCK1  B1    1     0.0000  56.0000 
1354   C1    1     BCK1  B1    1     0.0000  56.0000 
1355   C1    1     BCK1  B1    1     0.0000  56.0000 
1356   C1    1     BCK1  B1    1     0.0000  56.0000 
1357   C1    1     BCK1  B1    1     0.0000  56.0000 
1358   C1    1     BCK1  B1    1     0.0000  56.0000 
1359   C1    1     BCK1  B1    1     0.0000  56.0000 
1360   C1    1     BCK1  B1    1     0.0000  56.0000 
1361   C1    1     BCK1  B1    1     0.0000  56.0000 
1362   C1    1     BCK1  B1    1     0.0000  56.0000 
1363   C1    1     BCK1  B1    1     0.0000  56.0000 
1364   C1    1     BCK1  B1    1     0.0000  56.0000 
1365   C1    1     BCK1  B1    1     0.0000  56.0000 
1366   C1    1     BCK1  B1    1     0.0000  56.0000 
1367   C1    1     BCK1  B1    1     0.0000  56.0000 
1368   C1    1     BCK1  B1    1     0.0000  56.0000 
1369   C1    1     BCK1  B1    1     0.0000  56.0000 
1370   C1    1     BCK1  B1    1     0.0000  56.0000 
1371   C1    1     BCK1  B1    1     0.0000  56.0000 
1372   C1    1     BCK1  B1    1     0.0000  56.0000 
1373   C1    1     BCK1  B1    1     0.0000  56.0000 
1374   C1    1     BCK1  B1    1     0.0000  56.0000 
1375   C1    1     BCK1  B1    1     0.0000  56.0000 
1376   C1    1     BCK1  B1    1     0.0000  56.0000 
1377   C1    1     BCK1  B1    1     0.0000  56.0000 
1378   C1    1     BCK1  B1    1     0.0000  56.0000 
1379   C1    1     BCK1  B1    1     0.0000  56.0000 
1380   C1    1     BCK1  B1    1     0.0000  56.0000 
1381   C1    1     BCK1  B1    1     0.0000  56.0000 
1382   C1    1     BCK1  B1    1     0.0000  56.0000 
1383   C1    1     BCK1  B1    1     0.0000  56.0000 
1384   C1    1     BCK1  B1    1     0.0000  56.0000 
1385   C1    1     BCK1  B1    1     0.0000  56.0000 
1386   C1    1     BCK1  B1    1     0.0000  56.0000 
1387   C1    1     BCK1  B1    1     0.0000  56.0000 
1388   C1    1     BCK1  B1    1     0.0000  56.0000 
1389   C1    1     BCK1  B1    1     0.0000  56.0000 
1390   C1    1     BCK1  B1    1     0.0000  56.0000 
1391   C1    1     BCK1  B1    1     0.0000  56.0000 
1392   C1    1     BCK1  B1    1     0.0000  56.0000 
1393   C1    1     BCK1  B1    1     0.0000  56.0000 
1394   C1    1     BCK1  B1    1     0.0000  56.0000 
1395   C1    1     BCK1  B1    1     0.0000  56.0000 
1396   C1    1     BCK1  B1    1     0.0000  56.0000 
1397   C1    1     BCK1  B1    1     0.0000  56.0000 
1398   C1    1     BCK1  B1    1     0.0000  56.0000 
1399   C1    1     BCK1  B1    1     0.0000  56.0000 
1400   C1    1     BCK1  B1    1     0.0000  56.0000 
1401   C1    1     BCK1  B1    1     0.0000  56.0000 
1402   C1    1     BCK1  B1    1     0.0000  56.0000 
1403   C1    1     BCK1  B1    1     0.0000  56.0000 
1404   C1    1     BCK1  B1    1     0.0000  56.0000 
1405   C1    1     BCK1  B1    1     0.0000  56.0000 
1406   C1    1     BCK1  B1    1     0.0000  56.0000 
1407   C1    1     BCK1  B1    1     0.0000  56.0000 
1408   C1    1     BCK1  B1    1     0.0000  56.0000 
1409   C1    1     BCK1  B1    1     0.0000  56.0000 
1410   C1    1     BCK1  B1    1     0.0000  56.0000 
1411   C1    1     BCK1  B1    1     0.0000  56.0000 
1412   C1    1     BCK1  B1    1     0.0000  56.0000 
1413   C1    1     BCK1  B1    1     0.0000  56.0000 
1414   C1    1     BCK1  B1    1     0.0000  56.0000 
1415   C1    1     BCK1  B1    1     0.0000  56.0000 
1416   C1    1     BCK1  B1    1     0.0000  56.0000 
1417   C1    1     BCK1  B1    1     0.0000  56.0000 
1418   C1    1     BCK1  B1    1     0.0000  56.0000 
1419   C1    1     BCK1  B1    1     0.0000  56.0000 
1420   C1    1     BCK1  B1    1     0.0000  56.0000 
1421   C1    1     BCK1  B1    1     0.0000  56.0000 
1422   C1    1     BCK1  B1    1     0.0000  56.0000 
1423   C1    1     BCK1  B1    1     0.0000  56.0000 
1424   C1    1     BCK1  B1    1     0.0000  56.0000 
1425   C1    1     BCK1  B1    1     0.0000  56.0000 
1426   C1    1     BCK1  B1    1     0.0000  56.0000 
1427   C1    1     BCK1  B1    1     0.0000  56.0000 
1428   C1    1     BCK1  B1    1     0.0000  56.0000 
1429   C1    1     BCK1  B1    1     0.0000  56.0000 
1430   C1    1     BCK1  B1    1     0.0000  56.0000 
1431   C1    1     BCK1  B1    1     0.0000  56.0000 
1432   C1    1     BCK1  B1    1     0.0000  56.0000 
1433   C1    1     BCK1  B1    1     0.0000  56.0000 
1434   C1    1     BCK1  B1    1     0.0000  56.0000 
1435   C1    1     BCK1  B1    1     0.0000  56.0000 
1436   C1    1     BCK1  B1    1     0.0000  56.0000 
1437   C1    1     BCK1  B1    1     0.0000  56.0000 
1438   C1    1     BCK1  B1    1     0.0000  56.0000 
1439   C1    1     BCK1  B1    1     0.0000  56.0000 
1440   C1    1     BCK1  B1    1     0.0000  56.0000 
1441   C1    1     BCK1  B1    1     0.0000  56.0000 
1442   C1    1     BCK1  B1    1     0.0000  56.0000 
1443   C1    1     BCK1  B1    1     0.0000  56.0000 
1444   C1    1     BCK1  B1    1     0.0000  56.0000 
1445   C1    1     BCK1  B1    1     0.0000  56.0000 
1446   C1    1     BCK1  B1    1     0.0000  56.0000 
1447   C1    1     BCK1  B1    1     0.0000  56.0000 
1448   C1    1     BCK1  B1    1     0.0000  56.0000 
1449   C1    1     BCK1  B1    1     0.0000  56.0000 
1450   C1    1     BCK1  B1    1     0.0000  56.0000 
1451   C1    1     BCK1  B1    1     0.0000  56.0000 
1452   C1    1     BCK1  B1    1     0.0000  56.0000 
1453   C1    1     BCK1  B1    1     0.0000  56.0000 
1454   C1    1     BCK1  B1    1     0.0000  56.0000 
1455   C1    1     BCK1  B1    1     0.0000  56.0000 
1456   C1    1     BCK1  B1    1     0.0000  56.0000 
1457   C1    1     BCK1  B1    1     0.0000  56.0000 
1458   C1    1     BCK1  B1    1     0.0000  56.0000 
1459   C1    1     BCK1  B1    1     0.0000  56.0000 
1460   C1    1     BCK1  B1    1     0.0000  56.0000 
1461   C1    1     BCK1  B1    1     0.0000  56.0000 
1462   C1    1     BCK1  B1    1     0.0000  56.0000 
1463   C1    1     BCK1  B1    1     0.0000  56.0000 
1464   C1    1     BCK1  B1    1     0.0000  56.0000 
1465   C1    1     BCK1  B1    1     0.0000  56.0000 
1466   C1    1     BCK1  B1    1     0.0000  56.0000 
1467   C1    1     BCK1  B1    1     0.0000  56.0000 
1468   C1    1     BCK1  B1    1     0.0000  56.0000 
1469   C1    1     BCK1  B1    1     0.0000  56.0000 
1470   C1    1     BCK1  B1    1     0.0000  56.0000 
1471   C1    1     BCK1  B1    1     0.0000  56.0000 
1472   C1    1     BCK1  B1    1     0.0000  56.0000 
1473   C1    1     BCK1  B1    1     0.0000  56.0000 
1474   C1    1     BCK1  B1    1     0.0000  56.0000 
1475   C1    1     BCK1  B1    1     0.0000  56.0000 
1476   C1    1     BCK1  B1    1     0.0000  56.0000 
1477   C1    1     BCK1  B1    1     0.0000  56.0000 
1478   C1    1     BCK1  B1    1     0.0000  56.0000 
1479   C1    1     BCK1  B1    1     0.0000  56.0000 
1480   C1    1     BCK1  B1    1     0.0000  56.0000 
1481   C1    1     BCK1  B1    1     0.0000  56.0000 
1482   C1    1     BCK1  B1    1     0.0000  56.0000 
1483   C1    1     BCK1  B1    1     0.0000  56.0000 
1484   C1    1     BCK1  B1    1     0.0000  56.0000 
1485   C1    1     BCK1  B1    1     0.0000  56.0000 
1486   C1    1     BCK1  B1    1     0.0000  56.0000 
1487   C1    1     BCK1  B1    1     0.0000  56.0000 
1488   C1    1     BCK1  B1    1     0.0000  56.0000 
1489   C1    1     BCK1  B1    1     0.0000  56.0000 
1490   C1    1     BCK1  B1    1     0.0000  56.0000 
1491   C1    1     BCK1  B1    1     0.0000  56.0000 
1492   C1    1     BCK1  B1    1     0.0000  56.0000 
1493   C1    1     BCK1  B1    1     0.0000  56.0000 
1494   C1    1     BCK1  B1    1     0.0000  56.0000 
1495   C1    1     BCK1  B1    1     0.0000  56.0000 
1496   C1    1     BCK1  B1    1     0.0000  56.0000 
1497   C1    1     BCK1  B1    1     0.0000  56.0000 
1498   C1    1     BCK1  B1    1     0.0000  56.0000 
1499   C1    1     BCK1  B1    1     0.0000  56.0000 
1500   C1    1     BCK1  B1    1     0.0000  56.0000 
1501   C1    1     BCK1  B1    1     0.0000  56.0000 
1502   C1    1     BCK1  B1    1     0.0000  56.0000 
1503   C1    1     BCK1  B1    1     0.0000  56.0000 
1504   C1    1     BCK1  B1    1     0.0000  56.0000 
1505   C1    1     BCK1  B1    1     0.0000  56.0000 
1506   C1    1     BCK1  B1    1     0.0000  56.0000 
1507   C1    1     BCK1  B1    1     0.0000  56.0000 
1508   C1    1     BCK1  B1    1     0.0000  56.0000 
1509   C1    1     BCK1  B1    1     0.0000  56.0000 
1510   C1    1     BCK1  B1    1     0.0000  56.0000 
1511   C1    1     BCK1  B1    1     0.0000  56.0000 
1512   C1    1     BCK1  B1    1     0.0000  56.0000 
1513   C1    1     BCK1  B1    1     0.0000  56.0000 
1514   C1    1     BCK1  B1    1     0.0000  56.0000 
1515   C1    1     BCK1  B1    1     0.0000  56.0000 
1516   C1    1     BCK1  B1    1     0.0000  56.0000 
1517   C1    1     BCK1  B1    1     0.0000  56.0000 
1518   C1    1     BCK1  B1    1     0.0000  56.0000 
1519   C1    1     BCK1  B1    1     0.0000  56.0000 
1520   C1    1     BCK1  B1    1     0.0000  56.0000 
1521   C1    1     BCK1  B1    1     0.0000  56.0000 
1522   C1    1     BCK1  B1    1     0.0000  56.0000 
1523   C1    1     BCK1  B1    1     0.0000  56.0000 
1524   C1    1     BCK1  B1    1     0.0000  56.0000 
1525   C1    1     BCK1  B1    1     0.0000  56.0000 
1526   C1    1     BCK1  B1    1     0.0000  56.0000 
1527   C1    1     BCK1  B1    1     0.0000  56.0000 
1528   C1    1     BCK1  B1    1     0.0000  56.0000 
1529   C1    1     BCK1  B1    1     0.0000  56.0000 
1530   C1    1     BCK1  B1    1     0.0000  56.0000 
1531   C1    1     BCK1  B1    1     0.0000  56.0000 
1532   C1    1     BCK1  B1    1     0.0000  56.0000 
1533   C1    1     BCK1  B1    1     0.0000  56.0000 
1534   C1    1     BCK1  B1    1     0.0000  56.0000 
1535   C1    1     BCK1  B1    1     0.0000  56.0000 
1536   C1    1     BCK1  B1    1     0.0000  56.0000 
1537   C1    1     BCK1  B1    1     0.0000  56.0000 
1538   C1    1     BCK1  B1    1     0.0000  56.0000 
1539   C1    1     BCK1  B1    1     0.0000  56.0000 
1540   C1    1     BCK1  B1    1     0.0000  56.0000 
1541   C1    1     BCK1  B1    1     0.0000  56.0000 
1542   C1    1     BCK1  B1    1     0.0000  56.0000 
1543   C1    1     BCK1  B1    1     0.0000  56.0000 
1544   C1    1     BCK1  B1    1     0.0000  56.0000 
1545   C1    1     BCK1  B1    1     0.0000  56.0000 
1546   C1    1     BCK1  B1    1     0.0000  56.0000 
1547   C1    1     BCK1  B1    1     0.0000  56.0000 
1548   C1    1     BCK1  B1    1     0.0000  56.0000 
1549   C1    1     BCK1  B1    1     0.0000  56.0000 
1550   C1    1     BCK1  B1    1     0.0000  56.0000 
1551   C1    1     BCK1  B1    1     0.0000  56.0000 
1552   C1    1     BCK1  B1    1     0.0000  56.0000 
1553   C1    1     BCK1  B1    1     0.0000  56.0000 
1554   C1    1     BCK1  B1    1     0.0000  56.0000 
1555   C1    1     BCK1  B1    1     0.0000  56.0000 
1556   C1    1     BCK1  B1    1     0.0000  56.0000 
1557   C1    1     BCK1  B1    1     0.0000  56.0000 
1558   C1    1     BCK1  B1    1     0.0000  56.0000 
1559   C1    1     BCK1  B1    1     0.0000  56.0000 
1560   C1    1     BCK1  B1    1     0.0000  56.0000 
1561   C1    1     BCK1  B1    1     0.0000  56.0000 
1562   C1    1     BCK1  B1    1     0.0000  56.0000 
1563   C1    1     BCK1  B1    1     0.0000  56.0000 
1564   C1    1     BCK1  B1    1     0.0000  56.0000 
1565   C1    1     BCK1  B1    1     0.0000  56.0000 
1566   C1    1     BCK1  B1    1     0.0000  56.0000 
1567   C1    1     BCK1  B1    1     0.0000  56.0000 
1568   C1    1     BCK1  B1    1     0.0000  56.0000 
1569   C1    1     BCK1  B1    1     0.0000  56.0000 
1570   C1    1     BCK1  B1    1     0.0000  56.0000 
1571   C1    1     BCK1  B1    1     0.0000  56.0000 
1572   C1    1     BCK1  B1    1     0.0000  56.0000 
1573   C1    1     BCK1  B1    1     0.0000  56.0000 
1574   C1    1     BCK1  B1    1     0.0000  56.0000 
1575   C1    1     BCK1  B1    1     0.0000  56.0000 
1576   C1    1     BCK1  B1    1     0.0000  56.0000 
1577   C1    1     BCK1  B1    1     0.0000  56.0000 
1578   C1    1     BCK1  B1    1     0.0000  56.0000 
1579   C1    1     BCK1  B1    1     0.0000  56.0000 
1580   C1    1     BCK1  B1    1     0.0000  56.0000 
1581   C1    1     BCK1  B1    1     0.0000  56.0000 
1582   C1    1     BCK1  B1    1     0.0000  56.0000 
1583   C1    1     BCK1  B1    1     0.0000  56.0000 
1584   C1    1     BCK1  B1    1     0.0000  56.0000 
1585   C1    1     BCK1  B1    1     0.0000  56.0000 
1586   C1    1     BCK1  B1    1     0.0000  56.0000 
1587   C1    1     BCK1  B1    1     0.0000  56.0000 
1588   C1    1     BCK1  B1    1     0.0000  56.0000 
1589   C1    1     BCK1  B1    1     0.0000  56.0000 
1590   C1    1     BCK1  B1    1     0.0000  56.0000 
1591   C1    1     BCK1  B1    1     0.0000  56.0000 
1592   C1    1     BCK1  B1    1     0.0000  56.0000 
1593   C1    1     BCK1  B1    1     0.0000  56.0000 
1594   C1    1     BCK1  B1    1     0.0000  56.0000 
1595   C1    1     BCK1  B1    1     0.0000  56.0000 
1596   C1    1     BCK1  B1    1     0.0000  56.0000 
1597   C1    1     BCK1  B1    1     0.0000  56.0000 
1598   C1    1     BCK1  B1    1     0.0000  56.0000 
1599   C1    1     BCK1  B1    1     0.0000  56.0000 
1600   C1    1     BCK1  B1    1     0.0000  56.0000 
1601   C1    1     BCK1  B1    1     0.0000  56.0000 
1602   C1    1     BCK1  B1    1     0.0000  56.0000 
1603   C1    1     BCK1  B1    1     0.0000  56.0000 
1604   C1    1     BCK1  B1    1     0.0000  56.0000 
1605   C1    1     BCK1  B1    1     0.0000  56.0000 
1606   C1    1     BCK1  B1    1     0.0000  56.0000 
1607   C1    1     BCK1  B1    1     0.0000  56.0000 
1608   C1    1     BCK1  B1    1     0.0000  56.0000 
1609   C1    1     BCK1  B1    1     0.0000  56.0000 
1610   C1    1     BCK1  B1    1     0.0000  56.0000 
1611   C1    1     BCK1  B1    1     0.0000  56.0000 
1612   C1    1     BCK1  B1    1     0.0000  56.0000 
1613   C1    1     BCK1  B1    1     0.0000  56.0000 
1614   C1    1     BCK1  B1    1     0.0000  56.0000 
1615   C1    1     BCK1  B1    1     0.0000  56.0000 
1616   C1    1     BCK1  B1    1     0.0000  56.0000 
1617   C1    1     BCK1  B1    1     0.0000  56.0000 
1618   C1    1     BCK1  B1    1     0.0000  56.0000 
1619   C1    1     BCK1  B1    1     0.0000  56.0000 
1620   C1    1     BCK1  B1    1     0.0000  56.0000 
1621   C1    1     BCK1  B1    1     0.0000  56.0000 
1622   C1    1     BCK1  B1    1     0.0000  56.0000 
1623   C1    1     BCK1  B1    1     0.0000  56.0000 
1624   C1    1     BCK1  B1    1     0.0000  56.0000 
1625   C1    1     BCK1  B1    1     0.0000  56.0000 
1626   C1    1     BCK1  B1    1     0.0000  56.0000 
1627   C1    1     BCK1  B1    1     0.0000  56.0000 
1628   C1    1     BCK1  B1    1     0.0000  56.0000 
1629   C1    1     BCK1  B1    1     0.0000  56.0000 
1630   C1    1     BCK1  B1    1     0.0000  56.0000 
1631   C1    1     BCK1  B1    1     0.0000  56.0000 
1632   C1    1     BCK1  B1    1     0.0000  56.0000 
1633   C1    1     BCK1  B1    1     0.0000  56.0000 
1634   C1    1     BCK1  B1    1     0.0000  56.0000 
1635   C1    1     BCK1  B1    1     0.0000  56.0000 
1636   C1    1     BCK1  B1    1     0.0000  56.0000 
1637   C1    1     BCK1  B1    1     0.0000  56.0000 
1638   C1    1     BCK1  B1    1     0.0000  56.0000 
1639   C1    1     BCK1  B1    1     0.0000  56.0000 
1640   C1    1     BCK1  B1    1     0.0000  56.0000 
1641   C1    1     BCK1  B1    1     0.0000  56.0000 
1642   C1    1     BCK1  B1    1     0.0000  56.0000 
1643   C1    1     BCK1  B1    1     0.0000  56.0000 
1644   C1    1     BCK1  B1    1     0.0000  56.0000 
1645   C1    1     BCK1  B1    1     0.0000  56.0000 
1646   C1    1     BCK1  B1    1     0.0000  56.0000 
1647   C1    1     BCK1  B1    1     0.0000  56.0000 
1648   C1    1     BCK1  B1    1     0.0000  56.0000 
1649   C1    1     BCK1  B1    1     0.0000  56.0000 
1650   C1    1     BCK1  B1    1     0.0000  56.0000 
1651   C1    1     BCK1  B1    1     0.0000  56.0000 
1652   C1    1     BCK1  B1    1     0.0000  56.0000 
1653   C1    1     BCK1  B1    1     0.0000  56.0000 
1654   C1    1     BCK1  B1    1     0.0000  56.0000 
1655   C1    1     BCK1  B1    1     0.0000  56.0000 
1656   C1    1     BCK1  B1    1     0.0000  56.0000 
1657   C1    1     HEX   C0    1     0.0000  72.0000 
1658   C1    1     HB    S1    2     0.0000  56.0000 
1659   C1    1     HB    S2    3     0.0000  56.0000 
1660   C1    1     HB    S3    4     0.0000  56.0000 
1661   C1    1     HB    S4    5     0.0000  56.0000 
1662   C1    1     HB    S5    6     0.0000  56.0000 
1663   C1    1     HB    S6    7     0.0000  56.0000 
1664   C1    1     HEX   C0    1     0.0000  72.0000 
1665   C1    1     HB    S1    2     0.0000  56.0000 
1666   C1    1     HB    S2    3     0.0000  56.0000 
1667   C1    1     HB    S3    4     0.0000  56.0000 
1668   C1    1     HB    S4    5     0.0000  56.0000 
1669   C1    1     HB    S5    6     0.0000  56.0000 
1670   C1    1     HB    S6    7     0.0000  56.0000 
1671   C1    1     HEX   C0    1     0.0000  72.0000 
1672   C1    1     HB    S1    2     0.0000  56.0000 
1673   C1    1     HB    S2    3     0.0000  56.0000 
1674   C1    1     HB    S3    4     0.0000  56.0000 
1675   C1    1     HB    S4    5     0.0000  56.0000 
1676   C1    1     HB    S5    6     0.0000  56.0000 
1677   C1    1     HB    S6    7     0.0000  56.0000 
1678   C1    1     HEX   C0    1     0.0000  72.0000 
1679   C1    1     HB    S1    2     0.0000  56.0000 
1680   C1    1     HB    S2    3     0.0000  56.0000 
1681   C1    1     HB    S3    4     0.0000  56.0000 
1682   C1    1     HB    S4    5     0.0000  56.0000 
1683   C1    1     HB    S5    6     0.0000  56.0000 
1684   C1    1     HB    S6    7     0.0000  56.0000 
1685   C1    1     HEX   C0    1     0.0000  72.0000 
1686   C1    1     HB    S1    2     0.0000  56.0000 
1687   C1    1     HB    S2    3     0.0000  56.0000 
1688   C1    1     HB    S3    4     0.0000  56.0000 
1689   C1    1     HB    S4    5     0.0000  56.0000 
1690   C1    1     HB    S5    6     0.0000  56.0000 
1691   C1    1     HB    S6    7     0.0000  56.0000 
1692   C1    1     HEX   C0    1     0.0000  72.0000 
1693   C1    1     HB    S1    2     0.0000  56.0000 
1694   C1    1     HB    S2    3     0.0000  56.0000 
1695   C1    1     HB    S3    4     0.0000  56.0000 
1696   C1    1     HB    S4    5     0.0000  56.0000 
1697   C1    1     HB    S5    6     0.0000  56.0000 
1698   C1    1     HB    S6    7     0.0000  56.0000 
1699   C1    1     HEX   C0    1     0.0000  72.0000 
1700   C1    1     HB    S1    2     0.0000  56.0000 
1701   C1    1     HB    S2    3     0.0000  56.0000 
1702   C1    1     HB    S3    4     0.0000  56.0000 
1703   C1    1     HB    S4    5     0.0000  56.0000 
1704   C1    1     HB    S5    6     0.0000  56.0000 
1705   C1    1     HB    S6    7     0.0000  56.0000 
1706   C1    1     HEX   C0    1     0.0000  72.0000 
1707   C1    1     HB    S1    2     0.0000  56.0000 
1708   C1    1     HB    S2    3     0.0000  56.0000 
1709   C1    1     HB    S3    4     0.0000  56.0000 
1710   C1    1     HB    S4    5     0.0000  56.0000 
1711   C1    1     HB    S5    6     0.0000  56.0000 
1712   C1    1     HB    S6    7     0.0000  56.0000 
1713   C1    1     HEX   C0    1     0.0000  72.0000 
1714   C1    1     HB    S1    2     0.0000  56.0000 
1715   C1    1     HB    S2    3     0.0000  56.0000 
1716   C1    1     HB    S3    4     0.0000  56.0000 
1717   C1    1     HB    S4    5     0.0000  56.0000 
1718   C1    1     HB    S5    6     0.0000  56.0000 
1719   C1    1     HB    S6    7     0.0000  56.0000 
1720   C1    1     HEX   C0    1     0.0000  72.0000 
1721   C1    1     HB    S1    2     0.0000  56.0000 
1722   C1    1     HB    S2    3     0.0000  56.0000 
1723   C1    1     HB    S3    4     0.0000  56.0000 
1724   C1    1     HB    S4    5     0.0000  56.0000 
1725   C1    1     HB    S5    6     0.0000  56.0000 
1726   C1    1     HB    S6    7     0.0000  56.0000 
1727   C1    1     HEX   C0    1     0.0000  72.0000 
1728   C1    1     HB    S1    2     0.0000  56.0000 
1729   C1    1     HB    S2    3     0.0000  56.0000 
1730   C1    1     HB    S3    4     0.0000  56.0000 
1731   C1    1     HB    S4    5     0.0000  56.0000 
1732   C1    1     HB    S5    6     0.0000  56.0000 
1733   C1    1     HB    S6    7     0.0000  56.0000 
1734   C1    1     HEX   C0    1     0.0000  72.0000 
1735   C1    1     HB    S1    2     0.0000  56.0000 
1736   C1    1     HB    S2    3     0.0000  56.0000 
1737   C1    1     HB    S3    4     0.0000  56.0000 
1738   C1    1     HB    S4    5     0.0000  56.0000 
1739   C1    1     HB    S5    6     0.0000  56.0000 
1740   C1    1     HB    S6    7     0.0000  56.0000 
1741   C1    1     HEX   C0    1     0.0000  72.0000 
1742   C1    1     HB    S1    2     0.0000  56.0000 
1743   C1    1     HB    S2    3     0.0000  56.0000 
1744   C1    1     HB    S3    4     0.0000  56.0000 
1745   C1    1     HB    S4    5     0.0000  56.0000 
1746   C1    1     HB    S5    6     0.0000  56.0000 
1747   C1    1     HB    S6    7     0.0000  56.0000 
1748   C1    1     HEX   C0    1     0.0000  72.0000 
1749   C1    1     HB    S1    2     0.0000  56.0000 
1750   C1    1     HB    S2    3     0.0000  56.0000 
1751   C1    1     HB    S3    4     0.0000  56.0000 
1752   C1    1     HB    S4    5     0.0000  56.0000 
1753   C1    1     HB    S5    6     0.0000  56.0000 
1754   C1    1     HB    S6    7     0.0000  56.0000 
1755   C1    1     HEX   C0    1     0.0000  72.0000 
1756   C1    1     HB    S1    2     0.0000  56.0000 
1757   C1    1     HB    S2    3     0.0000  56.0000 
1758   C1    1     HB    S3    4     0.0000  56.0000 
1759   C1    1     HB    S4    5     0.0000  56.0000 
1760   C1    1     HB    S5    6     0.0000  56.0000 
1761   C1    1     HB    S6    7     0.0000  56.0000 
1762   C1    1     HEX   C0    1     0.0000  72.0000 
1763   C1    1     HB    S1    2     0.0000  56.0000 
1764   C1    1     HB    S2    3     0.0000  56.0000 
1765   C1    1     HB    S3    4     0.0000  56.0000 
1766   C1    1     HB    S4    5     0.0000  56.0000 
1767   C1    1     HB    S5    6     0.0000  56.0000 
1768   C1    1     HB    S6    7     0.0000  56.0000 
1769   C1    1     HEX   C0    1     0.0000  72.0000 
1770   C1    1     HB    S1    2     0.0000  56.0000 
1771   C1    1     HB    S2    3     0.0000  56.0000 
1772   C1    1     HB    S3    4     0.0000  56.0000 
1773   C1    1     HB    S4    5     0.0000  56.0000 
1774   C1    1     HB    S5    6     0.0000  56.0000 
1775   C1    1     HB    S6    7     0.0000  56.0000 
1776   C1    1     HEX   C0    1     0.0000  72.0000 
1777   C1    1     HB    S1    2     0.0000  56.0000 
1778   C1    1     HB    S2    3     0.0000  56.0000 
1779   C1    1     HB    S3    4     0.0000  56.0000 
1780   C1    1     HB    S4    5     0.0000  56.0000 
1781   C1    1     HB    S5    6     0.0000  56.0000 
1782   C1    1     HB    S6    7     0.0000  56.0000 
1783   C1    1     HEX   C0    1     0.0000  72.0000 
1784   C1    1     HB    S1    2     0.0000  56.0000 
1785   C1    1     HB    S2    3     0.0000  56.0000 
1786   C1    1     HB    S3    4     0.0000  56.0000 
1787   C1    1     HB    S4    5     0.0000  56.0000 
1788   C1    1     HB    S5    6     0.0000  56.0000 
1789   C1    1     HB    S6    7     0.0000  56.0000 
1790   C1    1     HEX   C0    1     0.0000  72.0000 
1791   C1    1     HB    S1    2     0.0000  56.0000 
1792   C1    1     HB    S2    3     0.0000  56.0000 
1793   C1    1     HB    S3    4     0.0000  56.0000 
1794   C1    1     HB    S4    5     0.0000  56.0000 
1795   C1    1     HB    S5    6     0.0000  56.0000 
1796   C1    1     HB    S6    7     0.0000  56.0000 
1797   C1    1     HEX   C0    1     0.0000  72.0000 
1798   C1    1     HB    S1    2     0.0000  56.0000 
1799   C1    1     HB    S2    3     0.0000  56.0000 
1800   C1    1     HB    S3    4     0.0000  56.0000 
1801   C1    1     HB    S4    5     0.0000  56.0000 
1802   C1    1     HB    S5    6     0.0000  56.0000 
1803   C1    1     HB    S6    7     0.0000  56.0000 
1804   C1    1     HEX   C0    1     0.0000  72.0000 
1805   C1    1     HB    S1    2     0.0000  56.0000 
1806   C1    1     HB    S2    3     0.0000  56.0000 
1807   C1    1     HB    S3    4     0.0000  56.0000 
1808   C1    1     HB    S4    5     0.0000  56.0000 
1809   C1    1     HB    S5    6     0.0000  56.0000 
1810   C1    1     HB    S6    7     0.0000  56.0000 
1811   C1    1     HEX   C0    1     0.0000  72.0000 
1812   C1    1     HB    S1    2     0.0000  56.0000 
1813   C1    1     HB    S2    3     0.0000  56.0000 
1814   C1    1     HB    S3    4     0.0000  56.0000 
1815   C1    1     HB    S4    5     0.0000  56.0000 
1816   C1    1     HB    S5    6     0.0000  56.0000 
1817   C1    1     HB    S6    7     0.0000  56.0000 
1818   C1    1     HEX   C0    1     0.0000  72.0000 
1819   C1    1     HB    S1    2     0.0000  56.0000 
1820   C1    1     HB    S2    3     0.0000  56.0000 
1821   C1    1     HB    S3    4     0.0000  56.0000 
1822   C1    1     HB    S4    5     0.0000  56.0000 
1823   C1    1     HB    S5    6     0.0000  56.0000 
1824   C1    1     HB    S6    7     0.0000  56.0000 
1825   C1    1     HEX   C0    1     0.0000  72.0000 
1826   C1    1     HB    S1    2     0.0000  56.0000 
1827   C1    1     HB    S2    3     0.0000  56.0000 
1828   C1    1     HB    S3    4     0.0000  56.0000 
1829   C1    1     HB    S4    5     0.0000  56.0000 
1830   C1    1     HB    S5    6     0.0000  56.0000 
1831   C1    1     HB    S6    7     0.0000  56.0000 
1832   C1    1     HEX   C0    1     0.0000  72.0000 
1833   C1    1     HB    S1    2     0.0000  56.0000 
1834   C1    1     HB    S2    3     0.0000  56.0000 
1835   C1    1     HB    S3    4     0.0000  56.0000 
1836   C1    1     HB    S4    5     0.0000  56.0000 
1837   C1    1     HB    S5    6     0.0000  56.0000 
1838   C1    1     HB    S6    7     0.0000  56.0000 
1839   C1    1     HEX   C0    1     0.0000  72.0000 
1840   C1    1     HB    S1    2     0.0000  56.0000 
1841   C1    1     HB    S2    3     0.0000  56.0000 
1842   C1    1     HB    S3    4     0.0000  56.0000 
1843   C1    1     HB    S4    5     0.0000  56.0000 
1844   C1    1     HB    S5    6     0.0000  56.0000 
1845   C1    1     HB    S6    7     0.0000  56.0000 
1846   C1    1     HEX   C0    1     0.0000  72.0000 
1847   C1    1     HB    S1    2     0.0000  56.0000 
1848   C1    1     HB    S2    3     0.0000  56.0000 
1849   C1    1     HB    S3    4     0.0000  56.0000 
1850   C1    1     HB    S4    5     0.0000  56.0000 
1851   C1    1     HB    S5    6     0.0000  56.0000 
1852   C1    1     HB    S6    7     0.0000  56.0000 
1853   C1    1     HEX   C0    1     0.0000  72.0000 
1854   C1    1     HB    S1    2     0.0000  56.0000 
1855   C1    1     HB    S2    3     0.0000  56.0000 
1856   C1    1     HB    S3    4     0.0000  56.0000 
1857   C1    1     HB    S4    5     0.0000  56.0000 
1858   C1    1     HB    S5    6     0.0000  56.0000 
1859   C1    1     HB    S6    7     0.0000  56.0000 
1860   C1    1     HEX   C0    1     0.0000  72.0000 
1861   C1    1     HB    S1    2     0.0000  56.0000 
1862   C1    1     HB    S2    3     0.0000  56.0000 
1863   C1    1     HB    S3    4     0.0000  56.0000 
1864   C1    1     HB    S4    5     0.0000  56.0000 
1865   C1    1     HB    S5    6     0.0000  56.0000 
1866   C1    1     HB    S6    7     0.0000  56.0000 
1867   C1    1     HEX   C0    1     0.0000  72.0000 
1868   C1    1     HB    S1    2     0.0000  56.0000 
1869   C1    1     HB    S2    3     0.0000  56.0000 
1870   C1    1     HB    S3    4     0.0000  56.0000 
1871   C1    1     HB    S4    5     0.0000  56.0000 
1872   C1    1     HB    S5    6     0.0000  56.0000 
1873   C1    1     HB    S6    7     0.0000  56.0000 
1874   C1    1     HEX   C0    1     0.0000  72.0000 
1875   C1    1     HB    S1    2     0.0000  56.0000 
1876   C1    1     HB    S2    3     0.0000  56.0000 
1877   C1    1     HB    S3    4     0.0000  56.0000 
1878   C1    1     HB    S4    5     0.0000  56.0000 
1879   C1    1     HB    S5    6     0.0000  56.0000 
1880   C1    1     HB    S6    7     0.0000  56.0000 
1881   C1    1     HEX   C0    1     0.0000  72.0000 
1882   C1    1     HB    S1    2     0.0000  56.0000 
1883   C1    1     HB    S2    3     0.0000  56.0000 
1884   C1    1     HB    S3    4     0.0000  56.0000 
1885   C1    1     HB    S4    5     0.0000  56.0000 
1886   C1    1     HB    S5    6     0.0000  56.0000 
1887   C1    1     HB    S6    7     0.0000  56.0000 
1888   C1    1     HEX   C0    1     0.0000  72.0000 
1889   C1    1     HB    S1    2     0.0000  56.0000 
1890   C1    1     HB    S2    3     0.0000  56.0000 
1891   C1    1     HB    S3    4     0.0000  56.0000 
1892   C1    1     HB    S4    5     0.0000  56.0000 
1893   C1    1     HB    S5    6     0.0000  56.0000 
1894   C1    1     HB    S6    7     0.0000  56.0000 
1895   C1    1     HEX   C0    1     0.0000  72.0000 
1896   C1    1     HB    S1    2     0.0000  56.0000 
1897   C1    1     HB    S2    3     0.0000  56.0000 
1898   C1    1     HB    S3    4     0.0000  56.0000 
1899   C1    1     HB    S4    5     0.0000  56.0000 
1900   C1    1     HB    S5    6     0.0000  56.0000 
1901   C1    1     HB    S6    7     0.0000  56.0000 
1902   C1    1     HEX   C0    1     0.0000  72.0000 
1903   C1    1     HB    S1    2     0.0000  56.0000 
1904   C1    1     HB    S2    3     0.0000  56.0000 
1905   C1    1     HB    S3    4     0.0000  56.0000 
1906   C1    1     HB    S4    5     0.0000  56.0000 
1907   C1    1     HB    S5    6     0.0000  56.0000 
1908   C1    1     HB    S6    7     0.0000  56.0000 
1909   C1    1     HEX   C0    1     0.0000  72.0000 
1910   C1    1     HB    S1    2     0.0000  56.0000 
1911   C1    1     HB    S2    3     0.0000  56.0000 
1912   C1    1     HB    S3    4     0.0000  56.0000 
1913   C1    1     HB    S4    5     0.0000  56.0000 
1914   C1    1     HB    S5    6     0.0000  56.0000 
1915   C1    1     HB    S6    7     0.0000  56.0000 
1916   C1    1     HEX   C0    1     0.0000  72.0000 
1917   C1    1     HB    S1    2     0.0000  56.0000 
1918   C1    1     HB    S2    3     0.0000  56.0000 
1919   C1    1     HB    S3    4     0.0000  56.0000 
1920   C1    1     HB    S4    5     0.0000  56.0000 
1921   C1    1     HB    S5    6     0.0000  56.0000 
1922   C1    1     HB    S6    7     0.0000  56.0000 
1923   C1    1     HEX   C0    1     0.0000  72.0000 
1924   C1    1     HB    S1    2     0.0000  56.0000 
1925   C1    1     HB    S2    3     0.0000  56.0000 
1926   C1    1     HB    S3    4     0.0000  56.0000 
1927   C1    1     HB    S4    5     0.0000  56.0000 
1928   C1    1     HB    S5    6     0.0000  56.0000 
1929   C1    1     HB    S6    7     0.0000  56.0000 
1930   C1    1     HEX   C0    1     0.0000  72.0000 
1931   C1    1     HB    S1    2     0.0000  56.0000 
1932   C1    1     HB    S2    3     0.0000  56.0000 
1933   C1    1     HB    S3    4     0.0000  56.0000 
1934   C1    1     HB    S4    5     0.0000  56.0000 
1935   C1    1     HB    S5    6     0.0000  56.0000 
1936   C1    1     HB    S6    7     0.0000  56.0000 
1937   C1    1     HEX   C0    1     0.0000  72.0000 
1938   C1    1     HB    S1    2     0.0000  56.0000 
1939   C1    1     HB    S2    3     0.0000  56.0000 
1940   C1    1     HB    S3    4     0.0000  56.0000 
1941   C1    1     HB    S4    5     0.0000  56.0000 
1942   C1    1     HB    S5    6     0.0000  56.0000 
1943   C1    1     HB    S6    7     0.0000  56.0000 
1944   C1    1     HEX   C0    1     0.0000  72.0000 
1945   C1    1     HB    S1    2     0.0000  56.0000 
1946   C1    1     HB    S2    3     0.0000  56.0000 
1947   C1    1     HB    S3    4     0.0000  56.0000 
1948   C1    1     HB    S4    5     0.0000  56.0000 
1949   C1    1     HB    S5    6     0.0000  56.0000 
1950   C1    1     HB    S6    7     0.0000  56.0000 
1951   C1    1     HEX   C0    1     0.0000  72.0000 
1952   C1    1     HB    S1    2     0.0000  56.0000 
1953   C1    1     HB    S2    3     0.0000  56.0000 
1954   C1    1     HB    S3    4     0.0000  56.0000 
1955   C1    1     HB    S4    5     0.0000  56.0000 
1956   C1    1     HB    S5    6     0.0000  56.0000 
1957   C1    1     HB    S6    7     0.0000  56.0000 
1958   C1    1     HEX   C0    1     0.0000  72.0000 
1959   C1    1     HB    S1    2     0.0000  56.0000 
1960   C1    1     HB    S2    3     0.0000  56.0000 
1961   C1    1     HB    S3    4     0.0000  56.0000 
1962   C1    1     HB    S4    5     0.0000  56.0000 
1963   C1    1     HB    S5    6     0.0000  56.0000 
1964   C1    1     HB    S6    7     0.0000  56.0000 
1965   C1    1     HEX   C0    1     0.0000  72.0000 
1966   C1    1     HB    S1    2     0.0000  56.0000 
1967   C1    1     HB    S2    3     0.0000  56.0000 
1968   C1    1     HB    S3    4     0.0000  56.0000 
1969   C1    1     HB    S4    5     0.0000  56.0000 
1970   C1    1     HB    S5    6     0.0000  56.0000 
1971   C1    1     HB    S6    7     0.0000  56.0000 
1972   C1    1     HEX   C0    1     0.0000  72.0000 
1973   C1    1     HB    S1    2     0.0000  56.0000 
1974   C1    1     HB    S2    3     0.0000  56.0000 
1975   C1    1     HB    S3    4     0.0000  56.0000 
1976   C1    1     HB    S4    5     0.0000  56.0000 
1977   C1    1     HB    S5    6     0.0000  56.0000 
1978   C1    1     HB    S6    7     0.0000  56.0000 
1979   C1    1     HEX   C0    1     0.0000  72.0000 
1980   C1    1     HB    S1    2     0.0000  56.0000 
1981   C1    1     HB    S2    3     0.0000  56.0000 
1982   C1    1     HB    S3    4     0.0000  56.0000 
1983   C1    1     HB    S4    5     0.0000  56.0000 
1984   C1    1     HB    S5    6     0.0000  56.0000 
1985   C1    1     HB    S6    7     0.0000  56.0000 
1986   C1    1     HEX   C0    1     0.0000  72.0000 
1987   C1    1     HB    S1    2     0.0000  56.0000 
1988   C1    1     HB    S2    3     0.0000  56.0000 
1989   C1    1     HB    S3    4     0.0000  56.0000 
1990   C1    1     HB    S4    5     0.0000  56.0000 
1991   C1    1     HB    S5    6     0.0000  56.0000 
1992   C1    1     HB    S6    7     0.0000  56.0000 
1993   C1    1     HEX   C0    1     0.0000  72.0000 
1994   C1    1     HB    S1    2     0.0000  56.0000 
1995   C1    1     HB    S2    3     0.0000  56.0000 
1996   C1    1     HB    S3    4     0.0000  56.0000 
1997   C1    1     HB    S4    5     0.0000  56.0000 
1998   C1    1     HB    S5    6     0.0000  56.0000 
1999   C1    1     HB    S6    7     0.0000  56.0000 
2000   C1    1     HEX   C0    1     0.0000  72.0000 
2001   C1    1     HB    S1    2     0.0000  56.0000 
2002   C1    1     HB    S2    3     0.0000  56.0000 
2003   C1    1     HB    S3    4     0.0000  56.0000 
2004   C1    1     HB    S4    5     0.0000  56.0000 
2005   C1    1     HB    S5    6     0.0000  56.0000 
2006   C1    1     HB    S6    7     0.0000  56.0000 
2007   C1    1     HEX   C0    1     0.0000  72.0000 
2008   C1    1     HB    S1    2     0.0000  56.0000 
2009   C1    1     HB    S2    3     0.0000  56.0000 
2010   C1    1     HB    S3    4     0.0000  56.0000 
2011   C1    1     HB    S4    5     0.0000  56.0000 
2012   C1    1     HB    S5    6     0.0000  56.0000 
2013   C1    1     HB    S6    7     0.0000  56.0000 
2014   C1    1     HEX   C0    1     0.0000  72.0000 
2015   C1    1     HB    S1    2     0.0000  56.0000 
2016   C1    1     HB    S2    3     0.0000  56.0000 
2017   C1    1     HB    S3    4     0.0000  56.0000 
2018   C1    1     HB    S4    5     0.0000  56.0000 
2019   C1    1     HB    S5    6     0.0000  56.0000 
2020   C1    1     HB    S6    7     0.0000  56.0000 
2021   C1    1     HEX   C0    1     0.0000  72.0000 
2022   C1    1     HB    S1    2     0.0000  56.0000 
2023   C1    1     HB    S2    3     0.0000  56.0000 
2024   C1    1     HB    S3    4     0.0000  56.0000 
2025   C1    1     HB    S4    5     0.0000  56.0000 
2026   C1    1     HB    S5    6     0.0000  56.0000 
2027   C1    1     HB    S6    7     0.0000  56.0000 
2028   C1    1     HEX   C0    1     0.0000  72.0000 
2029   C1    1     HB    S1    2     0.0000  56.0000 
2030   C1    1     HB    S2    3     0.0000  56.0000 
2031   C1    1     HB    S3    4     0.0000  56.0000 
2032   C1    1     HB    S4    5     0.0000  56.0000 
2033   C1    1     HB    S5    6     0.0000  56.0000 
2034   C1    1     HB    S6    7     0.0000  56.0000 
2035   C1    1     HEX   C0    1     0.0000  72.0000 
2036   C1    1     HB    S1    2     0.0000  56.0000 
2037   C1    1     HB    S2    3     0.0000  56.0000 
2038   C1    1     HB    S3    4     0.0000  56.0000 
2039   C1    1     HB    S4    5     0.0000  56.0000 
2040   C1    1     HB    S5    6     0.0000  56.0000 
2041   C1    1     HB    S6    7     0.0000  56.0000 
2042   C1    1     HEX   C0    1     0.0000  72.0000 
2043   C1    1     HB    S1    2     0.0000  56.0000 
2044   C1    1     HB    S2    3     0.0000  56.0000 
2045   C1    1     HB    S3    4     0.0000  56.0000 
2046   C1    1     HB    S4    5     0.0000  56.0000 
2047   C1    1     HB    S5    6     0.0000  56.0000 
2048   C1    1     HB    S6    7     0.0000  56.0000 
2049   C1    1     HEX   C0    1     0.0000  72.0000 
2050   C1    1     HB    S1    2     0.0000  56.0000 
2051   C1    1     HB    S2    3     0.0000  56.0000 
2052   C1    1     HB    S3    4     0.0000  56.0000 
2053   C1    1     HB    S4    5     0.0000  56.0000 
2054   C1    1     HB    S5    6     0.0000  56.0000 
2055   C1    1     HB    S6    7     0.0000  56.0000 
2056   C1    1     HEX   C0    1     0.0000  72.0000 
2057   C1    1     HB    S1    2     0.0000  56.0000 
2058   C1    1     HB    S2    3     0.0000  56.0000 
2059   C1    1     HB    S3    4     0.0000  56.0000 
2060   C1    1     HB    S4    5     0.0000  56.0000 
2061   C1    1     HB    S5    6     0.0000  56.0000 
2062   C1    1     HB    S6    7     0.0000  56.0000 
2063   C1    1     HEX   C0    1     0.0000  72.0000 
2064   C1    1     HB    S1    2     0.0000  56.0000 
2065   C1    1     HB    S2    3     0.0000  56.0000 
2066   C1    1     HB    S3    4     0.0000  56.0000 
2067   C1    1     HB    S4    5     0.0000  56.0000 
2068   C1    1     HB    S5    6     0.0000  56.0000 
2069   C1    1     HB    S6    7     0.0000  56.0000 
2070   C1    1     HEX   C0    1     0.0000  72.0000 
2071   C1    1     HB    S1    2     0.0000  56.0000 
2072   C1    1     HB    S2    3     0.0000  56.0000 
2073   C1    1     HB    S3    4     0.0000  56.0000 
2074   C1    1     HB    S4    5     0.0000  56.0000 
2075   C1    1     HB    S5    6     0.0000  56.0000 
2076   C1    1     HB    S6    7     0.0000  56.0000 
2077   C1    1     HEX   C0    1     0.0000  72.0000 
2078   C1    1     HB    S1    2     0.0000  56.0000 
2079   C1    1     HB    S2    3     0.0000  56.0000 
2080   C1    1     HB    S3    4     0.0000  56.0000 
2081   C1    1     HB    S4    5     0.0000  56.0000 
2082   C1    1     HB    S5    6     0.0000  56.0000 
2083   C1    1     HB    S6    7     0.0000  56.0000 
2084   C1    1     HEX   C0    1     0.0000  72.0000 
2085   C1    1     HB    S1    2     0.0000  56.0000 
2086   C1    1     HB    S2    3     0.0000  56.0000 
2087   C1    1     HB    S3    4     0.0000  56.0000 
2088   C1    1     HB    S4    5     0.0000  56.0000 
2089   C1    1     HB    S5    6     0.0000  56.0000 
2090   C1    1     HB    S6    7     0.0000  56.0000 
2091   C1    1     HEX   C0    1     0.0000  72.0000 
2092   C1    1     HB    S1    2     0.0000  56.0000 
2093   C1    1     HB    S2    3     0.0000  56.0000 
2094   C1    1     HB    S3    4     0.0000  56.0000 
2095   C1    1     HB    S4    5     0.0000  56.0000 
2096   C1    1     HB    S5    6     0.0000  56.0000 
2097   C1    1     HB    S6    7     0.0000  56.0000 
2098   C1    1     HEX   C0    1     0.0000  72.0000 
2099   C1    1     HB    S1    2     0.0000  56.0000 
2100   C1    1     HB    S2    3     0.0000  56.0000 
2101   C1    1     HB    S3    4     0.0000  56.0000 
2102   C1    1     HB    S4    5     0.0000  56.0000 
2103   C1    1     HB    S5    6     0.0000  56.0000 
2104   C1    1     HB    S6    7     0.0000  56.0000 

[ bonds ]
1  2   1  0.240000 56000.000000
2  3   1  0.240000 56000.000000
3  4   1  0.240000 56000.000000
4  5   1  0.240000 56000.000000
5  6   1  0.240000 56000.000000
6  7   1  0.240000 56000.000000
7  8   1  0.240000 56000.000000
8  9   1  0.240000 56000.000000
9  10   1  0.240000 56000.000000
10  11   1  0.240000 56000.000000
11  12   1  0.240000 56000.000000
12  13   1  0.240000 56000.000000
13  14   1  0.240000 56000.000000
14  15   1  0.240000 56000.000000
15  16   1  0.240000 56000.000000
16  17   1  0.240000 56000.000000
17  18   1  0.240000 56000.000000
19  20   1  0.240000 56000.000000
20  21   1  0.240000 56000.000000
21  22   1  0.240000 56000.000000
22  23   1  0.240000 56000.000000
23  24   1  0.240000 56000.000000
24  25   1  0.240000 56000.000000
25  26   1  0.240000 56000.000000
26  27   1  0.240000 56000.000000
27  28   1  0.240000 56000.000000
28  29   1  0.240000 56000.000000
29  30   1  0.240000 56000.000000
30  31   1  0.240000 56000.000000
31  32   1  0.240000 56000.000000
32  33   1  0.240000 56000.000000
33  34   1  0.240000 56000.000000
34  35   1  0.240000 56000.000000
35  36   1  0.240000 56000.000000
37  38   1  0.240000 56000.000000
38  39   1  0.240000 56000.000000
39  40   1  0.240000 56000.000000
40  41   1  0.240000 56000.000000
41  42   1  0.240000 56000.000000
42  43   1  0.240000 56000.000000
43  44   1  0.240000 56000.000000
44  45   1  0.240000 56000.000000
45  46   1  0.240000 56000.000000
46  47   1  0.240000 56000.000000
47  48   1  0.240000 56000.000000
48  49   1  0.240000 56000.000000
49  50   1  0.240000 56000.000000
50  51   1  0.240000 56000.000000
51  52   1  0.240000 56000.000000
52  53   1  0.240000 56000.000000
53  54   1  0.240000 56000.000000
55  56   1  0.240000 56000.000000
56  57   1  0.240000 56000.000000
57  58   1  0.240000 56000.000000
58  59   1  0.240000 56000.000000
59  60   1  0.240000 56000.000000
60  61   1  0.240000 56000.000000
61  62   1  0.240000 56000.000000
62  63   1  0.240000 56000.000000
63  64   1  0.240000 56000.000000
64  65   1  0.240000 56000.000000
65  66   1  0.240000 56000.000000
66  67   1  0.240000 56000.000000
67  68   1  0.240000 56000.000000
68  69   1  0.240000 56000.000000
69  70   1  0.240000 56000.000000
70  71   1  0.240000 56000.000000
71  72   1  0.240000 56000.000000
73  74   1  0.240000 56000.000000
74  75   1  0.240000 56000.000000
75  76   1  0.240000 56000.000000
76  77   1  0.240000 56000.000000
77  78   1  0.240000 56000.000000
78  79   1  0.240000 56000.000000
79  80   1  0.240000 56000.000000
80  81   1  0.240000 56000.000000
81  82   1  0.240000 56000.000000
82  83   1  0.240000 56000.000000
83  84   1  0.240000 56000.000000
84  85   1  0.240000 56000.000000
85  86   1  0.240000 56000.000000
86  87   1  0.240000 56000.000000
87  88   1  0.240000 56000.000000
88  89   1  0.240000 56000.000000
89  90   1  0.240000 56000.000000
91  92   1  0.240000 56000.000000
92  93   1  0.240000 56000.000000
93  94   1  0.240000 56000.000000
94  95   1  0.240000 56000.000000
95  96   1  0.240000 56000.000000
96  97   1  0.240000 56000.000000
97  98   1  0.240000 56000.000000
98  99   1  0.240000 56000.000000
99  100   1  0.240000 56000.000000
100  101   1  0.240000 56000.000000
101  102   1  0.240000 56000.000000
102  103   1  0.240000 56000.000000
103  104   1  0.240000 56000.000000
104  105   1  0.240000 56000.000000
105  106   1  0.240000 56000.000000
106  107   1  0.240000 56000.000000
107  108   1  0.240000 56000.000000
109  110   1  0.240000 56000.000000
110  111   1  0.240000 56000.000000
111  112   1  0.240000 56000.000000
112  113   1  0.240000 56000.000000
113  114   1  0.240000 56000.000000
114  115   1  0.240000 56000.000000
115  116   1  0.240000 56000.000000
116  117   1  0.240000 56000.000000
117  118   1  0.240000 56000.000000
118  119   1  0.240000 56000.000000
119  120   1  0.240000 56000.000000
120  121   1  0.240000 56000.000000
121  122   1  0.240000 56000.000000
122  123   1  0.240000 56000.000000
123  124   1  0.240000 56000.000000
124  125   1  0.240000 56000.000000
125  126   1  0.240000 56000.000000
127  128   1  0.240000 56000.000000
128  129   1  0.240000 56000.000000
129  130   1  0.240000 56000.000000
130  131   1  0.240000 56000.000000
131  132   1  0.240000 56000.000000
132  133   1  0.240000 56000.000000
133  134   1  0.240000 56000.000000
134  135   1  0.240000 56000.000000
135  136   1  0.240000 56000.000000
136  137   1  0.240000 56000.000000
137  138   1  0.240000 56000.000000
138  139   1  0.240000 56000.000000
139  140   1  0.240000 56000.000000
140  141   1  0.240000 56000.000000
141  142   1  0.240000 56000.000000
142  143   1  0.240000 56000.000000
143  144   1  0.240000 56000.000000
145  146   1  0.240000 56000.000000
146  147   1  0.240000 56000.000000
147  148   1  0.240000 56000.000000
148  149   1  0.240000 56000.000000
149  150   1  0.240000 56000.000000
150  151   1  0.240000 56000.000000
151  152   1  0.240000 56000.000000
152  153   1  0.240000 56000.000000
153  154   1  0.240000 56000.000000
154  155   1  0.240000 56000.000000
155  156   1  0.240000 56000.000000
156  157   1  0.240000 56000.000000
157  158   1  0.240000 56000.000000
158  159   1  0.240000 56000.000000
159  160   1  0.240000 56000.000000
160  161   1  0.240000 56000.000000
161  162   1  0.240000 56000.000000
163  164   1  0.240000 56000.000000
164  165   1  0.240000 56000.000000
165  166   1  0.240000 56000.000000
166  167   1  0.240000 56000.000000
167  168   1  0.240000 56000.000000
168  169   1  0.240000 56000.000000
169  170   1  0.240000 56000.000000
170  171   1  0.240000 56000.000000
171  172   1  0.240000 56000.000000
172  173   1  0.240000 56000.000000
173  174   1  0.240000 56000.000000
174  175   1  0.240000 56000.000000
175  176   1  0.240000 56000.000000
176  177   1  0.240000 56000.000000
177  178   1  0.240000 56000.000000
178  179   1  0.240000 56000.000000
179  180   1  0.240000 56000.000000
181  182   1  0.240000 56000.000000
182  183   1  0.240000 56000.000000
183  184   1  0.240000 56000.000000
184  185   1  0.240000 56000.000000
185  186   1  0.240000 56000.000000
186  187   1  0.240000 56000.000000
187  188   1  0.240000 56000.000000
188  189   1  0.240000 56000.000000
189  190   1  0.240000 56000.000000
190  191   1  0.240000 56000.000000
191  192   1  0.240000 56000.000000
192  193   1  0.240000 56000.000000
193  194   1  0.240000 56000.000000
194  195   1  0.240000 56000.000000
195  196   1  0.240000 56000.000000
196  197   1  0.240000 56000.000000
197  198   1  0.240000 56000.000000
199  200   1  0.240000 56000.000000
200  201   1  0.240000 56000.000000
201  202   1  0.240000 56000.000000
202  203   1  0.240000 56000.000000
203  204   1  0.240000 56000.000000
204  205   1  0.240000 56000.000000
205  206   1  0.240000 56000.000000
206  207   1  0.240000 56000.000000
207  208   1  0.240000 56000.000000
208  209   1  0.240000 56000.000000
209  210   1  0.240000 56000.000000
210  211   1  0.240000 56000.000000
211  212   1  0.240000 56000.000000
212  213   1  0.240000 56000.000000
213  214   1  0.240000 56000.000000
214  215   1  0.240000 56000.000000
215  216   1  0.240000 56000.000000
217  218   1  0.240000 56000.000000
218  219   1  0.240000 56000.000000
219  220   1  0.240000 56000.000000
220  221   1  0.240000 56000.000000
221  222   1  0.240000 56000.000000
222  223   1  0.240000 56000.000000
223  224   1  0.240000 56000.000000
224  225   1  0.240000 56000.000000
225  226   1  0.240000 56000.000000
226  227   1  0.240000 56000.000000
227  228   1  0.240000 56000.000000
228  229   1  0.240000 56000.000000
229  230   1  0.240000 56000.000000
230  231   1  0.240000 56000.000000
231  232   1  0.240000 56000.000000
232  233   1  0.240000 56000.000000
233  234   1  0.240000 56000.000000
235  236   1  0.240000 56000.000000
236  237   1  0.240000 56000.000000
237  238   1  0.240000 56000.000000
238  239   1  0.240000 56000.000000
239  240   1  0.240000 56000.000000
240  241   1  0.240000 56000.000000
241  242   1  0.240000 56000.000000
242  243   1  0.240000 56000.000000
243  244   1  0.240000 56000.000000
244  245   1  0.240000 56000.000000
245  246   1  0.240000 56000.000000
246  247   1  0.240000 56000.000000
247  248   1  0.240000 56000.000000
248  249   1  0.240000 56000.000000
249  250   1  0.240000 56000.000000
250  251   1  0.240000 56000.000000
251  252   1  0.240000 56000.000000
253  254   1  0.240000 56000.000000
254  255   1  0.240000 56000.000000
255  256   1  0.240000 56000.000000
256  257   1  0.240000 56000.000000
257  258   1  0.240000 56000.000000
258  259   1  0.240000 56000.000000
259  260   1  0.240000 56000.000000
260  261   1  0.240000 56000.000000
261  262   1  0.240000 56000.000000
262  263   1  0.240000 56000.000000
263  264   1  0.240000 56000.000000
264  265   1  0.240000 56000.000000
265  266   1  0.240000 56000.000000
266  267   1  0.240000 56000.000000
267  268   1  0.240000 56000.000000
268  269   1  0.240000 56000.000000
269  270   1  0.240000 56000.000000
271  272   1  0.240000 56000.000000
272  273   1  0.240000 56000.000000
273  274   1  0.240000 56000.000000
274  275   1  0.240000 56000.000000
275  276   1  0.240000 56000.000000
276  277   1  0.240000 56000.000000
277  278   1  0.240000 56000.000000
278  279   1  0.240000 56000.000000
279  280   1  0.240000 56000.000000
280  281   1  0.240000 56000.000000
281  282   1  0.240000 56000.000000
282  283   1  0.240000 56000.000000
283  284   1  0.240000 56000.000000
284  285   1  0.240000 56000.000000
285  286   1  0.240000 56000.000000
286  287   1  0.240000 56000.000000
287  288   1  0.240000 56000.000000
289  290   1  0.240000 56000.000000
290  291   1  0.240000 56000.000000
291  292   1  0.240000 56000.000000
292  293   1  0.240000 56000.000000
293  294   1  0.240000 56000.000000
294  295   1  0.240000 56000.000000
295  296   1  0.240000 56000.000000
296  297   1  0.240000 56000.000000
297  298   1  0.240000 56000.000000
298  299   1  0.240000 56000.000000
299  300   1  0.240000 56000.000000
300  301   1  0.240000 56000.000000
301  302   1  0.240000 56000.000000
302  303   1  0.240000 56000.000000
303  304   1  0.240000 56000.000000
304  305   1  0.240000 56000.000000
305  306   1  0.240000 56000.000000
307  308   1  0.240000 56000.000000
308  309   1  0.240000 56000.000000
309  310   1  0.240000 56000.000000
310  311   1  0.240000 56000.000000
311  312   1  0.240000 56000.000000
312  313   1  0.240000 56000.000000
313  314   1  0.240000 56000.000000
314  315   1  0.240000 56000.000000
315  316   1  0.240000 56000.000000
316  317   1  0.240000 56000.000000
317  318   1  0.240000 56000.000000
318  319   1  0.240000 56000.000000
319  320   1  0.240000 56000.000000
320  321   1  0.240000 56000.000000
321  322   1  0.240000 56000.000000
322  323   1  0.240000 56000.000000
323  324   1  0.240000 56000.000000
325  326   1  0.240000 56000.000000
326  327   1  0.240000 56000.000000
327  328   1  0.240000 56000.000000
328  329   1  0.240000 56000.000000
329  330   1  0.240000 56000.000000
330  331   1  0.240000 56000.000000
331  332   1  0.240000 56000.000000
332  333   1  0.240000 56000.000000
333  334   1  0.240000 56000.000000
334  335   1  0.240000 56000.000000
335  336   1  0.240000 56000.000000
336  337   1  0.240000 56000.000000
337  338   1  0.240000 56000.000000
338  339   1  0.240000 56000.000000
339  340   1  0.240000 56000.000000
340  341   1  0.240000 56000.000000
341  342   1  0.240000 56000.000000
343  344   1  0.240000 56000.000000
344  345   1  0.240000 56000.000000
345  346   1  0.240000 56000.000000
346  347   1  0.240000 56000.000000
347  348   1  0.240000 56000.000000
348  349   1  0.240000 56000.000000
349  350   1  0.240000 56000.000000
350  351   1  0.240000 56000.000000
351  352   1  0.240000 56000.000000
352  353   1  0.240000 56000.000000
353  354   1  0.240000 56000.000000
354  355   1  0.240000 56000.000000
355  356   1  0.240000 56000.000000
356  357   1  0.240000 56000.000000
357  358   1  0.240000 56000.000000
358  359   1  0.240000 56000.000000
359  360   1  0.240000 56000.000000
361  362   1  0.240000 56000.000000
362  363   1  0.240000 56000.000000
363  364   1  0.240000 56000.000000
364  365   1  0.240000 56000.000000
365  366   1  0.240000 56000.000000
366  367   1  0.240000 56000.000000
367  368   1  0.240000 56000.000000
368  369   1  0.240000 56000.000000
369  370   1  0.240000 56000.000000
370  371   1  0.240000 56000.000000
371  372   1  0.240000 56000.000000
372  373   1  0.240000 56000.000000
373  374   1  0.240000 56000.000000
374  375   1  0.240000 56000.000000
375  376   1  0.240000 56000.000000
376  377   1  0.240000 56000.000000
377  378   1  0.240000 56000.000000
379  380   1  0.240000 56000.000000
380  381   1  0.240000 56000.000000
381  382   1  0.240000 56000.000000
382  383   1  0.240000 56000.000000
383  384   1  0.240000 56000.000000
384  385   1  0.240000 56000.000000
385  386   1  0.240000 56000.000000
386  387   1  0.240000 56000.000000
387  388   1  0.240000 56000.000000
388  389   1  0.240000 56000.000000
389  390   1  0.240000 56000.000000
390  391   1  0.240000 56000.000000
391  392   1  0.240000 56000.000000
392  393   1  0.240000 56000.000000
393  394   1  0.240000 56000.000000
394  395   1  0.240000 56000.000000
395  396   1  0.240000 56000.000000
397  398   1  0.240000 56000.000000
398  399   1  0.240000 56000.000000
399  400   1  0.240000 56000.000000
400  401   1  0.240000 56000.000000
401  402   1  0.240000 56000.000000
402  403   1  0.240000 56000.000000
403  404   1  0.240000 56000.000000
404  405   1  0.240000 56000.000000
405  406   1  0.240000 56000.000000
406  407   1  0.240000 56000.000000
407  408   1  0.240000 56000.000000
408  409   1  0.240000 56000.000000
409  410   1  0.240000 56000.000000
410  411   1  0.240000 56000.000000
411  412   1  0.240000 56000.000000
412  413   1  0.240000 56000.000000
413  414   1  0.240000 56000.000000
415  416   1  0.240000 56000.000000
416  417   1  0.240000 56000.000000
417  418   1  0.240000 56000.000000
418  419   1  0.240000 56000.000000
419  420   1  0.240000 56000.000000
420  421   1  0.240000 56000.000000
421  422   1  0.240000 56000.000000
422  423   1  0.240000 56000.000000
423  424   1  0.240000 56000.000000
424  425   1  0.240000 56000.000000
425  426   1  0.240000 56000.000000
426  427   1  0.240000 56000.000000
427  428   1  0.240000 56000.000000
428  429   1  0.240000 56000.000000
429  430   1  0.240000 56000.000000
430  431   1  0.240000 56000.000000
431  432   1  0.240000 56000.000000
433  434   1  0.240000 56000.000000
434  435   1  0.240000 56000.000000
435  436   1  0.240000 56000.000000
436  437   1  0.240000 56000.000000
437  438   1  0.240000 56000.000000
438  439   1  0.240000 56000.000000
439  440   1  0.240000 56000.000000
440  441   1  0.240000 56000.000000
441  442   1  0.240000 56000.000000
442  443   1  0.240000 56000.000000
443  444   1  0.240000 56000.000000
444  445   1  0.240000 56000.000000
445  446   1  0.240000 56000.000000
446  447   1  0.240000 56000.000000
447  448   1  0.240000 56000.000000
448  449   1  0.240000 56000.000000
449  450   1  0.240000 56000.000000
451  452   1  0.240000 56000.000000
452  453   1  0.240000 56000.000000
453  454   1  0.240000 56000.000000
454  455   1  0.240000 56000.000000
455  456   1  0.240000 56000.000000
456  457   1  0.240000 56000.000000
457  458   1  0.240000 56000.000000
458  459   1  0.240000 56000.000000
459  460   1  0.240000 56000.000000
460  461   1  0.240000 56000.000000
461  462   1  0.240000 56000.000000
462  463   1  0.240000 56000.000000
463  464   1  0.240000 56000.000000
464  465   1  0.240000 56000.000000
465  466   1  0.240000 56000.000000
466  467   1  0.240000 56000.000000
467  468   1  0.240000 56000.000000
469  470   1  0.240000 56000.000000
470  471   1  0.240000 56000.000000
471  472   1  0.240000 56000.000000
472  473   1  0.240000 56000.000000
473  474   1  0.240000 56000.000000
474  475   1  0.240000 56000.000000
475  476   1  0.240000 56000.000000
476  477   1  0.240000 56000.000000
477  478   1  0.240000 56000.000000
478  479   1  0.240000 56000.000000
479  480   1  0.240000 56000.000000
480  481   1  0.240000 56000.000000
481  482   1  0.240000 56000.000000
482  483   1  0.240000 56000.000000
483  484   1  0.240000 56000.000000
484  485   1  0.240000 56000.000000
485  486   1  0.240000 56000.000000
487  488   1  0.240000 56000.000000
488  489   1  0.240000 56000.000000
489  490   1  0.240000 56000.000000
490  491   1  0.240000 56000.000000
491  492   1  0.240000 56000.000000
492  493   1  0.240000 56000.000000
493  494   1  0.240000 56000.000000
494  495   1  0.240000 56000.000000
495  496   1  0.240000 56000.000000
496  497   1  0.240000 56000.000000
497  498   1  0.240000 56000.000000
498  499   1  0.240000 56000.000000
499  500   1  0.240000 56000.000000
500  501   1  0.240000 56000.000000
501  502   1  0.240000 56000.000000
502  503   1  0.240000 56000.000000
503  504   1  0.240000 56000.000000
505  506   1  0.240000 56000.000000
506  507   1  0.240000 56000.000000
507  508   1  0.240000 56000.000000
508  509   1  0.240000 56000.000000
509  510   1  0.240000 56000.000000
510  511   1  0.240000 56000.000000
511  512   1  0.240000 56000.000000
512  513   1  0.240000 56000.000000
513  514   1  0.240000 56000.000000
514  515   1  0.240000 56000.000000
515  516   1  0.240000 56000.000000
516  517   1  0.240000 56000.000000
517  518   1  0.240000 56000.000000
518  519   1  0.240000 56000.000000
519  520   1  0.240000 56000.000000
520  521   1  0.240000 56000.000000
521  522   1  0.240000 56000.000000
523  524   1  0.240000 56000.000000
524  525   1  0.240000 56000.000000
525  526   1  0.240000 56000.000000
526  527   1  0.240000 56000.000000
527  528   1  0.240000 56000.000000
528  529   1  0.240000 56000.000000
529  530   1  0.240000 56000.000000
530  531   1  0.240000 56000.000000
531  532   1  0.240000 56000.000000
532  533   1  0.240000 56000.000000
533  534   1  0.240000 56000.000000
534  535   1  0.240000 56000.000000
535  536   1  0.240000 56000.000000
536  537   1  0.240000 56000.000000
537  538   1  0.240000 56000.000000
538  539   1  0.240000 56000.000000
539  540   1  0.240000 56000.000000
541  542   1  0.240000 56000.000000
542  543   1  0.240000 56000.000000
543  544   1  0.240000 56000.000000
544  545   1  0.240000 56000.000000
545  546   1  0.240000 56000.000000
546  547   1  0.240000 56000.000000
547  548   1  0.240000 56000.000000
548  549   1  0.240000 56000.000000
549  550   1  0.240000 56000.000000
550  551   1  0.240000 56000.000000
551  552   1  0.240000 56000.000000
552  553   1  0.240000 56000.000000
553  554   1  0.240000 56000.000000
554  555   1  0.240000 56000.000000
555  556   1  0.240000 56000.000000
556  557   1  0.240000 56000.000000
557  558   1  0.240000 56000.000000
559  560   1  0.240000 56000.000000
560  561   1  0.240000 56000.000000
561  562   1  0.240000 56000.000000
562  563   1  0.240000 56000.000000
563  564   1  0.240000 56000.000000
564  565   1  0.240000 56000.000000
565  566   1  0.240000 56000.000000
566  567   1  0.240000 56000.000000
567  568   1  0.240000 56000.000000
568  569   1  0.240000 56000.000000
569  570   1  0.240000 56000.000000
570  571   1  0.240000 56000.000000
571  572   1  0.240000 56000.000000
572  573   1  0.240000 56000.000000
573  574   1  0.240000 56000.000000
574  575   1  0.240000 56000.000000
575  576   1  0.240000 56000.000000
577  578   1  0.240000 56000.000000
578  579   1  0.240000 56000.000000
579  580   1  0.240000 56000.000000
580  581   1  0.240000 56000.000000
581  582   1  0.240000 56000.000000
582  583   1  0.240000 56000.000000
583  584   1  0.240000 56000.000000
584  585   1  0.240000 56000.000000
585  586   1  0.240000 56000.000000
586  587   1  0.240000 56000.000000
587  588   1  0.240000 56000.000000
588  589   1  0.240000 56000.000000
589  590   1  0.240000 56000.000000
590  591   1  0.240000 56000.000000
591  592   1  0.240000 56000.000000
592  593   1  0.240000 56000.000000
593  594   1  0.240000 56000.000000
595  596   1  0.240000 56000.000000
596  597   1  0.240000 56000.000000
597  598   1  0.240000 56000.000000
598  599   1  0.240000 56000.000000
599  600   1  0.240000 56000.000000
600  601   1  0.240000 56000.000000
601  602   1  0.240000 56000.000000
602  603   1  0.240000 56000.000000
603  604   1  0.240000 56000.000000
604  605   1  0.240000 56000.000000
605  606   1  0.240000 56000.000000
606  607   1  0.240000 56000.000000
607  608   1  0.240000 56000.000000
608  609   1  0.240000 56000.000000
609  610   1  0.240000 56000.000000
610  611   1  0.240000 56000.000000
611  612   1  0.240000 56000.000000
613  614   1  0.240000 56000.000000
614  615   1  0.240000 56000.000000
615  616   1  0.240000 56000.000000
616  617   1  0.240000 56000.000000
617  618   1  0.240000 56000.000000
618  619   1  0.240000 56000.000000
619  620   1  0.240000 56000.000000
620  621   1  0.240000 56000.000000
621  622   1  0.240000 56000.000000
622  623   1  0.240000 56000.000000
623  624   1  0.240000 56000.000000
624  625   1  0.240000 56000.000000
625  626   1  0.240000 56000.000000
626  627   1  0.240000 56000.000000
627  628   1  0.240000 56000.000000
628  629   1  0.240000 56000.000000
629  630   1  0.240000 56000.000000
631  632   1  0.240000 56000.000000
632  633   1  0.240000 56000.000000
633  634   1  0.240000 56000.000000
634  635   1  0.240000 56000.000000
635  636   1  0.240000 56000.000000
636  637   1  0.240000 56000.000000
637  638   1  0.240000 56000.000000
638  639   1  0.240000 56000.000000
639  640   1  0.240000 56000.000000
640  641   1  0.240000 56000.000000
641  642   1  0.240000 56000.000000
642  643   1  0.240000 56000.000000
643  644   1  0.240000 56000.000000
644  645   1  0.240000 56000.000000
645  646   1  0.240000 56000.000000
646  647   1  0.240000 56000.000000
647  648   1  0.240000 56000.000000
649  650   1  0.240000 56000.000000
650  651   1  0.240000 56000.000000
651  652   1  0.240000 56000.000000
652  653   1  0.240000 56000.000000
653  654   1  0.240000 56000.000000
654  655   1  0.240000 56000.000000
655  656   1  0.240000 56000.000000
656  657   1  0.240000 56000.000000
657  658   1  0.240000 56000.000000
658  659   1  0.240000 56000.000000
659  660   1  0.240000 56000.000000
660  661   1  0.240000 56000.000000
661  662   1  0.240000 56000.000000
662  663   1  0.240000 56000.000000
663  664   1  0.240000 56000.000000
664  665   1  0.240000 56000.000000
665  666   1  0.240000 56000.000000
667  668   1  0.240000 56000.000000
668  669   1  0.240000 56000.000000
669  670   1  0.240000 56000.000000
670  671   1  0.240000 56000.000000
671  672   1  0.240000 56000.000000
672  673   1  0.240000 56000.000000
673  674   1  0.240000 56000.000000
674  675   1  0.240000 56000.000000
675  676   1  0.240000 56000.000000
676  677   1  0.240000 56000.000000
677  678   1  0.240000 56000.000000
678  679   1  0.240000 56000.000000
679  680   1  0.240000 56000.000000
680  681   1  0.240000 56000.000000
681  682   1  0.240000 56000.000000
682  683   1  0.240000 56000.000000
683  684   1  0.240000 56000.000000
685  686   1  0.240000 56000.000000
686  687   1  0.240000 56000.000000
687  688   1  0.240000 56000.000000
688  689   1  0.240000 56000.000000
689  690   1  0.240000 56000.000000
690  691   1  0.240000 56000.000000
691  692   1  0.240000 56000.000000
692  693   1  0.240000 56000.000000
693  694   1  0.240000 56000.000000
694  695   1  0.240000 56000.000000
695  696   1  0.240000 56000.000000
696  697   1  0.240000 56000.000000
697  698   1  0.240000 56000.000000
698  699   1  0.240000 56000.000000
699  700   1  0.240000 56000.000000
700  701   1  0.240000 56000.000000
701  702   1  0.240000 56000.000000
703  704   1  0.240000 56000.000000
704  705   1  0.240000 56000.000000
705  706   1  0.240000 56000.000000
706  707   1  0.240000 56000.000000
707  708   1  0.240000 56000.000000
708  709   1  0.240000 56000.000000
709  710   1  0.240000 56000.000000
710  711   1  0.240000 56000.000000
711  712   1  0.240000 56000.000000
712  713   1  0.240000 56000.000000
713  714   1  0.240000 56000.000000
714  715   1  0.240000 56000.000000
715  716   1  0.240000 56000.000000
716  717   1  0.240000 56000.000000
717  718   1  0.240000 56000.000000
718  719   1  0.240000 56000.000000
719  720   1  0.240000 56000.000000
721  722   1  0.240000 56000.000000
722  723   1  0.240000 56000.000000
723  724   1  0.240000 56000.000000
724  725   1  0.240000 56000.000000
725  726   1  0.240000 56000.000000
726  727   1  0.240000 56000.000000
727  728   1  0.240000 56000.000000
728  729   1  0.240000 56000.000000
729  730   1  0.240000 56000.000000
730  731   1  0.240000 56000.000000
731  732   1  0.240000 56000.000000
732  733   1  0.240000 56000.000000
733  734   1  0.240000 56000.000000
734  735   1  0.240000 56000.000000
735  736   1  0.240000 56000.000000
736  737   1  0.240000 56000.000000
737  738   1  0.240000 56000.000000
739  740   1  0.240000 56000.000000
740  741   1  0.240000 56000.000000
741  742   1  0.240000 56000.000000
742  743   1  0.240000 56000.000000
743  744   1  0.240000 56000.000000
744  745   1  0.240000 56000.000000
745  746   1  0.240000 56000.000000
746  747   1  0.240000 56000.000000
747  748   1  0.240000 56000.000000
748  749   1  0.240000 56000.000000
749  750   1  0.240000 56000.000000
750  751   1  0.240000 56000.000000
751  752   1  0.240000 56000.000000
752  753   1  0.240000 56000.000000
753  754   1  0.240000 56000.000000
754  755   1  0.240000 56000.000000
755  756   1  0.240000 56000.000000
757  758   1  0.240000 56000.000000
758  759   1  0.240000 56000.000000
759  760   1  0.240000 56000.000000
760  761   1  0.240000 56000.000000
761  762   1  0.240000 56000.000000
762  763   1  0.240000 56000.000000
763  764   1  0.240000 56000.000000
764  765   1  0.240000 56000.000000
765  766   1  0.240000 56000.000000
766  767   1  0.240000 56000.000000
767  768   1  0.240000 56000.000000
768  769   1  0.240000 56000.000000
769  770   1  0.240000 56000.000000
770  771   1  0.240000 56000.000000
771  772   1  0.240000 56000.000000
772  773   1  0.240000 56000.000000
773  774   1  0.240000 56000.000000
775  776   1  0.240000 56000.000000
776  777   1  0.240000 56000.000000
777  778   1  0.240000 56000.000000
778  779   1  0.240000 56000.000000
779  780   1  0.240000 56000.000000
780  781   1  0.240000 56000.000000
781  782   1  0.240000 56000.000000
782  783   1  0.240000 56000.000000
783  784   1  0.240000 56000.000000
784  785   1  0.240000 56000.000000
785  786   1  0.240000 56000.000000
786  787   1  0.240000 56000.000000
787  788   1  0.240000 56000.000000
788  789   1  0.240000 56000.000000
789  790   1  0.240000 56000.000000
790  791   1  0.240000 56000.000000
791  792   1  0.240000 56000.000000
793  794   1  0.240000 56000.000000
794  795   1  0.240000 56000.000000
795  796   1  0.240000 56000.000000
796  797   1  0.240000 56000.000000
797  798   1  0.240000 56000.000000
798  799   1  0.240000 56000.000000
799  800   1  0.240000 56000.000000
800  801   1  0.240000 56000.000000
801  802   1  0.240000 56000.000000
802  803   1  0.240000 56000.000000
803  804   1  0.240000 56000.000000
804  805   1  0.240000 56000.000000
805  806   1  0.240000 56000.000000
806  807   1  0.240000 56000.000000
807  808   1  0.240000 56000.000000
808  809   1  0.240000 56000.000000
809  810   1  0.240000 56000.000000
811  812   1  0.240000 56000.000000
812  813   1  0.240000 56000.000000
813  814   1  0.240000 56000.000000
814  815   1  0.240000 56000.000000
815  816   1  0.240000 56000.000000
816  817   1  0.240000 56000.000000
817  818   1  0.240000 56000.000000
818  819   1  0.240000 56000.000000
819  820   1  0.240000 56000.000000
820  821   1  0.240000 56000.000000
821  822   1  0.240000 56000.000000
822  823   1  0.240000 56000.000000
823  824   1  0.240000 56000.000000
824  825   1  0.240000 56000.000000
825  826   1  0.240000 56000.000000
826  827   1  0.240000 56000.000000
827  828   1  0.240000 56000.000000
829  830   1  0.240000 56000.000000
830  831   1  0.240000 56000.000000
831  832   1  0.240000 56000.000000
832  833   1  0.240000 56000.000000
833  834   1  0.240000 56000.000000
834  835   1  0.240000 56000.000000
835  836   1  0.240000 56000.000000
836  837   1  0.240000 56000.000000
837  838   1  0.240000 56000.000000
838  839   1  0.240000 56000.000000
839  840   1  0.240000 56000.000000
840  841   1  0.240000 56000.000000
841  842   1  0.240000 56000.000000
842  843   1  0.240000 56000.000000
843  844   1  0.240000 56000.000000
844  845   1  0.240000 56000.000000
845  846   1  0.240000 56000.000000
847  848   1  0.240000 56000.000000
848  849   1  0.240000 56000.000000
849  850   1  0.240000 56000.000000
850  851   1  0.240000 56000.000000
851  852   1  0.240000 56000.000000
852  853   1  0.240000 56000.000000
853  854   1  0.240000 56000.000000
854  855   1  0.240000 56000.000000
855  856   1  0.240000 56000.000000
856  857   1  0.240000 56000.000000
857  858   1  0.240000 56000.000000
858  859   1  0.240000 56000.000000
859  860   1  0.240000 56000.000000
860  861   1  0.240000 56000.000000
861  862   1  0.240000 56000.000000
862  863   1  0.240000 56000.000000
863  864   1  0.240000 56000.000000
865  866   1  0.240000 56000.000000
866  867   1  0.240000 56000.000000
867  868   1  0.240000 56000.000000
868  869   1  0.240000 56000.000000
869  870   1  0.240000 56000.000000
870  871   1  0.240000 56000.000000
871  872   1  0.240000 56000.000000
872  873   1  0.240000 56000.000000
873  874   1  0.240000 56000.000000
874  875   1  0.240000 56000.000000
875  876   1  0.240000 56000.000000
876  877   1  0.240000 56000.000000
877  878   1  0.240000 56000.000000
878  879   1  0.240000 56000.000000
879  880   1  0.240000 56000.000000
880  881   1  0.240000 56000.000000
881  882   1  0.240000 56000.000000
883  884   1  0.240000 56000.000000
884  885   1  0.240000 56000.000000
885  886   1  0.240000 56000.000000
886  887   1  0.240000 56000.000000
887  888   1  0.240000 56000.000000
888  889   1  0.240000 56000.000000
889  890   1  0.240000 56000.000000
890  891   1  0.240000 56000.000000
891  892   1  0.240000 56000.000000
892  893   1  0.240000 56000.000000
893  894   1  0.240000 56000.000000
894  895   1  0.240000 56000.000000
895  896   1  0.240000 56000.000000
896  897   1  0.240000 56000.000000
897  898   1  0.240000 56000.000000
898  899   1  0.240000 56000.000000
899  900   1  0.240000 56000.000000
901  902   1  0.240000 56000.000000
902  903   1  0.240000 56000.000000
903  904   1  0.240000 56000.000000
904  905   1  0.240000 56000.000000
905  906   1  0.240000 56000.000000
906  907   1  0.240000 56000.000000
907  908   1  0.240000 56000.000000
908  909   1  0.240000 56000.000000
909  910   1  0.240000 56000.000000
910  911   1  0.240000 56000.000000
911  912   1  0.240000 56000.000000
912  913   1  0.240000 56000.000000
913  914   1  0.240000 56000.000000
914  915   1  0.240000 56000.000000
915  916   1  0.240000 56000.000000
916  917   1  0.240000 56000.000000
917  918   1  0.240000 56000.000000
919  920   1  0.240000 56000.000000
920  921   1  0.240000 56000.000000
921  922   1  0.240000 56000.000000
922  923   1  0.240000 56000.000000
923  924   1  0.240000 56000.000000
924  925   1  0.240000 56000.000000
925  926   1  0.240000 56000.000000
926  927   1  0.240000 56000.000000
927  928   1  0.240000 56000.000000
928  929   1  0.240000 56000.000000
929  930   1  0.240000 56000.000000
930  931   1  0.240000 56000.000000
931  932   1  0.240000 56000.000000
932  933   1  0.240000 56000.000000
933  934   1  0.240000 56000.000000
934  935   1  0.240000 56000.000000
935  936   1  0.240000 56000.000000
937  938   1  0.240000 56000.000000
938  939   1  0.240000 56000.000000
939  940   1  0.240000 56000.000000
940  941   1  0.240000 56000.000000
941  942   1  0.240000 56000.000000
942  943   1  0.240000 56000.000000
943  944   1  0.240000 56000.000000
944  945   1  0.240000 56000.000000
945  946   1  0.240000 56000.000000
946  947   1  0.240000 56000.000000
947  948   1  0.240000 56000.000000
948  949   1  0.240000 56000.000000
949  950   1  0.240000 56000.000000
950  951   1  0.240000 56000.000000
951  952   1  0.240000 56000.000000
952  953   1  0.240000 56000.000000
953  954   1  0.240000 56000.000000
955  956   1  0.240000 56000.000000
956  957   1  0.240000 56000.000000
957  958   1  0.240000 56000.000000
958  959   1  0.240000 56000.000000
959  960   1  0.240000 56000.000000
960  961   1  0.240000 56000.000000
961  962   1  0.240000 56000.000000
962  963   1  0.240000 56000.000000
963  964   1  0.240000 56000.000000
964  965   1  0.240000 56000.000000
965  966   1  0.240000 56000.000000
966  967   1  0.240000 56000.000000
967  968   1  0.240000 56000.000000
968  969   1  0.240000 56000.000000
969  970   1  0.240000 56000.000000
970  971   1  0.240000 56000.000000
971  972   1  0.240000 56000.000000
973  974   1  0.240000 56000.000000
974  975   1  0.240000 56000.000000
975  976   1  0.240000 56000.000000
976  977   1  0.240000 56000.000000
977  978   1  0.240000 56000.000000
978  979   1  0.240000 56000.000000
979  980   1  0.240000 56000.000000
980  981   1  0.240000 56000.000000
981  982   1  0.240000 56000.000000
982  983   1  0.240000 56000.000000
983  984   1  0.240000 56000.000000
984  985   1  0.240000 56000.000000
985  986   1  0.240000 56000.000000
986  987   1  0.240000 56000.000000
987  988   1  0.240000 56000.000000
988  989   1  0.240000 56000.000000
989  990   1  0.240000 56000.000000
991  992   1  0.240000 56000.000000
992  993   1  0.240000 56000.000000
993  994   1  0.240000 56000.000000
994  995   1  0.240000 56000.000000
995  996   1  0.240000 56000.000000
996  997   1  0.240000 56000.000000
997  998   1  0.240000 56000.000000
998  999   1  0.240000 56000.000000
999  1000   1  0.240000 56000.000000
1000  1001   1  0.240000 56000.000000
1001  1002   1  0.240000 56000.000000
1002  1003   1  0.240000 56000.000000
1003  1004   1  0.240000 56000.000000
1004  1005   1  0.240000 56000.000000
1005  1006   1  0.240000 56000.000000
1006  1007   1  0.240000 56000.000000
1007  1008   1  0.240000 56000.000000
1009  1010   1  0.240000 56000.000000
1010  1011   1  0.240000 56000.000000
1011  1012   1  0.240000 56000.000000
1012  1013   1  0.240000 56000.000000
1013  1014   1  0.240000 56000.000000
1014  1015   1  0.240000 56000.000000
1015  1016   1  0.240000 56000.000000
1016  1017   1  0.240000 56000.000000
1017  1018   1  0.240000 56000.000000
1018  1019   1  0.240000 56000.000000
1019  1020   1  0.240000 56000.000000
1020  1021   1  0.240000 56000.000000
1021  1022   1  0.240000 56000.000000
1022  1023   1  0.240000 56000.000000
1023  1024   1  0.240000 56000.000000
1024  1025   1  0.240000 56000.000000
1025  1026   1  0.240000 56000.000000
1027  1028   1  0.240000 56000.000000
1028  1029   1  0.240000 56000.000000
1029  1030   1  0.240000 56000.000000
1030  1031   1  0.240000 56000.000000
1031  1032   1  0.240000 56000.000000
1032  1033   1  0.240000 56000.000000
1033  1034   1  0.240000 56000.000000
1034  1035   1  0.240000 56000.000000
1035  1036   1  0.240000 56000.000000
1036  1037   1  0.240000 56000.000000
1037  1038   1  0.240000 56000.000000
1038  1039   1  0.240000 56000.000000
1039  1040   1  0.240000 56000.000000
1040  1041   1  0.240000 56000.000000
1041  1042   1  0.240000 56000.000000
1042  1043   1  0.240000 56000.000000
1043  1044   1  0.240000 56000.000000
1045  1046   1  0.240000 56000.000000
1046  1047   1  0.240000 56000.000000
1047  1048   1  0.240000 56000.000000
1048  1049   1  0.240000 56000.000000
1049  1050   1  0.240000 56000.000000
1050  1051   1  0.240000 56000.000000
1051  1052   1  0.240000 56000.000000
1052  1053   1  0.240000 56000.000000
1053  1054   1  0.240000 56000.000000
1054  1055   1  0.240000 56000.000000
1055  1056   1  0.240000 56000.000000
1056  1057   1  0.240000 56000.000000
1057  1058   1  0.240000 56000.000000
1058  1059   1  0.240000 56000.000000
1059  1060   1  0.240000 56000.000000
1060  1061   1  0.240000 56000.000000
1061  1062   1  0.240000 56000.000000
1063  1064   1  0.240000 56000.000000
1064  1065   1  0.240000 56000.000000
1065  1066   1  0.240000 56000.000000
1066  1067   1  0.240000 56000.000000
1067  1068   1  0.240000 56000.000000
1068  1069   1  0.240000 56000.000000
1069  1070   1  0.240000 56000.000000
1070  1071   1  0.240000 56000.000000
1071  1072   1  0.240000 56000.000000
1072  1073   1  0.240000 56000.000000
1073  1074   1  0.240000 56000.000000
1074  1075   1  0.240000 56000.000000
1075  1076   1  0.240000 56000.000000
1076  1077   1  0.240000 56000.000000
1077  1078   1  0.240000 56000.000000
1078  1079   1  0.240000 56000.000000
1079  1080   1  0.240000 56000.000000
1081  1082   1  0.240000 56000.000000
1082  1083   1  0.240000 56000.000000
1083  1084   1  0.240000 56000.000000
1084  1085   1  0.240000 56000.000000
1085  1086   1  0.240000 56000.000000
1086  1087   1  0.240000 56000.000000
1087  1088   1  0.240000 56000.000000
1088  1089   1  0.240000 56000.000000
1089  1090   1  0.240000 56000.000000
1090  1091   1  0.240000 56000.000000
1091  1092   1  0.240000 56000.000000
1092  1093   1  0.240000 56000.000000
1093  1094   1  0.240000 56000.000000
1094  1095   1  0.240000 56000.000000
1095  1096   1  0.240000 56000.000000
1096  1097   1  0.240000 56000.000000
1097  1098   1  0.240000 56000.000000
1099  1100   1  0.240000 56000.000000
1100  1101   1  0.240000 56000.000000
1101  1102   1  0.240000 56000.000000
1102  1103   1  0.240000 56000.000000
1103  1104   1  0.240000 56000.000000
1104  1105   1  0.240000 56000.000000
1105  1106   1  0.240000 56000.000000
1106  1107   1  0.240000 56000.000000
1107  1108   1  0.240000 56000.000000
1108  1109   1  0.240000 56000.000000
1109  1110   1  0.240000 56000.000000
1110  1111   1  0.240000 56000.000000
1111  1112   1  0.240000 56000.000000
1112  1113   1  0.240000 56000.000000
1113  1114   1  0.240000 56000.000000
1114  1115   1  0.240000 56000.000000
1115  1116   1  0.240000 56000.000000
1117  1118   1  0.240000 56000.000000
1118  1119   1  0.240000 56000.000000
1119  1120   1  0.240000 56000.000000
1120  1121   1  0.240000 56000.000000
1121  1122   1  0.240000 56000.000000
1122  1123   1  0.240000 56000.000000
1123  1124   1  0.240000 56000.000000
1124  1125   1  0.240000 56000.000000
1125  1126   1  0.240000 56000.000000
1126  1127   1  0.240000 56000.000000
1127  1128   1  0.240000 56000.000000
1128  1129   1  0.240000 56000.000000
1129  1130   1  0.240000 56000.000000
1130  1131   1  0.240000 56000.000000
1131  1132   1  0.240000 56000.000000
1132  1133   1  0.240000 56000.000000
1133  1134   1  0.240000 56000.000000
1135  1136   1  0.240000 56000.000000
1136  1137   1  0.240000 56000.000000
1137  1138   1  0.240000 56000.000000
1138  1139   1  0.240000 56000.000000
1139  1140   1  0.240000 56000.000000
1140  1141   1  0.240000 56000.000000
1141  1142   1  0.240000 56000.000000
1142  1143   1  0.240000 56000.000000
1143  1144   1  0.240000 56000.000000
1144  1145   1  0.240000 56000.000000
1145  1146   1  0.240000 56000.000000
1146  1147   1  0.240000 56000.000000
1147  1148   1  0.240000 56000.000000
1148  1149   1  0.240000 56000.000000
1149  1150   1  0.240000 56000.000000
1150  1151   1  0.240000 56000.000000
1151  1152   1  0.240000 56000.000000
1153  1154   1  0.240000 56000.000000
1154  1155   1  0.240000 56000.000000
1155  1156   1  0.240000 56000.000000
1156  1157   1  0.240000 56000.000000
1157  1158   1  0.240000 56000.000000
1158  1159   1  0.240000 56000.000000
1159  1160   1  0.240000 56000.000000
1160  1161   1  0.240000 56000.000000
1161  1162   1  0.240000 56000.000000
1162  1163   1  0.240000 56000.000000
1163  1164   1  0.240000 56000.000000
1164  1165   1  0.240000 56000.000000
1165  1166   1  0.240000 56000.000000
1166  1167   1  0.240000 56000.000000
1167  1168   1  0.240000 56000.000000
1168  1169   1  0.240000 56000.000000
1169  1170   1  0.240000 56000.000000
1171  1172   1  0.240000 56000.000000
1172  1173   1  0.240000 56000.000000
1173  1174   1  0.240000 56000.000000
1174  1175   1  0.240000 56000.000000
1175  1176   1  0.240000 56000.000000
1176  1177   1  0.240000 56000.000000
1177  1178   1  0.240000 56000.000000
1178  1179   1  0.240000 56000.000000
1179  1180   1  0.240000 56000.000000
1180  1181   1  0.240000 56000.000000
1181  1182   1  0.240000 56000.000000
1182  1183   1  0.240000 56000.000000
1183  1184   1  0.240000 56000.000000
1184  1185   1  0.240000 56000.000000
1185  1186   1  0.240000 56000.000000
1186  1187   1  0.240000 56000.000000
1187  1188   1  0.240000 56000.000000
1189  1190   1  0.240000 56000.000000
1190  1191   1  0.240000 56000.000000
1191  1192   1  0.240000 56000.000000
1192  1193   1  0.240000 56000.000000
1193  1194   1  0.240000 56000.000000
1194  1195   1  0.240000 56000.000000
1195  1196   1  0.240000 56000.000000
1196  1197   1  0.240000 56000.000000
1197  1198   1  0.240000 56000.000000
1198  1199   1  0.240000 56000.000000
1199  1200   1  0.240000 56000.000000
1200  1201   1  0.240000 56000.000000
1201  1202   1  0.240000 56000.000000
1202  1203   1  0.240000 56000.000000
1203  1204   1  0.240000 56000.000000
1204  1205   1  0.240000 56000.000000
1205  1206   1  0.240000 56000.000000
1207  1208   1  0.240000 56000.000000
1208  1209   1  0.240000 56000.000000
1209  1210   1  0.240000 56000.000000
1210  1211   1  0.240000 56000.000000
1211  1212   1  0.240000 56000.000000
1212  1213   1  0.240000 56000.000000
1213  1214   1  0.240000 56000.000000
1214  1215   1  0.240000 56000.000000
1215  1216   1  0.240000 56000.000000
1216  1217   1  0.240000 56000.000000
1217  1218   1  0.240000 56000.000000
1218  1219   1  0.240000 56000.000000
1219  1220   1  0.240000 56000.000000
1220  1221   1  0.240000 56000.000000
1221  1222   1  0.240000 56000.000000
1222  1223   1  0.240000 56000.000000
1223  1224   1  0.240000 56000.000000
1225  1226   1  0.240000 56000.000000
1226  1227   1  0.240000 56000.000000
1227  1228   1  0.240000 56000.000000
1228  1229   1  0.240000 56000.000000
1229  1230   1  0.240000 56000.000000
1230  1231   1  0.240000 56000.000000
1231  1232   1  0.240000 56000.000000
1232  1233   1  0.240000 56000.000000
1233  1234   1  0.240000 56000.000000
1234  1235   1  0.240000 56000.000000
1235  1236   1  0.240000 56000.000000
1236  1237   1  0.240000 56000.000000
1237  1238   1  0.240000 56000.000000
1238  1239   1  0.240000 56000.000000
1239  1240   1  0.240000 56000.000000
1240  1241   1  0.240000 56000.000000
1241  1242   1  0.240000 56000.000000
1243  1244   1  0.240000 56000.000000
1244  1245   1  0.240000 56000.000000
1245  1246   1  0.240000 56000.000000
1246  1247   1  0.240000 56000.000000
1247  1248   1  0.240000 56000.000000
1248  1249   1  0.240000 56000.000000
1249  1250   1  0.240000 56000.000000
1250  1251   1  0.240000 56000.000000
1251  1252   1  0.240000 56000.000000
1252  1253   1  0.240000 56000.000000
1253  1254   1  0.240000 56000.000000
1254  1255   1  0.240000 56000.000000
1255  1256   1  0.240000 56000.000000
1256  1257   1  0.240000 56000.000000
1257  1258   1  0.240000 56000.000000
1258  1259   1  0.240000 56000.000000
1259  1260   1  0.240000 56000.000000
1261  1262   1  0.240000 56000.000000
1262  1263   1  0.240000 56000.000000
1263  1264   1  0.240000 56000.000000
1264  1265   1  0.240000 56000.000000
1265  1266   1  0.240000 56000.000000
1266  1267   1  0.240000 56000.000000
1267  1268   1  0.240000 56000.000000
1268  1269   1  0.240000 56000.000000
1269  1270   1  0.240000 56000.000000
1270  1271   1  0.240000 56000.000000
1271  1272   1  0.240000 56000.000000
1272  1273   1  0.240000 56000.000000
1273  1274   1  0.240000 56000.000000
1274  1275   1  0.240000 56000.000000
1275  1276   1  0.240000 56000.000000
1276  1277   1  0.240000 56000.000000
1277  1278   1  0.240000 56000.000000
1279  1280   1  0.240000 56000.000000
1280  1281   1  0.240000 56000.000000
1281  1282   1  0.240000 56000.000000
1282  1283   1  0.240000 56000.000000
1283  1284   1  0.240000 56000.000000
1284  1285   1  0.240000 56000.000000
1285  1286   1  0.240000 56000.000000
1286  1287   1  0.240000 56000.000000
1287  1288   1  0.240000 56000.000000
1288  1289   1  0.240000 56000.000000
1289  1290   1  0.240000 56000.000000
1290  1291   1  0.240000 56000.000000
1291  1292   1  0.240000 56000.000000
1292  1293   1  0.240000 56000.000000
1293  1294   1  0.240000 56000.000000
1294  1295   1  0.240000 56000.000000
1295  1296   1  0.240000 56000.000000
1297  1298   1  0.240000 56000.000000
1298  1299   1  0.240000 56000.000000
1299  1300   1  0.240000 56000.000000
1300  1301   1  0.240000 56000.000000
1301  1302   1  0.240000 56000.000000
1302  1303   1  0.240000 56000.000000
1303  1304   1  0.240000 56000.000000
1304  1305   1  0.240000 56000.000000
1305  1306   1  0.240000 56000.000000
1306  1307   1  0.240000 56000.000000
1307  1308   1  0.240000 56000.000000
1308  1309   1  0.240000 56000.000000
1309  1310   1  0.240000 56000.000000
1310  1311   1  0.240000 56000.000000
1311  1312   1  0.240000 56000.000000
1312  1313   1  0.240000 56000.000000
1313  1314   1  0.240000 56000.000000
1315  1316   1  0.240000 56000.000000
1316  1317   1  0.240000 56000.000000
1317  1318   1  0.240000 56000.000000
1318  1319   1  0.240000 56000.000000
1319  1320   1  0.240000 56000.000000
1320  1321   1  0.240000 56000.000000
1321  1322   1  0.240000 56000.000000
1322  1323   1  0.240000 56000.000000
1323  1324   1  0.240000 56000.000000
1324  1325   1  0.240000 56000.000000
1325  1326   1  0.240000 56000.000000
1326  1327   1  0.240000 56000.000000
1327  1328   1  0.240000 56000.000000
1328  1329   1  0.240000 56000.000000
1329  1330   1  0.240000 56000.000000
1330  1331   1  0.240000 56000.000000
1331  1332   1  0.240000 56000.000000
1333  1334   1  0.240000 56000.000000
1334  1335   1  0.240000 56000.000000
1335  1336   1  0.240000 56000.000000
1336  1337   1  0.240000 56000.000000
1337  1338   1  0.240000 56000.000000
1338  1339   1  0.240000 56000.000000
1339  1340   1  0.240000 56000.000000
1340  1341   1  0.240000 56000.000000
1341  1342   1  0.240000 56000.000000
1342  1343   1  0.240000 56000.000000
1343  1344   1  0.240000 56000.000000
1344  1345   1  0.240000 56000.000000
1345  1346   1  0.240000 56000.000000
1346  1347   1  0.240000 56000.000000
1347  1348   1  0.240000 56000.000000
1348  1349   1  0.240000 56000.000000
1349  1350   1  0.240000 56000.000000
1351  1352   1  0.240000 56000.000000
1352  1353   1  0.240000 56000.000000
1353  1354   1  0.240000 56000.000000
1354  1355   1  0.240000 56000.000000
1355  1356   1  0.240000 56000.000000
1356  1357   1  0.240000 56000.000000
1357  1358   1  0.240000 56000.000000
1358  1359   1  0.240000 56000.000000
1359  1360   1  0.240000 56000.000000
1360  1361   1  0.240000 56000.000000
1361  1362   1  0.240000 56000.000000
1362  1363   1  0.240000 56000.000000
1363  1364   1  0.240000 56000.000000
1364  1365   1  0.240000 56000.000000
1365  1366   1  0.240000 56000.000000
1366  1367   1  0.240000 56000.000000
1367  1368   1  0.240000 56000.000000
1369  1370   1  0.240000 56000.000000
1370  1371   1  0.240000 56000.000000
1371  1372   1  0.240000 56000.000000
1372  1373   1  0.240000 56000.000000
1373  1374   1  0.240000 56000.000000
1374  1375   1  0.240000 56000.000000
1375  1376   1  0.240000 56000.000000
1376  1377   1  0.240000 56000.000000
1377  1378   1  0.240000 56000.000000
1378  1379   1  0.240000 56000.000000
1379  1380   1  0.240000 56000.000000
1380  1381   1  0.240000 56000.000000
1381  1382   1  0.240000 56000.000000
1382  1383   1  0.240000 56000.000000
1383  1384   1  0.240000 56000.000000
1384  1385   1  0.240000 56000.000000
1385  1386   1  0.240000 56000.000000
1387  1388   1  0.240000 56000.000000
1388  1389   1  0.240000 56000.000000
1389  1390   1  0.240000 56000.000000
1390  1391   1  0.240000 56000.000000
1391  1392   1  0.240000 56000.000000
1392  1393   1  0.240000 56000.000000
1393  1394   1  0.240000 56000.000000
1394  1395   1  0.240000 56000.000000
1395  1396   1  0.240000 56000.000000
1396  1397   1  0.240000 56000.000000
1397  1398   1  0.240000 56000.000000
1398  1399   1  0.240000 56000.000000
1399  1400   1  0.240000 56000.000000
1400  1401   1  0.240000 56000.000000
1401  1402   1  0.240000 56000.000000
1402  1403   1  0.240000 56000.000000
1403  1404   1  0.240000 56000.000000
1405  1406   1  0.240000 56000.000000
1406  1407   1  0.240000 56000.000000
1407  1408   1  0.240000 56000.000000
1408  1409   1  0.240000 56000.000000
1409  1410   1  0.240000 56000.000000
1410  1411   1  0.240000 56000.000000
1411  1412   1  0.240000 56000.000000
1412  1413   1  0.240000 56000.000000
1413  1414   1  0.240000 56000.000000
1414  1415   1  0.240000 56000.000000
1415  1416   1  0.240000 56000.000000
1416  1417   1  0.240000 56000.000000
1417  1418   1  0.240000 56000.000000
1418  1419   1  0.240000 56000.000000
1419  1420   1  0.240000 56000.000000
1420  1421   1  0.240000 56000.000000
1421  1422   1  0.240000 56000.000000
1423  1424   1  0.240000 56000.000000
1424  1425   1  0.240000 56000.000000
1425  1426   1  0.240000 56000.000000
1426  1427   1  0.240000 56000.000000
1427  1428   1  0.240000 56000.000000
1428  1429   1  0.240000 56000.000000
1429  1430   1  0.240000 56000.000000
1430  1431   1  0.240000 56000.000000
1431  1432   1  0.240000 56000.000000
1432  1433   1  0.240000 56000.000000
1433  1434   1  0.240000 56000.000000
1434  1435   1  0.240000 56000.000000
1435  1436   1  0.240000 56000.000000
1436  1437   1  0.240000 56000.000000
1437  1438   1  0.240000 56000.000000
1438  1439   1  0.240000 56000.000000
1439  1440   1  0.240000 56000.000000
1441  1442   1  0.240000 56000.000000
1442  1443   1  0.240000 56000.000000
1443  1444   1  0.240000 56000.000000
1444  1445   1  0.240000 56000.000000
1445  1446   1  0.240000 56000.000000
1446  1447   1  0.240000 56000.000000
1447  1448   1  0.240000 56000.000000
1448  1449   1  0.240000 56000.000000
1449  1450   1  0.240000 56000.000000
1450  1451   1  0.240000 56000.000000
1451  1452   1  0.240000 56000.000000
1452  1453   1  0.240000 56000.000000
1453  1454   1  0.240000 56000.000000
1454  1455   1  0.240000 56000.000000
1455  1456   1  0.240000 56000.000000
1456  1457   1  0.240000 56000.000000
1457  1458   1  0.240000 56000.000000
1459  1460   1  0.240000 56000.000000
1460  1461   1  0.240000 56000.000000
1461  1462   1  0.240000 56000.000000
1462  1463   1  0.240000 56000.000000
1463  1464   1  0.240000 56000.000000
1464  1465   1  0.240000 56000.000000
1465  1466   1  0.240000 56000.000000
1466  1467   1  0.240000 56000.000000
1467  1468   1  0.240000 56000.000000
1468  1469   1  0.240000 56000.000000
1469  1470   1  0.240000 56000.000000
1470  1471   1  0.240000 56000.000000
1471  1472   1  0.240000 56000.000000
1472  1473   1  0.240000 56000.000000
1473  1474   1  0.240000 56000.000000
1474  1475   1  0.240000 56000.000000
1475  1476   1  0.240000 56000.000000
1477  1478   1  0.240000 56000.000000
1478  1479   1  0.240000 56000.000000
1479  1480   1  0.240000 56000.000000
1480  1481   1  0.240000 56000.000000
1481  1482   1  0.240000 56000.000000
1482  1483   1  0.240000 56000.000000
1483  1484   1  0.240000 56000.000000
1484  1485   1  0.240000 56000.000000
1485  1486   1  0.240000 56000.000000
1486  1487   1  0.240000 56000.000000
1487  1488   1  0.240000 56000.000000
1488  1489   1  0.240000 56000.000000
1489  1490   1  0.240000 56000.000000
1490  1491   1  0.240000 56000.000000
1491  1492   1  0.240000 56000.000000
1492  1493   1  0.240000 56000.000000
1493  1494   1  0.240000 56000.000000
1495  1496   1  0.240000 56000.000000
1496  1497   1  0.240000 56000.000000
1497  1498   1  0.240000 56000.000000
1498  1499   1  0.240000 56000.000000
1499  1500   1  0.240000 56000.000000
1500  1501   1  0.240000 56000.000000
1501  1502   1  0.240000 56000.000000
1502  1503   1  0.240000 56000.000000
1503  1504   1  0.240000 56000.000000
1504  1505   1  0.240000 56000.000000
1505  1506   1  0.240000 56000.000000
1506  1507   1  0.240000 56000.000000
1507  1508   1  0.240000 56000.000000
1508  1509   1  0.240000 56000.000000
1509  1510   1  0.240000 56000.000000
1510  1511   1  0.240000 56000.000000
1511  1512   1  0.240000 56000.000000
1513  1514   1  0.240000 56000.000000
1514  1515   1  0.240000 56000.000000
1515  1516   1  0.240000 56000.000000
1516  1517   1  0.240000 56000.000000
1517  1518   1  0.240000 56000.000000
1518  1519   1  0.240000 56000.000000
1519  1520   1  0.240000 56000.000000
1520  1521   1  0.240000 56000.000000
1521  1522   1  0.240000 56000.000000
1522  1523   1  0.240000 56000.000000
1523  1524   1  0.240000 56000.000000
1524  1525   1  0.240000 56000.000000
1525  1526   1  0.240000 56000.000000
1526  1527   1  0.240000 56000.000000
1527  1528   1  0.240000 56000.000000
1528  1529   1  0.240000 56000.000000
1529  1530   1  0.240000 56000.000000
1531  1532   1  0.240000 56000.000000
1532  1533   1  0.240000 56000.000000
1533  1534   1  0.240000 56000.000000
1534  1535   1  0.240000 56000.000000
1535  1536   1  0.240000 56000.000000
1536  1537   1  0.240000 56000.000000
1537  1538   1  0.240000 56000.000000
1538  1539   1  0.240000 56000.000000
1539  1540   1  0.240000 56000.000000
1540  1541   1  0.240000 56000.000000
1541  1542   1  0.240000 56000.000000
1542  1543   1  0.240000 56000.000000
1543  1544   1  0.240000 56000.000000
1544  1545   1  0.240000 56000.000000
1545  1546   1  0.240000 56000.000000
1546  1547   1  0.240000 56000.000000
1547  1548   1  0.240000 56000.000000
1549  1550   1  0.240000 56000.000000
1550  1551   1  0.240000 56000.000000
1551  1552   1  0.240000 56000.000000
1552  1553   1  0.240000 56000.000000
1553  1554   1  0.240000 56000.000000
1554  1555   1  0.240000 56000.000000
1555  1556   1  0.240000 56000.000000
1556  1557   1  0.240000 56000.000000
1557  1558   1  0.240000 56000.000000
1558  1559   1  0.240000 56000.000000
1559  1560   1  0.240000 56000.000000
1560  1561   1  0.240000 56000.000000
1561  1562   1  0.240000 56000.000000
1562  1563   1  0.240000 56000.000000
1563  1564   1  0.240000 56000.000000
1564  1565   1  0.240000 56000.000000
1565  1566   1  0.240000 56000.000000
1567  1568   1  0.240000 56000.000000
1568  1569   1  0.240000 56000.000000
1569  1570   1  0.240000 56000.000000
1570  1571   1  0.240000 56000.000000
1571  1572   1  0.240000 56000.000000
1572  1573   1  0.240000 56000.000000
1573  1574   1  0.240000 56000.000000
1574  1575   1  0.240000 56000.000000
1575  1576   1  0.240000 56000.000000
1576  1577   1  0.240000 56000.000000
1577  1578   1  0.240000 56000.000000
1578  1579   1  0.240000 56000.000000
1579  1580   1  0.240000 56000.000000
1580  1581   1  0.240000 56000.000000
1581  1582   1  0.240000 56000.000000
1582  1583   1  0.240000 56000.000000
1583  1584   1  0.240000 56000.000000
1585  1586   1  0.240000 56000.000000
1586  1587   1  0.240000 56000.000000
1587  1588   1  0.240000 56000.000000
1588  1589   1  0.240000 56000.000000
1589  1590   1  0.240000 56000.000000
1590  1591   1  0.240000 56000.000000
1591  1592   1  0.240000 56000.000000
1592  1593   1  0.240000 56000.000000
1593  1594   1  0.240000 56000.000000
1594  1595   1  0.240000 56000.000000
1595  1596   1  0.240000 56000.000000
1596  1597   1  0.240000 56000.000000
1597  1598   1  0.240000 56000.000000
1598  1599   1  0.240000 56000.000000
1599  1600   1  0.240000 56000.000000
1600  1601   1  0.240000 56000.000000
1601  1602   1  0.240000 56000.000000
1603  1604   1  0.240000 56000.000000
1604  1605   1  0.240000 56000.000000
1605  1606   1  0.240000 56000.000000
1606  1607   1  0.240000 56000.000000
1607  1608   1  0.240000 56000.000000
1608  1609   1  0.240000 56000.000000
1609  1610   1  0.240000 56000.000000
1610  1611   1  0.240000 56000.000000
1611  1612   1  0.240000 56000.000000
1612  1613   1  0.240000 56000.000000
1613  1614   1  0.240000 56000.000000
1614  1615   1  0.240000 56000.000000
1615  1616   1  0.240000 56000.000000
1616  1617   1  0.240000 56000.000000
1617  1618   1  0.240000 56000.000000
1618  1619   1  0.240000 56000.000000
1619  1620   1  0.240000 56000.000000
1621  1622   1  0.240000 56000.000000
1622  1623   1  0.240000 56000.000000
1623  1624   1  0.240000 56000.000000
1624  1625   1  0.240000 56000.000000
1625  1626   1  0.240000 56000.000000
1626  1627   1  0.240000 56000.000000
1627  1628   1  0.240000 56000.000000
1628  1629   1  0.240000 56000.000000
1629  1630   1  0.240000 56000.000000
1630  1631   1  0.240000 56000.000000
1631  1632   1  0.240000 56000.000000
1632  1633   1  0.240000 56000.000000
1633  1634   1  0.240000 56000.000000
1634  1635   1  0.240000 56000.000000
1635  1636   1  0.240000 56000.000000
1636  1637   1  0.240000 56000.000000
1637  1638   1  0.240000 56000.000000
1639  1640   1  0.240000 56000.000000
1640  1641   1  0.240000 56000.000000
1641  1642   1  0.240000 56000.000000
1642  1643   1  0.240000 56000.000000
1643  1644   1  0.240000 56000.000000
1644  1645   1  0.240000 56000.000000
1645  1646   1  0.240000 56000.000000
1646  1647   1  0.240000 56000.000000
1647  1648   1  0.240000 56000.000000
1648  1649   1  0.240000 56000.000000
1649  1650   1  0.240000 56000.000000
1650  1651   1  0.240000 56000.000000
1651  1652   1  0.240000 56000.000000
1652  1653   1  0.240000 56000.000000
1653  1654   1  0.240000 56000.000000
1654  1655   1  0.240000 56000.000000
1655  1656   1  0.240000 56000.000000
1657  1658   1  0.350000 1250.000000
1657  1659   1  0.350000 1250.000000
1657  1660   1  0.350000 1250.000000
1657  1661   1  0.350000 1250.000000
1657  1662   1  0.350000 1250.000000
1657  1663   1  0.350000 1250.000000
1664  1665   1  0.350000 1250.000000
1664  1666   1  0.350000 1250.000000
1664  1667   1  0.350000 1250.000000
1664  1668   1  0.350000 1250.000000
1664  1669   1  0.350000 1250.000000
1664  1670   1  0.350000 1250.000000
1671  1672   1  0.350000 1250.000000
1671  1673   1  0.350000 1250.000000
1671  1674   1  0.350000 1250.000000
1671  1675   1  0.350000 1250.000000
1671  1676   1  0.350000 1250.000000
1671  1677   1  0.350000 1250.000000
1678  1679   1  0.350000 1250.000000
1678  1680   1  0.350000 1250.000000
1678  1681   1  0.350000 1250.000000
1678  1682   1  0.350000 1250.000000
1678  1683   1  0.350000 1250.000000
1678  1684   1  0.350000 1250.000000
1685  1686   1  0.350000 1250.000000
1685  1687   1  0.350000 1250.000000
1685  1688   1  0.350000 1250.000000
1685  1689   1  0.350000 1250.000000
1685  1690   1  0.350000 1250.000000
1685  1691   1  0.350000 1250.000000
1692  1693   1  0.350000 1250.000000
1692  1694   1  0.350000 1250.000000
1692  1695   1  0.350000 1250.000000
1692  1696   1  0.350000 1250.000000
1692  1697   1  0.350000 1250.000000
1692  1698   1  0.350000 1250.000000
1699  1700   1  0.350000 1250.000000
1699  1701   1  0.350000 1250.000000
1699  1702   1  0.350000 1250.000000
1699  1703   1  0.350000 1250.000000
1699  1704   1  0.350000 1250.000000
1699  1705   1  0.350000 1250.000000
1706  1707   1  0.350000 1250.000000
1706  1708   1  0.350000 1250.000000
1706  1709   1  0.350000 1250.000000
1706  1710   1  0.350000 1250.000000
1706  1711   1  0.350000 1250.000000
1706  1712   1  0.350000 1250.000000
1713  1714   1  0.350000 1250.000000
1713  1715   1  0.350000 1250.000000
1713  1716   1  0.350000 1250.000000
1713  1717   1  0.350000 1250.000000
1713  1718   1  0.350000 1250.000000
1713  1719   1  0.350000 1250.000000
1720  1721   1  0.350000 1250.000000
1720  1722   1  0.350000 1250.000000
1720  1723   1  0.350000 1250.000000
1720  1724   1  0.350000 1250.000000
1720  1725   1  0.350000 1250.000000
1720  1726   1  0.350000 1250.000000
1727  1728   1  0.350000 1250.000000
1727  1729   1  0.350000 1250.000000
1727  1730   1  0.350000 1250.000000
1727  1731   1  0.350000 1250.000000
1727  1732   1  0.350000 1250.000000
1727  1733   1  0.350000 1250.000000
1734  1735   1  0.350000 1250.000000
1734  1736   1  0.350000 1250.000000
1734  1737   1  0.350000 1250.000000
1734  1738   1  0.350000 1250.000000
1734  1739   1  0.350000 1250.000000
1734  1740   1  0.350000 1250.000000
1741  1742   1  0.350000 1250.000000
1741  1743   1  0.350000 1250.000000
1741  1744   1  0.350000 1250.000000
1741  1745   1  0.350000 1250.000000
1741  1746   1  0.350000 1250.000000
1741  1747   1  0.350000 1250.000000
1748  1749   1  0.350000 1250.000000
1748  1750   1  0.350000 1250.000000
1748  1751   1  0.350000 1250.000000
1748  1752   1  0.350000 1250.000000
1748  1753   1  0.350000 1250.000000
1748  1754   1  0.350000 1250.000000
1755  1756   1  0.350000 1250.000000
1755  1757   1  0.350000 1250.000000
1755  1758   1  0.350000 1250.000000
1755  1759   1  0.350000 1250.000000
1755  1760   1  0.350000 1250.000000
1755  1761   1  0.350000 1250.000000
1762  1763   1  0.350000 1250.000000
1762  1764   1  0.350000 1250.000000
1762  1765   1  0.350000 1250.000000
1762  1766   1  0.350000 1250.000000
1762  1767   1  0.350000 1250.000000
1762  1768   1  0.350000 1250.000000
1769  1770   1  0.350000 1250.000000
1769  1771   1  0.350000 1250.000000
1769  1772   1  0.350000 1250.000000
1769  1773   1  0.350000 1250.000000
1769  1774   1  0.350000 1250.000000
1769  1775   1  0.350000 1250.000000
1776  1777   1  0.350000 1250.000000
1776  1778   1  0.350000 1250.000000
1776  1779   1  0.350000 1250.000000
1776  1780   1  0.350000 1250.000000
1776  1781   1  0.350000 1250.000000
1776  1782   1  0.350000 1250.000000
1783  1784   1  0.350000 1250.000000
1783  1785   1  0.350000 1250.000000
1783  1786   1  0.350000 1250.000000
1783  1787   1  0.350000 1250.000000
1783  1788   1  0.350000 1250.000000
1783  1789   1  0.350000 1250.000000
1790  1791   1  0.350000 1250.000000
1790  1792   1  0.350000 1250.000000
1790  1793   1  0.350000 1250.000000
1790  1794   1  0.350000 1250.000000
1790  1795   1  0.350000 1250.000000
1790  1796   1  0.350000 1250.000000
1797  1798   1  0.350000 1250.000000
1797  1799   1  0.350000 1250.000000
1797  1800   1  0.350000 1250.000000
1797  1801   1  0.350000 1250.000000
1797  1802   1  0.350000 1250.000000
1797  1803   1  0.350000 1250.000000
1804  1805   1  0.350000 1250.000000
1804  1806   1  0.350000 1250.000000
1804  1807   1  0.350000 1250.000000
1804  1808   1  0.350000 1250.000000
1804  1809   1  0.350000 1250.000000
1804  1810   1  0.350000 1250.000000
1811  1812   1  0.350000 1250.000000
1811  1813   1  0.350000 1250.000000
1811  1814   1  0.350000 1250.000000
1811  1815   1  0.350000 1250.000000
1811  1816   1  0.350000 1250.000000
1811  1817   1  0.350000 1250.000000
1818  1819   1  0.350000 1250.000000
1818  1820   1  0.350000 1250.000000
1818  1821   1  0.350000 1250.000000
1818  1822   1  0.350000 1250.000000
1818  1823   1  0.350000 1250.000000
1818  1824   1  0.350000 1250.000000
1825  1826   1  0.350000 1250.000000
1825  1827   1  0.350000 1250.000000
1825  1828   1  0.350000 1250.000000
1825  1829   1  0.350000 1250.000000
1825  1830   1  0.350000 1250.000000
1825  1831   1  0.350000 1250.000000
1832  1833   1  0.350000 1250.000000
1832  1834   1  0.350000 1250.000000
1832  1835   1  0.350000 1250.000000
1832  1836   1  0.350000 1250.000000
1832  1837   1  0.350000 1250.000000
1832  1838   1  0.350000 1250.000000
1839  1840   1  0.350000 1250.000000
1839  1841   1  0.350000 1250.000000
1839  1842   1  0.350000 1250.000000
1839  1843   1  0.350000 1250.000000
1839  1844   1  0.350000 1250.000000
1839  1845   1  0.350000 1250.000000
1846  1847   1  0.350000 1250.000000
1846  1848   1  0.350000 1250.000000
1846  1849   1  0.350000 1250.000000
1846  1850   1  0.350000 1250.000000
1846  1851   1  0.350000 1250.000000
1846  1852   1  0.350000 1250.000000
1853  1854   1  0.350000 1250.000000
1853  1855   1  0.350000 1250.000000
1853  1856   1  0.350000 1250.000000
1853  1857   1  0.350000 1250.000000
1853  1858   1  0.350000 1250.000000
1853  1859   1  0.350000 1250.000000
1860  1861   1  0.350000 1250.000000
1860  1862   1  0.350000 1250.000000
1860  1863   1  0.350000 1250.000000
1860  1864   1  0.350000 1250.000000
1860  1865   1  0.350000 1250.000000
1860  1866   1  0.350000 1250.000000
1867  1868   1  0.350000 1250.000000
1867  1869   1  0.350000 1250.000000
1867  1870   1  0.350000 1250.000000
1867  1871   1  0.350000 1250.000000
1867  1872   1  0.350000 1250.000000
1867  1873   1  0.350000 1250.000000
1874  1875   1  0.350000 1250.000000
1874  1876   1  0.350000 1250.000000
1874  1877   1  0.350000 1250.000000
1874  1878   1  0.350000 1250.000000
1874  1879   1  0.350000 1250.000000
1874  1880   1  0.350000 1250.000000
1881  1882   1  0.350000 1250.000000
1881  1883   1  0.350000 1250.000000
1881  1884   1  0.350000 1250.000000
1881  1885   1  0.350000 1250.000000
1881  1886   1  0.350000 1250.000000
1881  1887   1  0.350000 1250.000000
1888  1889   1  0.350000 1250.000000
1888  1890   1  0.350000 1250.000000
1888  1891   1  0.350000 1250.000000
1888  1892   1  0.350000 1250.000000
1888  1893   1  0.350000 1250.000000
1888  1894   1  0.350000 1250.000000
1895  1896   1  0.350000 1250.000000
1895  1897   1  0.350000 1250.000000
1895  1898   1  0.350000 1250.000000
1895  1899   1  0.350000 1250.000000
1895  1900   1  0.350000 1250.000000
1895  1901   1  0.350000 1250.000000
1902  1903   1  0.350000 1250.000000
1902  1904   1  0.350000 1250.000000
1902  1905   1  0.350000 1250.000000
1902  1906   1  0.350000 1250.000000
1902  1907   1  0.350000 1250.000000
1902  1908   1  0.350000 1250.000000
1909  1910   1  0.350000 1250.000000
1909  1911   1  0.350000 1250.000000
1909  1912   1  0.350000 1250.000000
1909  1913   1  0.350000 1250.000000
1909  1914   1  0.350000 1250.000000
1909  1915   1  0.350000 1250.000000
1916  1917   1  0.350000 1250.000000
1916  1918   1  0.350000 1250.000000
1916  1919   1  0.350000 1250.000000
1916  1920   1  0.350000 1250.000000
1916  1921   1  0.350000 1250.000000
1916  1922   1  0.350000 1250.000000
1923  1924   1  0.350000 1250.000000
1923  1925   1  0.350000 1250.000000
1923  1926   1  0.350000 1250.000000
1923  1927   1  0.350000 1250.000000
1923  1928   1  0.350000 1250.000000
1923  1929   1  0.350000 1250.000000
1930  1931   1  0.350000 1250.000000
1930  1932   1  0.350000 1250.000000
1930  1933   1  0.350000 1250.000000
1930  1934   1  0.350000 1250.000000
1930  1935   1  0.350000 1250.000000
1930  1936   1  0.350000 1250.000000
1937  1938   1  0.350000 1250.000000
1937  1939   1  0.350000 1250.000000
1937  1940   1  0.350000 1250.000000
1937  1941   1  0.350000 1250.000000
1937  1942   1  0.350000 1250.000000
1937  1943   1  0.350000 1250.000000
1944  1945   1  0.350000 1250.000000
1944  1946   1  0.350000 1250.000000
1944  1947   1  0.350000 1250.000000
1944  1948   1  0.350000 1250.000000
1944  1949   1  0.350000 1250.000000
1944  1950   1  0.350000 1250.000000
1951  1952   1  0.350000 1250.000000
1951  1953   1  0.350000 1250.000000
1951  1954   1  0.350000 1250.000000
1951  1955   1  0.350000 1250.000000
1951  1956   1  0.350000 1250.000000
1951  1957   1  0.350000 1250.000000
1958  1959   1  0.350000 1250.000000
1958  1960   1  0.350000 1250.000000
1958  1961   1  0.350000 1250.000000
1958  1962   1  0.350000 1250.000000
1958  1963   1  0.350000 1250.000000
1958  1964   1  0.350000 1250.000000
1965  1966   1  0.350000 1250.000000
1965  1967   1  0.350000 1250.000000
1965  1968   1  0.350000 1250.000000
1965  1969   1  0.350000 1250.000000
1965  1970   1  0.350000 1250.000000
1965  1971   1  0.350000 1250.000000
1972  1973   1  0.350000 1250.000000
1972  1974   1  0.350000 1250.000000
1972  1975   1  0.350000 1250.000000
1972  1976   1  0.350000 1250.000000
1972  1977   1  0.350000 1250.000000
1972  1978   1  0.350000 1250.000000
1979  1980   1  0.350000 1250.000000
1979  1981   1  0.350000 1250.000000
1979  1982   1  0.350000 1250.000000
1979  1983   1  0.350000 1250.000000
1979  1984   1  0.350000 1250.000000
1979  1985   1  0.350000 1250.000000
1986  1987   1  0.350000 1250.000000
1986  1988   1  0.350000 1250.000000
1986  1989   1  0.350000 1250.000000
1986  1990   1  0.350000 1250.000000
1986  1991   1  0.350000 1250.000000
1986  1992   1  0.350000 1250.000000
1993  1994   1  0.350000 1250.000000
1993  1995   1  0.350000 1250.000000
1993  1996   1  0.350000 1250.000000
1993  1997   1  0.350000 1250.000000
1993  1998   1  0.350000 1250.000000
1993  1999   1  0.350000 1250.000000
2000  2001   1  0.350000 1250.000000
2000  2002   1  0.350000 1250.000000
2000  2003   1  0.350000 1250.000000
2000  2004   1  0.350000 1250.000000
2000  2005   1  0.350000 1250.000000
2000  2006   1  0.350000 1250.000000
2007  2008   1  0.350000 1250.000000
2007  2009   1  0.350000 1250.000000
2007  2010   1  0.350000 1250.000000
2007  2011   1  0.350000 1250.000000
2007  2012   1  0.350000 1250.000000
2007  2013   1  0.350000 1250.000000
2014  2015   1  0.350000 1250.000000
2014  2016   1  0.350000 1250.000000
2014  2017   1  0.350000 1250.000000
2014  2018   1  0.350000 1250.000000
2014  2019   1  0.350000 1250.000000
2014  2020   1  0.350000 1250.000000
2021  2022   1  0.350000 1250.000000
2021  2023   1  0.350000 1250.000000
2021  2024   1  0.350000 1250.000000
2021  2025   1  0.350000 1250.000000
2021  2026   1  0.350000 1250.000000
2021  2027   1  0.350000 1250.000000
2028  2029   1  0.350000 1250.000000
2028  2030   1  0.350000 1250.000000
2028  2031   1  0.350000 1250.000000
2028  2032   1  0.350000 1250.000000
2028  2033   1  0.350000 1250.000000
2028  2034   1  0.350000 1250.000000
2035  2036   1  0.350000 1250.000000
2035  2037   1  0.350000 1250.000000
2035  2038   1  0.350000 1250.000000
2035  2039   1  0.350000 1250.000000
2035  2040   1  0.350000 1250.000000
2035  2041   1  0.350000 1250.000000
2042  2043   1  0.350000 1250.000000
2042  2044   1  0.350000 1250.000000
2042  2045   1  0.350000 1250.000000
2042  2046   1  0.350000 1250.000000
2042  2047   1  0.350000 1250.000000
2042  2048   1  0.350000 1250.000000
2049  2050   1  0.350000 1250.000000
2049  2051   1  0.350000 1250.000000
2049  2052   1  0.350000 1250.000000
2049  2053   1  0.350000 1250.000000
2049  2054   1  0.350000 1250.000000
2049  2055   1  0.350000 1250.000000
2056  2057   1  0.350000 1250.000000
2056  2058   1  0.350000 1250.000000
2056  2059   1  0.350000 1250.000000
2056  2060   1  0.350000 1250.000000
2056  2061   1  0.350000 1250.000000
2056  2062   1  0.350000 1250.000000
2063  2064   1  0.350000 1250.000000
2063  2065   1  0.350000 1250.000000
2063  2066   1  0.350000 1250.000000
2063  2067   1  0.350000 1250.000000
2063  2068   1  0.350000 1250.000000
2063  2069   1  0.350000 1250.000000
2070  2071   1  0.350000 1250.000000
2070  2072   1  0.350000 1250.000000
2070  2073   1  0.350000 1250.000000
2070  2074   1  0.350000 1250.000000
2070  2075   1  0.350000 1250.000000
2070  2076   1  0.350000 1250.000000
2077  2078   1  0.350000 1250.000000
2077  2079   1  0.350000 1250.000000
2077  2080   1  0.350000 1250.000000
2077  2081   1  0.350000 1250.000000
2077  2082   1  0.350000 1250.000000
2077  2083   1  0.350000 1250.000000
2084  2085   1  0.350000 1250.000000
2084  2086   1  0.350000 1250.000000
2084  2087   1  0.350000 1250.000000
2084  2088   1  0.350000 1250.000000
2084  2089   1  0.350000 1250.000000
2084  2090   1  0.350000 1250.000000
2091  2092   1  0.350000 1250.000000
2091  2093   1  0.350000 1250.000000
2091  2094   1  0.350000 1250.000000
2091  2095   1  0.350000 1250.000000
2091  2096   1  0.350000 1250.000000
2091  2097   1  0.350000 1250.000000
2098  2099   1  0.350000 1250.000000
2098  2100   1  0.350000 1250.000000
2098  2101   1  0.350000 1250.000000
2098  2102   1  0.350000 1250.000000
2098  2103   1  0.350000 1250.000000
2098  2104   1  0.350000 1250.000000
235  1661   1  0.470000 1250
433  1662   1  0.470000 1250
1008  1663   1  0.470000 1250
1386  1658   1  0.470000 1250
1602  1659   1  0.470000 1250
450  1670   1  0.470000 1250
847  1669   1  0.470000 1250
414  1676   1  0.470000 1250
1080  1677   1  0.470000 1250
991  1683   1  0.470000 1250
37  1688   1  0.470000 1250
469  1690   1  0.470000 1250
1062  1691   1  0.470000 1250
1  1698   1  0.470000 1250
90  1693   1  0.470000 1250
1063  1696   1  0.470000 1250
55  1702   1  0.470000 1250
109  1703   1  0.470000 1250
343  1700   1  0.470000 1250
487  1701   1  0.470000 1250
1207  1704   1  0.470000 1250
1296  1705   1  0.470000 1250
955  1708   1  0.470000 1250
1009  1707   1  0.470000 1250
1045  1711   1  0.470000 1250
54  1717   1  0.470000 1250
522  1715   1  0.470000 1250
540  1719   1  0.470000 1250
432  1722   1  0.470000 1250
486  1726   1  0.470000 1250
630  1723   1  0.470000 1250
1512  1725   1  0.470000 1250
1621  1724   1  0.470000 1250
523  1739   1  0.470000 1250
882  1736   1  0.470000 1250
1099  1735   1  0.470000 1250
684  1745   1  0.470000 1250
36  1752   1  0.470000 1250
127  1749   1  0.470000 1250
559  1750   1  0.470000 1250
1117  1751   1  0.470000 1250
72  1759   1  0.470000 1250
541  1760   1  0.470000 1250
145  1765   1  0.470000 1250
558  1768   1  0.470000 1250
577  1764   1  0.470000 1250
792  1766   1  0.470000 1250
18  1771   1  0.470000 1250
720  1773   1  0.470000 1250
1135  1775   1  0.470000 1250
973  1781   1  0.470000 1250
1153  1780   1  0.470000 1250
108  1784   1  0.470000 1250
901  1794   1  0.470000 1250
1171  1795   1  0.470000 1250
1351  1791   1  0.470000 1250
1278  1800   1  0.470000 1250
73  1806   1  0.470000 1250
163  1807   1  0.470000 1250
360  1813   1  0.470000 1250
990  1815   1  0.470000 1250
631  1823   1  0.470000 1250
1225  1819   1  0.470000 1250
1260  1821   1  0.470000 1250
648  1829   1  0.470000 1250
1243  1831   1  0.470000 1250
1458  1828   1  0.470000 1250
1620  1826   1  0.470000 1250
342  1833   1  0.470000 1250
667  1838   1  0.470000 1250
1279  1837   1  0.470000 1250
666  1842   1  0.470000 1250
721  1840   1  0.470000 1250
775  1841   1  0.470000 1250
1314  1844   1  0.470000 1250
181  1847   1  0.470000 1250
685  1851   1  0.470000 1250
1224  1850   1  0.470000 1250
1297  1852   1  0.470000 1250
1332  1849   1  0.470000 1250
703  1856   1  0.470000 1250
1188  1859   1  0.470000 1250
1261  1857   1  0.470000 1250
1440  1858   1  0.470000 1250
144  1862   1  0.470000 1250
1369  1866   1  0.470000 1250
1315  1871   1  0.470000 1250
234  1875   1  0.470000 1250
252  1876   1  0.470000 1250
649  1878   1  0.470000 1250
918  1877   1  0.470000 1250
883  1885   1  0.470000 1250
1333  1886   1  0.470000 1250
468  1889   1  0.470000 1250
739  1891   1  0.470000 1250
828  1892   1  0.470000 1250
757  1901   1  0.470000 1250
793  1903   1  0.470000 1250
1494  1906   1  0.470000 1250
1242  1915   1  0.470000 1250
738  1921   1  0.470000 1250
756  1920   1  0.470000 1250
1189  1919   1  0.470000 1250
1387  1917   1  0.470000 1250
126  1925   1  0.470000 1250
253  1924   1  0.470000 1250
289  1928   1  0.470000 1250
198  1933   1  0.470000 1250
1026  1932   1  0.470000 1250
1152  1934   1  0.470000 1250
180  1939   1  0.470000 1250
378  1942   1  0.470000 1250
936  1943   1  0.470000 1250
325  1946   1  0.470000 1250
1423  1950   1  0.470000 1250
217  1956   1  0.470000 1250
324  1957   1  0.470000 1250
1027  1952   1  0.470000 1250
1405  1955   1  0.470000 1250
199  1963   1  0.470000 1250
612  1964   1  0.470000 1250
1116  1960   1  0.470000 1250
702  1969   1  0.470000 1250
1368  1967   1  0.470000 1250
1656  1966   1  0.470000 1250
91  1975   1  0.470000 1250
361  1976   1  0.470000 1250
1170  1974   1  0.470000 1250
1441  1978   1  0.470000 1250
379  1980   1  0.470000 1250
595  1983   1  0.470000 1250
1476  1987   1  0.470000 1250
1477  1989   1  0.470000 1250
1584  1991   1  0.470000 1250
1134  1994   1  0.470000 1250
1639  1997   1  0.470000 1250
451  2002   1  0.470000 1250
829  2003   1  0.470000 1250
1350  2006   1  0.470000 1250
270  2009   1  0.470000 1250
864  2013   1  0.470000 1250
954  2010   1  0.470000 1250
1513  2008   1  0.470000 1250
1548  2012   1  0.470000 1250
306  2016   1  0.470000 1250
504  2015   1  0.470000 1250
972  2017   1  0.470000 1250
1531  2020   1  0.470000 1250
505  2022   1  0.470000 1250
865  2024   1  0.470000 1250
307  2033   1  0.470000 1250
774  2034   1  0.470000 1250
846  2032   1  0.470000 1250
1044  2029   1  0.470000 1250
1404  2030   1  0.470000 1250
1549  2031   1  0.470000 1250
271  2040   1  0.470000 1250
397  2043   1  0.470000 1250
810  2044   1  0.470000 1250
937  2048   1  0.470000 1250
1422  2045   1  0.470000 1250
1530  2046   1  0.470000 1250
1585  2047   1  0.470000 1250
19  2054   1  0.470000 1250
216  2052   1  0.470000 1250
1459  2055   1  0.470000 1250
1603  2051   1  0.470000 1250
1566  2060   1  0.470000 1250
1081  2066   1  0.470000 1250
1206  2065   1  0.470000 1250
1638  2069   1  0.470000 1250
288  2074   1  0.470000 1250
919  2072   1  0.470000 1250
1567  2079   1  0.470000 1250
415  2088   1  0.470000 1250
576  2085   1  0.470000 1250
1495  2089   1  0.470000 1250
162  2092   1  0.470000 1250
396  2093   1  0.470000 1250
613  2097   1  0.470000 1250
811  2094   1  0.470000 1250
594  2099   1  0.470000 1250
900  2100   1  0.470000 1250
1098  2104   1  0.470000 1250

[ constraints ]

[ exclusions ]

[ angles ]

[ dihedrals ]
