
;
; GENERATED BY LigParGen Server
; Jorgensen Lab @ Yale University 
;
[ atomtypes ]
  opls_818  H818     1.0080     0.000    A    2.50000E-01   1.25520E-01
  opls_803  O803    15.9990     0.000    A    2.90000E-01   5.85760E-01
  opls_824  H824     1.0080     0.000    A    2.50000E-01   1.25520E-01
  opls_805  C805    12.0110     0.000    A    3.50000E-01   2.76144E-01
  opls_806  N806    14.0070     0.000    A    3.25000E-01   7.11280E-01
  opls_813  H813     1.0080     0.000    A    2.50000E-01   1.25520E-01
  opls_815  H815     1.0080     0.000    A    2.50000E-01   1.25520E-01
  opls_809  C809    12.0110     0.000    A    3.50000E-01   2.76144E-01
  opls_802  O802    15.9990     0.000    A    2.96000E-01   8.78640E-01
  opls_822  H822     1.0080     0.000    A    2.50000E-01   1.25520E-01
  opls_807  C807    12.0110     0.000    A    3.50000E-01   2.76144E-01
  opls_825  H825     1.0080     0.000    A    2.50000E-01   1.25520E-01
  opls_814  H814     1.0080     0.000    A    2.50000E-01   1.25520E-01
  opls_821  H821     1.0080     0.000    A    2.50000E-01   1.25520E-01
  opls_820  H820     1.0080     0.000    A    2.50000E-01   1.25520E-01
  opls_801  C801    12.0110     0.000    A    3.55000E-01   2.92880E-01
  opls_811  H811     1.0080     0.000    A    2.50000E-01   1.25520E-01
  opls_810  H810     1.0080     0.000    A    2.50000E-01   1.25520E-01
  opls_816  H816     1.0080     0.000    A    2.50000E-01   1.25520E-01
  opls_800  C800    12.0110     0.000    A    3.50000E-01   2.76144E-01
  opls_823  H823     1.0080     0.000    A    2.50000E-01   1.25520E-01
  opls_819  H819     1.0080     0.000    A    2.50000E-01   1.25520E-01
  opls_804  C804    12.0110     0.000    A    3.50000E-01   2.76144E-01
  opls_808  C808    12.0110     0.000    A    3.50000E-01   2.76144E-01
  opls_817  H817     1.0080     0.000    A    2.50000E-01   1.25520E-01
  opls_812  H812     1.0080     0.000    A    2.50000E-01   1.25520E-01
[ moleculetype ]
; Name               nrexcl
UNK                   3
[ atoms ]
;   nr       type  resnr residue  atom   cgnr     charge       mass  
     1   opls_800      1    UNK   C00      1    -0.2251    12.0110 
     2   opls_801      1    UNK   C01      1     0.3844    12.0110 
     3   opls_802      1    UNK   O02      1    -0.3972    15.9990 
     4   opls_803      1    UNK   O03      1    -0.2903    15.9990 
     5   opls_804      1    UNK   C04      1    -0.0053    12.0110 
     6   opls_805      1    UNK   C05      1    -0.1262    12.0110 
     7   opls_806      1    UNK   N06      1    -0.0430    14.0070 
     8   opls_807      1    UNK   C07      1    -0.1526    12.0110 
     9   opls_808      1    UNK   C08      1    -0.1501    12.0110 
    10   opls_809      1    UNK   C09      1    -0.1508    12.0110 
    11   opls_810      1    UNK   H0A      1     0.1297     1.0080 
    12   opls_811      1    UNK   H0B      1     0.1297     1.0080 
    13   opls_812      1    UNK   H0C      1     0.1297     1.0080 
    14   opls_813      1    UNK   H0D      1     0.1197     1.0080 
    15   opls_814      1    UNK   H0E      1     0.1197     1.0080 
    16   opls_815      1    UNK   H0F      1     0.1459     1.0080 
    17   opls_816      1    UNK   H0G      1     0.1459     1.0080 
    18   opls_817      1    UNK   H0H      1     0.1361     1.0080 
    19   opls_818      1    UNK   H0I      1     0.1361     1.0080 
    20   opls_819      1    UNK   H0J      1     0.1361     1.0080 
    21   opls_820      1    UNK   H0K      1     0.1384     1.0080 
    22   opls_821      1    UNK   H0M      1     0.1384     1.0080 
    23   opls_822      1    UNK   H0N      1     0.1384     1.0080 
    24   opls_823      1    UNK   H0O      1     0.1374     1.0080 
    25   opls_824      1    UNK   H0P      1     0.1374     1.0080 
    26   opls_825      1    UNK   H0Q      1     0.1374     1.0080 
[ bonds ]
    2     1     1      0.1522 265265.600
    3     2     1      0.1229 476976.000
    4     2     1      0.1327 179075.200
    5     4     1      0.1410 267776.000
    6     5     1      0.1529 224262.400
    7     6     1      0.1471 307105.600
    8     7     1      0.1471 307105.600
    9     7     1      0.1471 307105.600
   10     7     1      0.1471 307105.600
   11     1     1      0.1090 284512.000
   12     1     1      0.1090 284512.000
   13     1     1      0.1090 284512.000
   14     5     1      0.1090 284512.000
   15     5     1      0.1090 284512.000
   16     6     1      0.1090 284512.000
   17     6     1      0.1090 284512.000
   18     8     1      0.1090 284512.000
   19     8     1      0.1090 284512.000
   20     8     1      0.1090 284512.000
   21     9     1      0.1090 284512.000
   22     9     1      0.1090 284512.000
   23     9     1      0.1090 284512.000
   24    10     1      0.1090 284512.000
   25    10     1      0.1090 284512.000
   26    10     1      0.1090 284512.000

[ angles ]
;  ai    aj    ak funct            c0            c1            c2            c3 
    1     2     3     1    120.400    669.440
    1     2     4     1    111.400    677.808
    2     4     5     1    116.900    694.544
    4     5     6     1    109.500    418.400
    5     6     7     1    111.200    669.440
    6     7     8     1    113.000    418.400
    6     7     9     1    113.000    418.400
    6     7    10     1    113.000    418.400
    2     1    11     1    109.500    292.880
    2     1    12     1    109.500    292.880
    2     1    13     1    109.500    292.880
    4     5    14     1    109.500    292.880
    4     5    15     1    109.500    292.880
    5     6    16     1    110.700    313.800
    5     6    17     1    110.700    313.800
    7     8    18     1    109.500    292.880
    7     8    19     1    109.500    292.880
    7     8    20     1    109.500    292.880
    7     9    21     1    109.500    292.880
    7     9    22     1    109.500    292.880
    7     9    23     1    109.500    292.880
    7    10    24     1    109.500    292.880
    7    10    25     1    109.500    292.880
    7    10    26     1    109.500    292.880
    7     6    17     1    109.500    292.880
   21     9    23     1    107.800    276.144
    9     7    10     1    113.000    418.400
   11     1    13     1    107.800    276.144
   18     8    19     1    107.800    276.144
    8     7    10     1    113.000    418.400
   25    10    26     1    107.800    276.144
    6     5    14     1    110.700    313.800
   16     6    17     1    107.800    276.144
   18     8    20     1    107.800    276.144
    8     7     9     1    113.000    418.400
   14     5    15     1    107.800    276.144
   22     9    23     1    107.800    276.144
   19     8    20     1    107.800    276.144
   24    10    25     1    107.800    276.144
    6     5    15     1    110.700    313.800
   21     9    22     1    107.800    276.144
   11     1    12     1    107.800    276.144
   12     1    13     1    107.800    276.144
    3     2     4     1    123.400    694.544
    7     6    16     1    109.500    292.880
   24    10    26     1    107.800    276.144

[ dihedrals ]
; IMPROPER DIHEDRAL ANGLES 
;  ai    aj    ak    al funct            c0            c1            c2            c3            c4            c5
     4     2     1     3    4        180.000     43.932     2  

[ dihedrals ]
; PROPER DIHEDRAL ANGLES
;  ai    aj    ak    al funct            c0            c1            c2            c3            c4            c5
    6    5    4    2        3      -2.197   5.201   0.527  -3.531  -0.000   0.000
    9    7    6    5        3       3.042  -1.351   0.519  -2.209  -0.000   0.000
   10    7    6    5        3       3.042  -1.351   0.519  -2.209  -0.000   0.000
    8    7    6    5        3       3.042  -1.351   0.519  -2.209  -0.000   0.000
    5    4    2    1        3      31.206  -9.768  -21.439  -0.000  -0.000   0.000
    5    4    2    3        3      21.439   0.000  -21.439  -0.000  -0.000   0.000
   13    1    2    3        3       0.000   0.000   0.000  -0.000  -0.000   0.000
   12    1    2    3        3       0.000   0.000   0.000  -0.000  -0.000   0.000
   11    1    2    3        3       0.000   0.000   0.000  -0.000  -0.000   0.000
   13    1    2    4        3       0.276   0.828   0.000  -1.105  -0.000   0.000
   12    1    2    4        3       0.276   0.828   0.000  -1.105  -0.000   0.000
   11    1    2    4        3       0.276   0.828   0.000  -1.105  -0.000   0.000
   17    6    5   15        3       0.628   1.883   0.000  -2.510  -0.000   0.000
   17    6    5   14        3       0.628   1.883   0.000  -2.510  -0.000   0.000
   16    6    5   15        3       0.628   1.883   0.000  -2.510  -0.000   0.000
   16    6    5   14        3       0.628   1.883   0.000  -2.510  -0.000   0.000
   14    5    6    7        3       0.803   2.410   0.000  -3.213  -0.000   0.000
   15    5    6    7        3       0.803   2.410   0.000  -3.213  -0.000   0.000
   16    6    5    4        3       0.979   2.937   0.000  -3.916  -0.000   0.000
   17    6    5    4        3       0.979   2.937   0.000  -3.916  -0.000   0.000
   23    9    7    8        3       0.632   1.895   0.000  -2.527  -0.000   0.000
   25   10    7    6        3       0.632   1.895   0.000  -2.527  -0.000   0.000
   20    8    7    9        3       0.632   1.895   0.000  -2.527  -0.000   0.000
   16    6    7    8        3       0.632   1.895   0.000  -2.527  -0.000   0.000
   20    8    7    6        3       0.632   1.895   0.000  -2.527  -0.000   0.000
   24   10    7    9        3       0.632   1.895   0.000  -2.527  -0.000   0.000
   25   10    7    9        3       0.632   1.895   0.000  -2.527  -0.000   0.000
   20    8    7   10        3       0.632   1.895   0.000  -2.527  -0.000   0.000
   16    6    7   10        3       0.632   1.895   0.000  -2.527  -0.000   0.000
   19    8    7    9        3       0.632   1.895   0.000  -2.527  -0.000   0.000
   18    8    7   10        3       0.632   1.895   0.000  -2.527  -0.000   0.000
   17    6    7    9        3       0.632   1.895   0.000  -2.527  -0.000   0.000
   21    9    7    8        3       0.632   1.895   0.000  -2.527  -0.000   0.000
   24   10    7    8        3       0.632   1.895   0.000  -2.527  -0.000   0.000
   23    9    7    6        3       0.632   1.895   0.000  -2.527  -0.000   0.000
   16    6    7    9        3       0.632   1.895   0.000  -2.527  -0.000   0.000
   17    6    7   10        3       0.632   1.895   0.000  -2.527  -0.000   0.000
   22    9    7    6        3       0.632   1.895   0.000  -2.527  -0.000   0.000
   17    6    7    8        3       0.632   1.895   0.000  -2.527  -0.000   0.000
   18    8    7    9        3       0.632   1.895   0.000  -2.527  -0.000   0.000
   22    9    7    8        3       0.632   1.895   0.000  -2.527  -0.000   0.000
   26   10    7    6        3       0.632   1.895   0.000  -2.527  -0.000   0.000
   18    8    7    6        3       0.632   1.895   0.000  -2.527  -0.000   0.000
   26   10    7    9        3       0.632   1.895   0.000  -2.527  -0.000   0.000
   22    9    7   10        3       0.632   1.895   0.000  -2.527  -0.000   0.000
   25   10    7    8        3       0.632   1.895   0.000  -2.527  -0.000   0.000
   26   10    7    8        3       0.632   1.895   0.000  -2.527  -0.000   0.000
   19    8    7    6        3       0.632   1.895   0.000  -2.527  -0.000   0.000
   21    9    7   10        3       0.632   1.895   0.000  -2.527  -0.000   0.000
   19    8    7   10        3       0.632   1.895   0.000  -2.527  -0.000   0.000
   23    9    7   10        3       0.632   1.895   0.000  -2.527  -0.000   0.000
   24   10    7    6        3       0.632   1.895   0.000  -2.527  -0.000   0.000
   21    9    7    6        3       0.632   1.895   0.000  -2.527  -0.000   0.000
   15    5    4    2        3       0.414   1.243   0.000  -1.657  -0.000   0.000
   14    5    4    2        3       0.414   1.243   0.000  -1.657  -0.000   0.000
    7    6    5    4        3      16.736  -16.736   0.000  -0.000  -0.000   0.000

[ pairs ]
     1     5    1
     3     5    1
     2     6    1
     4     7    1
     5     8    1
     5     9    1
     3    11    1
     5    10    1
     4    11    1
     3    12    1
     4    12    1
     3    13    1
     2    14    1
     4    13    1
     2    15    1
     4    16    1
     7    14    1
     4    17    1
     7    15    1
     8    16    1
     6    18    1
     9    16    1
     8    17    1
     6    19    1
    10    16    1
     9    17    1
     6    20    1
    10    17    1
     9    18    1
     6    21    1
    10    18    1
     9    19    1
     6    22    1
    10    19    1
     9    20    1
     8    21    1
     6    23    1
    14    16    1
    10    20    1
     8    22    1
     6    24    1
    15    16    1
    14    17    1
    10    21    1
     8    23    1
     6    25    1
    15    17    1
    10    22    1
     8    24    1
     6    26    1
    10    23    1
     9    24    1
     8    25    1
     9    25    1
     8    26    1
     9    26    1

