LIGPARGEN GENERATED GRO FILE
   26
    1UNK    C00    1   0.100   0.100   0.000
    1UNK    C01    2  -0.050   0.100   0.000
    1UNK    O02    3  -0.121   0.100   0.100
    1UNK    O03    4  -0.098   0.106  -0.127
    1UNK    C04    5  -0.241   0.100  -0.138
    1UNK    C05    6  -0.304   0.236  -0.102
    1UNK    N06    7  -0.458   0.239  -0.103
    1UNK    C07    8  -0.513   0.203  -0.240
    1UNK    C08    9  -0.515   0.145   0.003
    1UNK    C09   10  -0.502   0.382  -0.070
    1UNK    H0A   11   0.136   0.092   0.103
    1UNK    H0B   12   0.137   0.194  -0.043
    1UNK    H0C   13   0.137   0.014  -0.057
    1UNK    H0D   14  -0.279   0.018  -0.075
    1UNK    H0E   15  -0.263   0.074  -0.242
    1UNK    H0F   16  -0.269   0.312  -0.173
    1UNK    H0G   17  -0.273   0.270  -0.002
    1UNK    H0H   18  -0.489   0.098  -0.262
    1UNK    H0I   19  -0.468   0.269  -0.315
    1UNK    H0J   20  -0.622   0.216  -0.238
    1UNK    H0K   21  -0.492   0.042  -0.025
    1UNK    H0M   22  -0.624   0.159   0.006
    1UNK    H0N   23  -0.471   0.171   0.099
    1UNK    H0O   24  -0.462   0.449  -0.146
    1UNK    H0P   25  -0.463   0.408   0.029
    1UNK    H0Q   26  -0.612   0.385  -0.070
   1.00000   1.00000   1.00000

