LIGPARGEN GENERATED GRO FILE
   93
    1UNK    S00    1   0.100   0.100   0.000
    1UNK    C01    2  -0.081   0.100   0.000
    1UNK    C02    3  -0.135   0.100   0.142
    1UNK    C03    4  -0.285   0.100   0.134
    1UNK    O04    5  -0.351   0.007   0.089
    1UNK    O05    6  -0.337   0.217   0.183
    1UNK    C06    7  -0.481   0.226   0.186
    1UNK    C07    8  -0.533   0.219   0.331
    1UNK    C08    9  -0.492   0.348   0.403
    1UNK    O09   10  -0.545   0.470   0.350
    1UNK    C0A   11  -0.604   0.549   0.445
    1UNK    O0B   12  -0.663   0.507   0.543
    1UNK    C0C   13  -0.575   0.694   0.417
    1UNK    C0D   14  -0.582   0.772   0.548
    1UNK    S0E   15  -0.547   0.948   0.520
    1UNK    C0F   16  -0.688   0.216   0.339
    1UNK    O0G   17  -0.740   0.098   0.278
    1UNK    C0H   18  -0.769   0.110   0.145
    1UNK    O0I   19  -0.777   0.216   0.085
    1UNK    C0J   20  -0.769  -0.025   0.082
    1UNK    C0K   21  -0.888  -0.105   0.132
    1UNK    S0M   22  -0.889  -0.269   0.056
    1UNK    C0N   23  -0.482   0.085   0.393
    1UNK    O0O   24  -0.344   0.067   0.425
    1UNK    C0P   25  -0.274   0.153   0.512
    1UNK    C0Q   26  -0.315   0.158   0.662
    1UNK    C0R   27  -0.274   0.024   0.725
    1UNK    O0S   28  -0.132   0.002   0.716
    1UNK    C0T   29  -0.064  -0.009   0.833
    1UNK    O0U   30  -0.114   0.006   0.944
    1UNK    C0V   31   0.082  -0.034   0.808
    1UNK    C0W   32   0.162   0.094   0.803
    1UNK    S0X   33   0.192   0.163   0.968
    1UNK    C0Y   34  -0.235   0.276   0.724
    1UNK    O0Z   35  -0.269   0.284   0.863
    1UNK    C10   36  -0.170   0.311   0.950
    1UNK    O11   37  -0.058   0.345   0.916
    1UNK    C12   38  -0.219   0.293   1.090
    1UNK    C13   39  -0.110   0.341   1.185
    1UNK    S14   40  -0.168   0.340   1.357
    1UNK    C15   41  -0.463   0.188   0.693
    1UNK    O16   42  -0.497   0.173   0.831
    1UNK    C17   43  -0.560   0.060   0.869
    1UNK    O18   44  -0.577  -0.039   0.799
    1UNK    C19   45  -0.605   0.076   1.011
    1UNK    C1A   46  -0.686   0.205   1.020
    1UNK    S1B   47  -0.753   0.227   1.187
    1UNK    H1C   48   0.115   0.100  -0.133
    1UNK    H1D   49  -0.116   0.012  -0.055
    1UNK    H1E   50  -0.116   0.189  -0.054
    1UNK    H1F   51  -0.101   0.188   0.198
    1UNK    H1G   52  -0.104   0.011   0.198
    1UNK    H1H   53  -0.524   0.147   0.124
    1UNK    H1I   54  -0.508   0.321   0.139
    1UNK    H1J   55  -0.385   0.365   0.400
    1UNK    H1K   56  -0.522   0.338   0.506
    1UNK    H1M   57  -0.646   0.731   0.343
    1UNK    H1N   58  -0.473   0.701   0.377
    1UNK    H1O   59  -0.509   0.733   0.620
    1UNK    H1P   60  -0.681   0.763   0.593
    1UNK    H1Q   61  -0.417   0.934   0.489
    1UNK    H1R   62  -0.735   0.306   0.298
    1UNK    H1S   63  -0.719   0.212   0.444
    1UNK    H1T   64  -0.673  -0.073   0.106
    1UNK    H1U   65  -0.772  -0.011  -0.027
    1UNK    H1V   66  -0.981  -0.053   0.108
    1UNK    H1W   67  -0.883  -0.117   0.241
    1UNK    H1X   68  -0.903  -0.227  -0.070
    1UNK    H1Y   69  -0.501   0.006   0.319
    1UNK    H1Z   70  -0.543   0.050   0.476
    1UNK    H20   71  -0.263   0.252   0.468
    1UNK    H21   72  -0.171   0.117   0.507
    1UNK    H22   73  -0.322  -0.059   0.670
    1UNK    H23   74  -0.307   0.016   0.829
    1UNK    H24   75   0.090  -0.088   0.713
    1UNK    H25   76   0.118  -0.104   0.885
    1UNK    H26   77   0.112   0.170   0.741
    1UNK    H27   78   0.260   0.074   0.759
    1UNK    H28   79   0.068   0.213   0.984
    1UNK    H29   80  -0.265   0.371   0.678
    1UNK    H2A   81  -0.127   0.264   0.708
    1UNK    H2B   82  -0.241   0.187   1.106
    1UNK    H2C   83  -0.311   0.351   1.103
    1UNK    H2D   84  -0.079   0.442   1.159
    1UNK    H2E   85  -0.023   0.276   1.178
    1UNK    H2F   86  -0.269   0.427   1.339
    1UNK    H2G   87  -0.536   0.134   0.635
    1UNK    H2H   88  -0.482   0.294   0.677
    1UNK    H2I   89  -0.516   0.079   1.074
    1UNK    H2J   90  -0.665  -0.011   1.037
    1UNK    H2K   91  -0.768   0.205   0.948
    1UNK    H2M   92  -0.624   0.293   0.998
    1UNK    H2N   93  -0.830   0.118   1.185
   1.00000   1.00000   1.00000

