
;
; GENERATED BY LigParGen Server
; Jorgensen Lab @ Yale University 
;
[ atomtypes ]
  opls_886  H886     1.0080     0.000    A    2.50000E-01   1.25520E-01
  opls_885  H885     1.0080     0.000    A    0.00000E+00   0.00000E+00
  opls_870  H870     1.0080     0.000    A    2.50000E-01   1.25520E-01
  opls_871  H871     1.0080     0.000    A    2.50000E-01   1.25520E-01
  opls_834  O834    15.9990     0.000    A    2.90000E-01   5.85760E-01
  opls_887  H887     1.0080     0.000    A    2.50000E-01   1.25520E-01
  opls_875  H875     1.0080     0.000    A    2.50000E-01   1.25520E-01
  opls_861  H861     1.0080     0.000    A    2.50000E-01   1.25520E-01
  opls_884  H884     1.0080     0.000    A    2.50000E-01   1.25520E-01
  opls_852  H852     1.0080     0.000    A    2.50000E-01   1.25520E-01
  opls_888  H888     1.0080     0.000    A    2.50000E-01   1.25520E-01
  opls_865  H865     1.0080     0.000    A    2.50000E-01   1.25520E-01
  opls_824  C824    12.0110     0.000    A    3.50000E-01   2.76144E-01
  opls_822  C822    12.0110     0.000    A    3.50000E-01   2.76144E-01
  opls_873  H873     1.0080     0.000    A    2.50000E-01   1.25520E-01
  opls_858  H858     1.0080     0.000    A    2.50000E-01   1.25520E-01
  opls_823  O823    15.9990     0.000    A    2.90000E-01   5.85760E-01
  opls_851  H851     1.0080     0.000    A    2.50000E-01   1.25520E-01
  opls_841  O841    15.9990     0.000    A    2.90000E-01   5.85760E-01
  opls_869  H869     1.0080     0.000    A    2.50000E-01   1.25520E-01
  opls_831  C831    12.0110     0.000    A    3.50000E-01   2.76144E-01
  opls_847  H847     1.0080     0.000    A    0.00000E+00   0.00000E+00
  opls_876  H876     1.0080     0.000    A    2.50000E-01   1.25520E-01
  opls_845  C845    12.0110     0.000    A    3.50000E-01   2.76144E-01
  opls_868  H868     1.0080     0.000    A    2.50000E-01   1.25520E-01
  opls_817  C817    12.0110     0.000    A    3.55000E-01   2.92880E-01
  opls_849  H849     1.0080     0.000    A    2.50000E-01   1.25520E-01
  opls_833  C833    12.0110     0.000    A    3.50000E-01   2.76144E-01
  opls_874  H874     1.0080     0.000    A    2.50000E-01   1.25520E-01
  opls_883  H883     1.0080     0.000    A    2.50000E-01   1.25520E-01
  opls_806  C806    12.0110     0.000    A    3.50000E-01   2.76144E-01
  opls_800  S800    32.0600     0.000    A    3.60000E-01   1.77820E+00
  opls_812  C812    12.0110     0.000    A    3.50000E-01   2.76144E-01
  opls_879  H879     1.0080     0.000    A    2.50000E-01   1.25520E-01
  opls_807  C807    12.0110     0.000    A    3.50000E-01   2.76144E-01
  opls_892  H892     1.0080     0.000    A    0.00000E+00   0.00000E+00
  opls_843  O843    15.9990     0.000    A    2.96000E-01   8.78640E-01
  opls_828  C828    12.0110     0.000    A    3.55000E-01   2.92880E-01
  opls_848  H848     1.0080     0.000    A    2.50000E-01   1.25520E-01
  opls_838  C838    12.0110     0.000    A    3.50000E-01   2.76144E-01
  opls_881  H881     1.0080     0.000    A    2.50000E-01   1.25520E-01
  opls_813  C813    12.0110     0.000    A    3.50000E-01   2.76144E-01
  opls_840  C840    12.0110     0.000    A    3.50000E-01   2.76144E-01
  opls_867  H867     1.0080     0.000    A    0.00000E+00   0.00000E+00
  opls_844  C844    12.0110     0.000    A    3.50000E-01   2.76144E-01
  opls_889  H889     1.0080     0.000    A    2.50000E-01   1.25520E-01
  opls_826  C826    12.0110     0.000    A    3.50000E-01   2.76144E-01
  opls_863  H863     1.0080     0.000    A    2.50000E-01   1.25520E-01
  opls_880  H880     1.0080     0.000    A    2.50000E-01   1.25520E-01
  opls_816  O816    15.9990     0.000    A    2.90000E-01   5.85760E-01
  opls_827  O827    15.9990     0.000    A    2.90000E-01   5.85760E-01
  opls_809  O809    15.9990     0.000    A    2.90000E-01   5.85760E-01
  opls_850  H850     1.0080     0.000    A    2.50000E-01   1.25520E-01
  opls_862  H862     1.0080     0.000    A    2.50000E-01   1.25520E-01
  opls_825  C825    12.0110     0.000    A    3.50000E-01   2.76144E-01
  opls_890  H890     1.0080     0.000    A    2.50000E-01   1.25520E-01
  opls_815  C815    12.0110     0.000    A    3.50000E-01   2.76144E-01
  opls_818  O818    15.9990     0.000    A    2.96000E-01   8.78640E-01
  opls_811  O811    15.9990     0.000    A    2.96000E-01   8.78640E-01
  opls_821  S821    32.0600     0.000    A    3.60000E-01   1.77820E+00
  opls_878  H878     1.0080     0.000    A    0.00000E+00   0.00000E+00
  opls_832  S832    32.0600     0.000    A    3.60000E-01   1.77820E+00
  opls_839  S839    32.0600     0.000    A    3.60000E-01   1.77820E+00
  opls_866  H866     1.0080     0.000    A    2.50000E-01   1.25520E-01
  opls_830  C830    12.0110     0.000    A    3.50000E-01   2.76144E-01
  opls_814  S814    32.0600     0.000    A    3.60000E-01   1.77820E+00
  opls_860  H860     1.0080     0.000    A    0.00000E+00   0.00000E+00
  opls_855  H855     1.0080     0.000    A    2.50000E-01   1.25520E-01
  opls_854  H854     1.0080     0.000    A    2.50000E-01   1.25520E-01
  opls_836  O836    15.9990     0.000    A    2.96000E-01   8.78640E-01
  opls_810  C810    12.0110     0.000    A    3.55000E-01   2.92880E-01
  opls_846  S846    32.0600     0.000    A    3.60000E-01   1.77820E+00
  opls_804  O804    15.9990     0.000    A    2.96000E-01   8.78640E-01
  opls_802  C802    12.0110     0.000    A    3.50000E-01   2.76144E-01
  opls_857  H857     1.0080     0.000    A    2.50000E-01   1.25520E-01
  opls_808  C808    12.0110     0.000    A    3.50000E-01   2.76144E-01
  opls_872  H872     1.0080     0.000    A    2.50000E-01   1.25520E-01
  opls_829  O829    15.9990     0.000    A    2.96000E-01   8.78640E-01
  opls_877  H877     1.0080     0.000    A    2.50000E-01   1.25520E-01
  opls_837  C837    12.0110     0.000    A    3.50000E-01   2.76144E-01
  opls_856  H856     1.0080     0.000    A    2.50000E-01   1.25520E-01
  opls_819  C819    12.0110     0.000    A    3.50000E-01   2.76144E-01
  opls_805  O805    15.9990     0.000    A    2.90000E-01   5.85760E-01
  opls_820  C820    12.0110     0.000    A    3.50000E-01   2.76144E-01
  opls_835  C835    12.0110     0.000    A    3.55000E-01   2.92880E-01
  opls_801  C801    12.0110     0.000    A    3.50000E-01   2.76144E-01
  opls_803  C803    12.0110     0.000    A    3.55000E-01   2.92880E-01
  opls_853  H853     1.0080     0.000    A    2.50000E-01   1.25520E-01
  opls_891  H891     1.0080     0.000    A    2.50000E-01   1.25520E-01
  opls_864  H864     1.0080     0.000    A    2.50000E-01   1.25520E-01
  opls_882  H882     1.0080     0.000    A    2.50000E-01   1.25520E-01
  opls_859  H859     1.0080     0.000    A    2.50000E-01   1.25520E-01
  opls_842  C842    12.0110     0.000    A    3.55000E-01   2.92880E-01
[ moleculetype ]
; Name               nrexcl
UNK                   3
[ atoms ]
;   nr       type  resnr residue  atom   cgnr     charge       mass  
     1   opls_800      1    UNK   S00      1    -0.4315    32.0600 
     2   opls_801      1    UNK   C01      1     0.0133    12.0110 
     3   opls_802      1    UNK   C02      1    -0.1695    12.0110 
     4   opls_803      1    UNK   C03      1     0.4541    12.0110 
     5   opls_804      1    UNK   O04      1     -0.452    15.9990 
     6   opls_805      1    UNK   O05      1    -0.3556    15.9990 
     7   opls_806      1    UNK   C06      1     0.0038    12.0110 
     8   opls_807      1    UNK   C07      1    -0.1362    12.0110 
     9   opls_808      1    UNK   C08      1     0.0054    12.0110 
    10   opls_809      1    UNK   O09      1    -0.3679    15.9990 
    11   opls_810      1    UNK   C0A      1     0.4405    12.0110 
    12   opls_811      1    UNK   O0B      1    -0.4412    15.9990 
    13   opls_812      1    UNK   C0C      1    -0.1934    12.0110 
    14   opls_813      1    UNK   C0D      1     0.0094    12.0110 
    15   opls_814      1    UNK   S0E      1    -0.4157    32.0600 
    16   opls_815      1    UNK   C0F      1     0.0005    12.0110 
    17   opls_816      1    UNK   O0G      1    -0.3567    15.9990 
    18   opls_817      1    UNK   C0H      1     0.4359    12.0110 
    19   opls_818      1    UNK   O0I      1    -0.4391    15.9990 
    20   opls_819      1    UNK   C0J      1     -0.199    12.0110 
    21   opls_820      1    UNK   C0K      1     0.0136    12.0110 
    22   opls_821      1    UNK   S0M      1     -0.418    32.0600 
    23   opls_822      1    UNK   C0N      1     0.0051    12.0110 
    24   opls_823      1    UNK   O0O      1    -0.3636    15.9990 
    25   opls_824      1    UNK   C0P      1     0.0175    12.0110 
    26   opls_825      1    UNK   C0Q      1    -0.1273    12.0110 
    27   opls_826      1    UNK   C0R      1     0.0015    12.0110 
    28   opls_827      1    UNK   O0S      1    -0.3633    15.9990 
    29   opls_828      1    UNK   C0T      1      0.439    12.0110 
    30   opls_829      1    UNK   O0U      1    -0.4566    15.9990 
    31   opls_830      1    UNK   C0V      1    -0.1932    12.0110 
    32   opls_831      1    UNK   C0W      1     0.0218    12.0110 
    33   opls_832      1    UNK   S0X      2    -0.4547    32.0600 
    34   opls_833      1    UNK   C0Y      2     0.0047    12.0110 
    35   opls_834      1    UNK   O0Z      2    -0.3414    15.9990 
    36   opls_835      1    UNK   C10      2     0.4494    12.0110 
    37   opls_836      1    UNK   O11      2    -0.4766    15.9990 
    38   opls_837      1    UNK   C12      2    -0.1892    12.0110 
    39   opls_838      1    UNK   C13      2     0.0062    12.0110 
    40   opls_839      1    UNK   S14      2    -0.4159    32.0600 
    41   opls_840      1    UNK   C15      2      0.016    12.0110 
    42   opls_841      1    UNK   O16      2    -0.3449    15.9990 
    43   opls_842      1    UNK   C17      2     0.4347    12.0110 
    44   opls_843      1    UNK   O18      2    -0.4455    15.9990 
    45   opls_844      1    UNK   C19      2    -0.1889    12.0110 
    46   opls_845      1    UNK   C1A      2     0.0085    12.0110 
    47   opls_846      1    UNK   S1B      2    -0.4208    32.0600 
    48   opls_847      1    UNK   H1C      2     0.1566     1.0080 
    49   opls_848      1    UNK   H1D      2     0.1262     1.0080 
    50   opls_849      1    UNK   H1E      2     0.1262     1.0080 
    51   opls_850      1    UNK   H1F      2     0.1472     1.0080 
    52   opls_851      1    UNK   H1G      2     0.1472     1.0080 
    53   opls_852      1    UNK   H1H      2     0.1332     1.0080 
    54   opls_853      1    UNK   H1I      2     0.1332     1.0080 
    55   opls_854      1    UNK   H1J      2     0.1157     1.0080 
    56   opls_855      1    UNK   H1K      2     0.1157     1.0080 
    57   opls_856      1    UNK   H1M      2     0.1489     1.0080 
    58   opls_857      1    UNK   H1N      2     0.1489     1.0080 
    59   opls_858      1    UNK   H1O      2      0.143     1.0080 
    60   opls_859      1    UNK   H1P      2      0.143     1.0080 
    61   opls_860      1    UNK   H1Q      2      0.146     1.0080 
    62   opls_861      1    UNK   H1R      2      0.138     1.0080 
    63   opls_862      1    UNK   H1S      2      0.138     1.0080 
    64   opls_863      1    UNK   H1T      2     0.1497     1.0080 
    65   opls_864      1    UNK   H1U      2     0.1497     1.0080 
    66   opls_865      1    UNK   H1V      3     0.1407     1.0080 
    67   opls_866      1    UNK   H1W      3     0.1407     1.0080 
    68   opls_867      1    UNK   H1X      3     0.1477     1.0080 
    69   opls_868      1    UNK   H1Y      3     0.1239     1.0080 
    70   opls_869      1    UNK   H1Z      3     0.1239     1.0080 
    71   opls_870      1    UNK   H20      3     0.1105     1.0080 
    72   opls_871      1    UNK   H21      3     0.1105     1.0080 
    73   opls_872      1    UNK   H22      3     0.1401     1.0080 
    74   opls_873      1    UNK   H23      3     0.1401     1.0080 
    75   opls_874      1    UNK   H24      3     0.1448     1.0080 
    76   opls_875      1    UNK   H25      3     0.1448     1.0080 
    77   opls_876      1    UNK   H26      3     0.1353     1.0080 
    78   opls_877      1    UNK   H27      3     0.1353     1.0080 
    79   opls_878      1    UNK   H28      3      0.191     1.0080 
    80   opls_879      1    UNK   H29      3     0.1148     1.0080 
    81   opls_880      1    UNK   H2A      3     0.1148     1.0080 
    82   opls_881      1    UNK   H2B      3     0.1544     1.0080 
    83   opls_882      1    UNK   H2C      3     0.1544     1.0080 
    84   opls_883      1    UNK   H2D      3     0.1453     1.0080 
    85   opls_884      1    UNK   H2E      3     0.1453     1.0080 
    86   opls_885      1    UNK   H2F      3     0.1439     1.0080 
    87   opls_886      1    UNK   H2G      3     0.1211     1.0080 
    88   opls_887      1    UNK   H2H      3     0.1211     1.0080 
    89   opls_888      1    UNK   H2I      3      0.147     1.0080 
    90   opls_889      1    UNK   H2J      3      0.147     1.0080 
    91   opls_890      1    UNK   H2K      3     0.1414     1.0080 
    92   opls_891      1    UNK   H2M      3     0.1414     1.0080 
    93   opls_892      1    UNK   H2N      3     0.1491     1.0080 
[ bonds ]
    2     1     1      0.1810 185769.600
    3     2     1      0.1529 224262.400
    4     3     1      0.1522 265265.600
    5     4     1      0.1229 476976.000
    6     4     1      0.1327 179075.200
    7     6     1      0.1410 267776.000
    8     7     1      0.1529 224262.400
    9     8     1      0.1529 224262.400
   10     9     1      0.1410 267776.000
   11    10     1      0.1327 179075.200
   12    11     1      0.1229 476976.000
   13    11     1      0.1522 265265.600
   14    13     1      0.1529 224262.400
   15    14     1      0.1810 185769.600
   16     8     1      0.1529 224262.400
   17    16     1      0.1410 267776.000
   18    17     1      0.1327 179075.200
   19    18     1      0.1229 476976.000
   20    18     1      0.1522 265265.600
   21    20     1      0.1529 224262.400
   22    21     1      0.1810 185769.600
   23     8     1      0.1529 224262.400
   24    23     1      0.1410 267776.000
   25    24     1      0.1410 267776.000
   26    25     1      0.1529 224262.400
   27    26     1      0.1529 224262.400
   28    27     1      0.1410 267776.000
   29    28     1      0.1327 179075.200
   30    29     1      0.1229 476976.000
   31    29     1      0.1522 265265.600
   32    31     1      0.1529 224262.400
   33    32     1      0.1810 185769.600
   34    26     1      0.1529 224262.400
   35    34     1      0.1410 267776.000
   36    35     1      0.1327 179075.200
   37    36     1      0.1229 476976.000
   38    36     1      0.1522 265265.600
   39    38     1      0.1529 224262.400
   40    39     1      0.1810 185769.600
   41    26     1      0.1529 224262.400
   42    41     1      0.1410 267776.000
   43    42     1      0.1327 179075.200
   44    43     1      0.1229 476976.000
   45    43     1      0.1522 265265.600
   46    45     1      0.1529 224262.400
   47    46     1      0.1810 185769.600
   48     1     1      0.1336 229283.200
   49     2     1      0.1090 284512.000
   50     2     1      0.1090 284512.000
   51     3     1      0.1090 284512.000
   52     3     1      0.1090 284512.000
   53     7     1      0.1090 284512.000
   54     7     1      0.1090 284512.000
   55     9     1      0.1090 284512.000
   56     9     1      0.1090 284512.000
   57    13     1      0.1090 284512.000
   58    13     1      0.1090 284512.000
   59    14     1      0.1090 284512.000
   60    14     1      0.1090 284512.000
   61    15     1      0.1336 229283.200
   62    16     1      0.1090 284512.000
   63    16     1      0.1090 284512.000
   64    20     1      0.1090 284512.000
   65    20     1      0.1090 284512.000
   66    21     1      0.1090 284512.000
   67    21     1      0.1090 284512.000
   68    22     1      0.1336 229283.200
   69    23     1      0.1090 284512.000
   70    23     1      0.1090 284512.000
   71    25     1      0.1090 284512.000
   72    25     1      0.1090 284512.000
   73    27     1      0.1090 284512.000
   74    27     1      0.1090 284512.000
   75    31     1      0.1090 284512.000
   76    31     1      0.1090 284512.000
   77    32     1      0.1090 284512.000
   78    32     1      0.1090 284512.000
   79    33     1      0.1336 229283.200
   80    34     1      0.1090 284512.000
   81    34     1      0.1090 284512.000
   82    38     1      0.1090 284512.000
   83    38     1      0.1090 284512.000
   84    39     1      0.1090 284512.000
   85    39     1      0.1090 284512.000
   86    40     1      0.1336 229283.200
   87    41     1      0.1090 284512.000
   88    41     1      0.1090 284512.000
   89    45     1      0.1090 284512.000
   90    45     1      0.1090 284512.000
   91    46     1      0.1090 284512.000
   92    46     1      0.1090 284512.000
   93    47     1      0.1336 229283.200

[ angles ]
;  ai    aj    ak funct            c0            c1            c2            c3 
    1     2     3     1    108.600    418.400
    2     3     4     1    111.100    527.184
    3     4     5     1    120.400    669.440
    3     4     6     1    111.400    677.808
    4     6     7     1    116.900    694.544
    6     7     8     1    109.500    418.400
    7     8     9     1    112.700    488.273
    8     9    10     1    109.500    418.400
    9    10    11     1    116.900    694.544
   10    11    12     1    123.400    694.544
   10    11    13     1    111.400    677.808
   11    13    14     1    111.100    527.184
   13    14    15     1    108.600    418.400
    7     8    16     1    112.700    488.273
    8    16    17     1    109.500    418.400
   16    17    18     1    116.900    694.544
   17    18    19     1    123.400    694.544
   17    18    20     1    111.400    677.808
   18    20    21     1    111.100    527.184
   20    21    22     1    108.600    418.400
    7     8    23     1    112.700    488.273
    8    23    24     1    109.500    418.400
   23    24    25     1    109.500    502.080
   24    25    26     1    109.500    418.400
   25    26    27     1    112.700    488.273
   26    27    28     1    109.500    418.400
   27    28    29     1    116.900    694.544
   28    29    30     1    123.400    694.544
   28    29    31     1    111.400    677.808
   29    31    32     1    111.100    527.184
   31    32    33     1    108.600    418.400
   25    26    34     1    112.700    488.273
   26    34    35     1    109.500    418.400
   34    35    36     1    116.900    694.544
   35    36    37     1    123.400    694.544
   35    36    38     1    111.400    677.808
   36    38    39     1    111.100    527.184
   38    39    40     1    108.600    418.400
   25    26    41     1    112.700    488.273
   26    41    42     1    109.500    418.400
   41    42    43     1    116.900    694.544
   42    43    44     1    123.400    694.544
   42    43    45     1    111.400    677.808
   43    45    46     1    111.100    527.184
   45    46    47     1    108.600    418.400
    2     1    48     1     96.000    368.192
    1     2    49     1    109.500    292.880
    1     2    50     1    109.500    292.880
    2     3    51     1    110.700    313.800
    2     3    52     1    110.700    313.800
    6     7    53     1    109.500    292.880
    6     7    54     1    109.500    292.880
    8     9    55     1    110.700    313.800
    8     9    56     1    110.700    313.800
   11    13    57     1    109.500    292.880
   11    13    58     1    109.500    292.880
   13    14    59     1    110.700    313.800
   13    14    60     1    110.700    313.800
   14    15    61     1     96.000    368.192
    8    16    62     1    110.700    313.800
    8    16    63     1    110.700    313.800
   18    20    64     1    109.500    292.880
   18    20    65     1    109.500    292.880
   20    21    66     1    110.700    313.800
   20    21    67     1    110.700    313.800
   21    22    68     1     96.000    368.192
    8    23    69     1    110.700    313.800
    8    23    70     1    110.700    313.800
   24    25    71     1    109.500    292.880
   24    25    72     1    109.500    292.880
   26    27    73     1    110.700    313.800
   26    27    74     1    110.700    313.800
   29    31    75     1    109.500    292.880
   29    31    76     1    109.500    292.880
   31    32    77     1    110.700    313.800
   31    32    78     1    110.700    313.800
   32    33    79     1     96.000    368.192
   26    34    80     1    110.700    313.800
   26    34    81     1    110.700    313.800
   36    38    82     1    109.500    292.880
   36    38    83     1    109.500    292.880
   38    39    84     1    110.700    313.800
   38    39    85     1    110.700    313.800
   39    40    86     1     96.000    368.192
   26    41    87     1    110.700    313.800
   26    41    88     1    110.700    313.800
   43    45    89     1    109.500    292.880
   43    45    90     1    109.500    292.880
   45    46    91     1    110.700    313.800
   45    46    92     1    110.700    313.800
   46    47    93     1     96.000    368.192
   30    29    31     1    120.400    669.440
   71    25    72     1    107.800    276.144
   75    31    76     1    107.800    276.144
    3     2    49     1    110.700    313.800
   15    14    60     1    109.500    292.880
   53     7    54     1    107.800    276.144
   40    39    84     1    109.500    292.880
   17    16    62     1    109.500    292.880
   77    32    78     1    107.800    276.144
    3     2    50     1    110.700    313.800
   15    14    59     1    109.500    292.880
   33    32    78     1    109.500    292.880
   24    23    69     1    109.500    292.880
   69    23    70     1    107.800    276.144
   28    27    74     1    109.500    292.880
   49     2    50     1    107.800    276.144
   33    32    77     1    109.500    292.880
   73    27    74     1    107.800    276.144
    9     8    16     1    112.700    488.273
   87    41    88     1    107.800    276.144
   51     3    52     1    107.800    276.144
   64    20    65     1    107.800    276.144
    4     3    52     1    109.500    292.880
    5     4     6     1    123.400    694.544
   32    31    76     1    110.700    313.800
   40    39    85     1    109.500    292.880
   26    25    71     1    110.700    313.800
   37    36    38     1    120.400    669.440
   10     9    56     1    109.500    292.880
   59    14    60     1    107.800    276.144
   22    21    66     1    109.500    292.880
   66    21    67     1    107.800    276.144
   35    34    81     1    109.500    292.880
   57    13    58     1    107.800    276.144
   28    27    73     1    109.500    292.880
   14    13    57     1    110.700    313.800
    8     7    54     1    110.700    313.800
   34    26    41     1    112.700    488.273
   44    43    45     1    120.400    669.440
   47    46    92     1    109.500    292.880
   26    25    72     1    110.700    313.800
   32    31    75     1    110.700    313.800
    4     3    51     1    109.500    292.880
   46    45    90     1    110.700    313.800
    9     8    23     1    112.700    488.273
   35    34    80     1    109.500    292.880
   27    26    41     1    112.700    488.273
   80    34    81     1    107.800    276.144
   24    23    70     1    109.500    292.880
   22    21    67     1    109.500    292.880
   19    18    20     1    120.400    669.440
   42    41    87     1    109.500    292.880
   42    41    88     1    109.500    292.880
   16     8    23     1    112.700    488.273
   39    38    82     1    110.700    313.800
   46    45    89     1    110.700    313.800
   82    38    83     1    107.800    276.144
   14    13    58     1    110.700    313.800
   21    20    64     1    110.700    313.800
   55     9    56     1    107.800    276.144
   21    20    65     1    110.700    313.800
   89    45    90     1    107.800    276.144
   62    16    63     1    107.800    276.144
   47    46    91     1    109.500    292.880
   10     9    55     1    109.500    292.880
   91    46    92     1    107.800    276.144
   84    39    85     1    107.800    276.144
   27    26    34     1    112.700    488.273
   12    11    13     1    120.400    669.440
   39    38    83     1    110.700    313.800
    8     7    53     1    110.700    313.800
   17    16    63     1    109.500    292.880

[ dihedrals ]
; IMPROPER DIHEDRAL ANGLES 
;  ai    aj    ak    al funct            c0            c1            c2            c3            c4            c5
    31    29    28    30    4        180.000     43.932     2  
    45    43    42    44    4        180.000     43.932     2  
    38    36    35    37    4        180.000     43.932     2  
    20    18    17    19    4        180.000     43.932     2  
    13    11    10    12    4        180.000     43.932     2  
     6     4     3     5    4        180.000     43.932     2  

[ dihedrals ]
; PROPER DIHEDRAL ANGLES
;  ai    aj    ak    al funct            c0            c1            c2            c3            c4            c5
    4    3    2    1        3      -16.259   9.088   7.171  -0.000  -0.000   0.000
   36   35   34   26        3      -2.197   5.201   0.527  -3.531  -0.000   0.000
   18   17   16    8        3      -2.197   5.201   0.527  -3.531  -0.000   0.000
   43   42   41   26        3      -2.197   5.201   0.527  -3.531  -0.000   0.000
   11   10    9    8        3      -2.197   5.201   0.527  -3.531  -0.000   0.000
   29   28   27   26        3      -2.197   5.201   0.527  -3.531  -0.000   0.000
   20   18   17   16        3      31.206  -9.768  -21.439  -0.000  -0.000   0.000
   13   11   10    9        3      31.206  -9.768  -21.439  -0.000  -0.000   0.000
   31   29   28   27        3      31.206  -9.768  -21.439  -0.000  -0.000   0.000
   38   36   35   34        3      31.206  -9.768  -21.439  -0.000  -0.000   0.000
   45   43   42   41        3      31.206  -9.768  -21.439  -0.000  -0.000   0.000
   46   45   43   44        3       0.000   0.000   0.000  -0.000  -0.000   0.000
   21   20   18   19        3       0.000   0.000   0.000  -0.000  -0.000   0.000
   14   13   11   12        3       0.000   0.000   0.000  -0.000  -0.000   0.000
   32   31   29   30        3       0.000   0.000   0.000  -0.000  -0.000   0.000
   39   38   36   37        3       0.000   0.000   0.000  -0.000  -0.000   0.000
   46   45   43   42        3      -1.157  -3.471   0.000   4.628  -0.000   0.000
   32   31   29   28        3      -1.157  -3.471   0.000   4.628  -0.000   0.000
   39   38   36   35        3      -1.157  -3.471   0.000   4.628  -0.000   0.000
   21   20   18   17        3      -1.157  -3.471   0.000   4.628  -0.000   0.000
   14   13   11   10        3      -1.157  -3.471   0.000   4.628  -0.000   0.000
   34   26   27   28        3       2.874   0.582   2.092  -5.548  -0.000   0.000
   41   26   25   24        3       2.874   0.582   2.092  -5.548  -0.000   0.000
   41   26   34   35        3       2.874   0.582   2.092  -5.548  -0.000   0.000
   16    8    9   10        3       2.874   0.582   2.092  -5.548  -0.000   0.000
   23    8    9   10        3       2.874   0.582   2.092  -5.548  -0.000   0.000
    9    8    7    6        3       2.874   0.582   2.092  -5.548  -0.000   0.000
   16    8    7    6        3       2.874   0.582   2.092  -5.548  -0.000   0.000
   23    8    7    6        3       2.874   0.582   2.092  -5.548  -0.000   0.000
   34   26   25   24        3       2.874   0.582   2.092  -5.548  -0.000   0.000
   27   26   25   24        3       2.874   0.582   2.092  -5.548  -0.000   0.000
   23    8   16   17        3       2.874   0.582   2.092  -5.548  -0.000   0.000
   41   26   27   28        3       2.874   0.582   2.092  -5.548  -0.000   0.000
    8    7    6    4        3      -2.197   5.201   0.527  -3.531  -0.000   0.000
   26   25   24   23        3       1.715   2.845   1.046  -5.607  -0.000   0.000
    7    6    4    3        3      31.206  -9.768  -21.439  -0.000  -0.000   0.000
    7    6    4    5        3      21.439   0.000  -21.439  -0.000  -0.000   0.000
   25   24   23    8        3       1.715   2.845   1.046  -5.607  -0.000   0.000
   57   13   11   12        3       0.000   0.000   0.000  -0.000  -0.000   0.000
   51    3    4    5        3       0.000   0.000   0.000  -0.000  -0.000   0.000
   83   38   36   37        3       0.000   0.000   0.000  -0.000  -0.000   0.000
   89   45   43   44        3       0.000   0.000   0.000  -0.000  -0.000   0.000
   65   20   18   19        3       0.000   0.000   0.000  -0.000  -0.000   0.000
   75   31   29   30        3       0.000   0.000   0.000  -0.000  -0.000   0.000
   82   38   36   37        3       0.000   0.000   0.000  -0.000  -0.000   0.000
   90   45   43   44        3       0.000   0.000   0.000  -0.000  -0.000   0.000
   64   20   18   19        3       0.000   0.000   0.000  -0.000  -0.000   0.000
   76   31   29   30        3       0.000   0.000   0.000  -0.000  -0.000   0.000
   58   13   11   12        3       0.000   0.000   0.000  -0.000  -0.000   0.000
   52    3    4    5        3       0.000   0.000   0.000  -0.000  -0.000   0.000
   76   31   29   28        3       0.276   0.828   0.000  -1.105  -0.000   0.000
   64   20   18   17        3       0.276   0.828   0.000  -1.105  -0.000   0.000
   52    3    4    6        3       0.276   0.828   0.000  -1.105  -0.000   0.000
   65   20   18   17        3       0.276   0.828   0.000  -1.105  -0.000   0.000
   51    3    4    6        3       0.276   0.828   0.000  -1.105  -0.000   0.000
   89   45   43   42        3       0.276   0.828   0.000  -1.105  -0.000   0.000
   58   13   11   10        3       0.276   0.828   0.000  -1.105  -0.000   0.000
   75   31   29   28        3       0.276   0.828   0.000  -1.105  -0.000   0.000
   57   13   11   10        3       0.276   0.828   0.000  -1.105  -0.000   0.000
   90   45   43   42        3       0.276   0.828   0.000  -1.105  -0.000   0.000
   82   38   36   35        3       0.276   0.828   0.000  -1.105  -0.000   0.000
   83   38   36   35        3       0.276   0.828   0.000  -1.105  -0.000   0.000
   77   32   31   29        3      -0.209  -0.628   0.000   0.837  -0.000   0.000
   59   14   13   11        3      -0.209  -0.628   0.000   0.837  -0.000   0.000
   49    2    3    4        3      -0.209  -0.628   0.000   0.837  -0.000   0.000
   50    2    3    4        3      -0.209  -0.628   0.000   0.837  -0.000   0.000
   78   32   31   29        3      -0.209  -0.628   0.000   0.837  -0.000   0.000
   85   39   38   36        3      -0.209  -0.628   0.000   0.837  -0.000   0.000
   91   46   45   43        3      -0.209  -0.628   0.000   0.837  -0.000   0.000
   84   39   38   36        3      -0.209  -0.628   0.000   0.837  -0.000   0.000
   60   14   13   11        3      -0.209  -0.628   0.000   0.837  -0.000   0.000
   66   21   20   18        3      -0.209  -0.628   0.000   0.837  -0.000   0.000
   67   21   20   18        3      -0.209  -0.628   0.000   0.837  -0.000   0.000
   92   46   45   43        3      -0.209  -0.628   0.000   0.837  -0.000   0.000
   81   34   26   25        3       0.628   1.883   0.000  -2.510  -0.000   0.000
   56    9    8   16        3       0.628   1.883   0.000  -2.510  -0.000   0.000
   53    7    8    9        3       0.628   1.883   0.000  -2.510  -0.000   0.000
   56    9    8    7        3       0.628   1.883   0.000  -2.510  -0.000   0.000
   72   25   26   27        3       0.628   1.883   0.000  -2.510  -0.000   0.000
   70   23    8    9        3       0.628   1.883   0.000  -2.510  -0.000   0.000
   72   25   26   41        3       0.628   1.883   0.000  -2.510  -0.000   0.000
   74   27   26   41        3       0.628   1.883   0.000  -2.510  -0.000   0.000
   73   27   26   41        3       0.628   1.883   0.000  -2.510  -0.000   0.000
   53    7    8   23        3       0.628   1.883   0.000  -2.510  -0.000   0.000
   70   23    8   16        3       0.628   1.883   0.000  -2.510  -0.000   0.000
   81   34   26   27        3       0.628   1.883   0.000  -2.510  -0.000   0.000
   88   41   26   34        3       0.628   1.883   0.000  -2.510  -0.000   0.000
   63   16    8   23        3       0.628   1.883   0.000  -2.510  -0.000   0.000
   74   27   26   25        3       0.628   1.883   0.000  -2.510  -0.000   0.000
   80   34   26   25        3       0.628   1.883   0.000  -2.510  -0.000   0.000
   71   25   26   27        3       0.628   1.883   0.000  -2.510  -0.000   0.000
   55    9    8   16        3       0.628   1.883   0.000  -2.510  -0.000   0.000
   87   41   26   34        3       0.628   1.883   0.000  -2.510  -0.000   0.000
   73   27   26   34        3       0.628   1.883   0.000  -2.510  -0.000   0.000
   63   16    8    7        3       0.628   1.883   0.000  -2.510  -0.000   0.000
   62   16    8    7        3       0.628   1.883   0.000  -2.510  -0.000   0.000
   55    9    8    7        3       0.628   1.883   0.000  -2.510  -0.000   0.000
   69   23    8   16        3       0.628   1.883   0.000  -2.510  -0.000   0.000
   71   25   26   34        3       0.628   1.883   0.000  -2.510  -0.000   0.000
   80   34   26   27        3       0.628   1.883   0.000  -2.510  -0.000   0.000
   69   23    8    9        3       0.628   1.883   0.000  -2.510  -0.000   0.000
   74   27   26   34        3       0.628   1.883   0.000  -2.510  -0.000   0.000
   70   23    8    7        3       0.628   1.883   0.000  -2.510  -0.000   0.000
   72   25   26   34        3       0.628   1.883   0.000  -2.510  -0.000   0.000
   56    9    8   23        3       0.628   1.883   0.000  -2.510  -0.000   0.000
   54    7    8   23        3       0.628   1.883   0.000  -2.510  -0.000   0.000
   54    7    8    9        3       0.628   1.883   0.000  -2.510  -0.000   0.000
   71   25   26   41        3       0.628   1.883   0.000  -2.510  -0.000   0.000
   55    9    8   23        3       0.628   1.883   0.000  -2.510  -0.000   0.000
   62   16    8    9        3       0.628   1.883   0.000  -2.510  -0.000   0.000
   54    7    8   16        3       0.628   1.883   0.000  -2.510  -0.000   0.000
   88   41   26   27        3       0.628   1.883   0.000  -2.510  -0.000   0.000
   80   34   26   41        3       0.628   1.883   0.000  -2.510  -0.000   0.000
   87   41   26   27        3       0.628   1.883   0.000  -2.510  -0.000   0.000
   73   27   26   25        3       0.628   1.883   0.000  -2.510  -0.000   0.000
   81   34   26   41        3       0.628   1.883   0.000  -2.510  -0.000   0.000
   53    7    8   16        3       0.628   1.883   0.000  -2.510  -0.000   0.000
   87   41   26   25        3       0.628   1.883   0.000  -2.510  -0.000   0.000
   88   41   26   25        3       0.628   1.883   0.000  -2.510  -0.000   0.000
   62   16    8   23        3       0.628   1.883   0.000  -2.510  -0.000   0.000
   63   16    8    9        3       0.628   1.883   0.000  -2.510  -0.000   0.000
   69   23    8    7        3       0.628   1.883   0.000  -2.510  -0.000   0.000
   59   14   13   58        3       0.628   1.883   0.000  -2.510  -0.000   0.000
   78   32   31   76        3       0.628   1.883   0.000  -2.510  -0.000   0.000
   67   21   20   65        3       0.628   1.883   0.000  -2.510  -0.000   0.000
   60   14   13   57        3       0.628   1.883   0.000  -2.510  -0.000   0.000
   92   46   45   89        3       0.628   1.883   0.000  -2.510  -0.000   0.000
   60   14   13   58        3       0.628   1.883   0.000  -2.510  -0.000   0.000
   66   21   20   64        3       0.628   1.883   0.000  -2.510  -0.000   0.000
   52    3    2   50        3       0.628   1.883   0.000  -2.510  -0.000   0.000
   66   21   20   65        3       0.628   1.883   0.000  -2.510  -0.000   0.000
   67   21   20   64        3       0.628   1.883   0.000  -2.510  -0.000   0.000
   59   14   13   57        3       0.628   1.883   0.000  -2.510  -0.000   0.000
   92   46   45   90        3       0.628   1.883   0.000  -2.510  -0.000   0.000
   84   39   38   82        3       0.628   1.883   0.000  -2.510  -0.000   0.000
   51    3    2   49        3       0.628   1.883   0.000  -2.510  -0.000   0.000
   77   32   31   75        3       0.628   1.883   0.000  -2.510  -0.000   0.000
   51    3    2   50        3       0.628   1.883   0.000  -2.510  -0.000   0.000
   85   39   38   83        3       0.628   1.883   0.000  -2.510  -0.000   0.000
   78   32   31   75        3       0.628   1.883   0.000  -2.510  -0.000   0.000
   77   32   31   76        3       0.628   1.883   0.000  -2.510  -0.000   0.000
   91   46   45   90        3       0.628   1.883   0.000  -2.510  -0.000   0.000
   85   39   38   82        3       0.628   1.883   0.000  -2.510  -0.000   0.000
   91   46   45   89        3       0.628   1.883   0.000  -2.510  -0.000   0.000
   84   39   38   83        3       0.628   1.883   0.000  -2.510  -0.000   0.000
   52    3    2   49        3       0.628   1.883   0.000  -2.510  -0.000   0.000
   90   45   46   47        3       0.946   2.837   0.000  -3.782  -0.000   0.000
   75   31   32   33        3       0.946   2.837   0.000  -3.782  -0.000   0.000
   64   20   21   22        3       0.946   2.837   0.000  -3.782  -0.000   0.000
   89   45   46   47        3       0.946   2.837   0.000  -3.782  -0.000   0.000
   51    3    2    1        3       0.946   2.837   0.000  -3.782  -0.000   0.000
   82   38   39   40        3       0.946   2.837   0.000  -3.782  -0.000   0.000
   57   13   14   15        3       0.946   2.837   0.000  -3.782  -0.000   0.000
   52    3    2    1        3       0.946   2.837   0.000  -3.782  -0.000   0.000
   58   13   14   15        3       0.946   2.837   0.000  -3.782  -0.000   0.000
   76   31   32   33        3       0.946   2.837   0.000  -3.782  -0.000   0.000
   83   38   39   40        3       0.946   2.837   0.000  -3.782  -0.000   0.000
   65   20   21   22        3       0.946   2.837   0.000  -3.782  -0.000   0.000
   54    7    6    4        3       0.414   1.243   0.000  -1.657  -0.000   0.000
   53    7    6    4        3       0.414   1.243   0.000  -1.657  -0.000   0.000
   56    9   10   11        3       0.414   1.243   0.000  -1.657  -0.000   0.000
   62   16   17   18        3       0.414   1.243   0.000  -1.657  -0.000   0.000
   88   41   42   43        3       0.414   1.243   0.000  -1.657  -0.000   0.000
   87   41   42   43        3       0.414   1.243   0.000  -1.657  -0.000   0.000
   81   34   35   36        3       0.414   1.243   0.000  -1.657  -0.000   0.000
   80   34   35   36        3       0.414   1.243   0.000  -1.657  -0.000   0.000
   74   27   28   29        3       0.414   1.243   0.000  -1.657  -0.000   0.000
   55    9   10   11        3       0.414   1.243   0.000  -1.657  -0.000   0.000
   73   27   28   29        3       0.414   1.243   0.000  -1.657  -0.000   0.000
   63   16   17   18        3       0.414   1.243   0.000  -1.657  -0.000   0.000
   70   23   24   25        3       1.590   4.770   0.000  -6.360  -0.000   0.000
   69   23   24   25        3       1.590   4.770   0.000  -6.360  -0.000   0.000
   72   25   24   23        3       1.590   4.770   0.000  -6.360  -0.000   0.000
   71   25   24   23        3       1.590   4.770   0.000  -6.360  -0.000   0.000
   50    2    1   48        3       1.004   3.012   0.000  -4.017  -0.000   0.000
   49    2    1   48        3       1.004   3.012   0.000  -4.017  -0.000   0.000
   48    1    2    3        3      -1.345   5.856   1.180  -5.690  -0.000   0.000
   93   47   46   45        3      -1.345   5.856   1.180  -5.690  -0.000   0.000
   61   15   14   13        3      -1.345   5.856   1.180  -5.690  -0.000   0.000
   79   33   32   31        3      -1.345   5.856   1.180  -5.690  -0.000   0.000
   86   40   39   38        3      -1.345   5.856   1.180  -5.690  -0.000   0.000
   68   22   21   20        3      -1.345   5.856   1.180  -5.690  -0.000   0.000
   68   22   21   67        3       1.004   3.012   0.000  -4.017  -0.000   0.000
   93   47   46   91        3       1.004   3.012   0.000  -4.017  -0.000   0.000
   79   33   32   78        3       1.004   3.012   0.000  -4.017  -0.000   0.000
   86   40   39   84        3       1.004   3.012   0.000  -4.017  -0.000   0.000
   86   40   39   85        3       1.004   3.012   0.000  -4.017  -0.000   0.000
   68   22   21   66        3       1.004   3.012   0.000  -4.017  -0.000   0.000
   93   47   46   92        3       1.004   3.012   0.000  -4.017  -0.000   0.000
   61   15   14   59        3       1.004   3.012   0.000  -4.017  -0.000   0.000
   79   33   32   77        3       1.004   3.012   0.000  -4.017  -0.000   0.000
   61   15   14   60        3       1.004   3.012   0.000  -4.017  -0.000   0.000
    5    4    3    2        3       0.000   0.000   0.000  -0.000  -0.000   0.000
   37   36   35   34        3      21.439   0.000  -21.439  -0.000  -0.000   0.000
   19   18   17   16        3      21.439   0.000  -21.439  -0.000  -0.000   0.000
   12   11   10    9        3      21.439   0.000  -21.439  -0.000  -0.000   0.000
   30   29   28   27        3      21.439   0.000  -21.439  -0.000  -0.000   0.000
   44   43   42   41        3      21.439   0.000  -21.439  -0.000  -0.000   0.000
    6    4    3    2        3      -1.157  -3.471   0.000   4.628  -0.000   0.000
   28   27   26   25        3       2.874   0.582   2.092  -5.548  -0.000   0.000
   24   23    8    9        3       2.874   0.582   2.092  -5.548  -0.000   0.000
   17   16    8    9        3       2.874   0.582   2.092  -5.548  -0.000   0.000
   42   41   26   34        3       2.874   0.582   2.092  -5.548  -0.000   0.000
   35   34   26   27        3       2.874   0.582   2.092  -5.548  -0.000   0.000
   10    9    8    7        3       2.874   0.582   2.092  -5.548  -0.000   0.000
   42   41   26   27        3       2.874   0.582   2.092  -5.548  -0.000   0.000
   24   23    8    7        3       2.874   0.582   2.092  -5.548  -0.000   0.000
   42   41   26   25        3       2.874   0.582   2.092  -5.548  -0.000   0.000
   17   16    8    7        3       2.874   0.582   2.092  -5.548  -0.000   0.000
   24   23    8   16        3       2.874   0.582   2.092  -5.548  -0.000   0.000
   35   34   26   25        3       2.874   0.582   2.092  -5.548  -0.000   0.000
   47   46   45   43        3      -16.259   9.088   7.171  -0.000  -0.000   0.000
   40   39   38   36        3      -16.259   9.088   7.171  -0.000  -0.000   0.000
   33   32   31   29        3      -16.259   9.088   7.171  -0.000  -0.000   0.000
   22   21   20   18        3      -16.259   9.088   7.171  -0.000  -0.000   0.000
   15   14   13   11        3      -16.259   9.088   7.171  -0.000  -0.000   0.000

[ pairs ]
     1     4    1
     2     5    1
     2     6    1
     3     7    1
     5     7    1
     4     8    1
     6     9    1
     7    10    1
     8    11    1
     9    12    1
     9    13    1
     6    16    1
    10    14    1
     7    17    1
    12    14    1
    11    15    1
    10    16    1
     9    17    1
     8    18    1
     6    23    1
     7    24    1
    10    23    1
     9    24    1
     8    25    1
    16    19    1
    16    20    1
    17    21    1
    19    21    1
    18    22    1
    17    23    1
    16    24    1
    23    26    1
    24    27    1
     3    48    1
     1    51    1
    25    28    1
     4    49    1
     1    52    1
     4    50    1
    26    29    1
     5    51    1
    27    30    1
     6    51    1
     5    52    1
     4    53    1
    27    31    1
    24    34    1
     6    52    1
     4    54    1
    28    32    1
    25    35    1
    30    32    1
    29    33    1
    28    34    1
    27    35    1
    26    36    1
     9    53    1
     7    55    1
     9    54    1
     7    56    1
    24    41    1
    11    55    1
    25    42    1
    11    56    1
    10    57    1
    10    58    1
    28    41    1
    27    42    1
    26    43    1
    16    53    1
    12    57    1
     7    62    1
    16    54    1
    12    58    1
    11    59    1
     7    63    1
    34    37    1
    16    55    1
    11    60    1
     9    62    1
    34    38    1
    16    56    1
    15    57    1
     9    63    1
    15    58    1
    35    39    1
    13    61    1
    37    39    1
    36    40    1
    35    41    1
    34    42    1
    23    53    1
     7    69    1
    23    54    1
     7    70    1
    23    55    1
     9    69    1
    23    56    1
     9    70    1
    18    62    1
    18    63    1
    17    64    1
    17    65    1
    19    64    1
    19    65    1
    18    66    1
    41    44    1
    23    62    1
    18    67    1
    16    69    1
    41    45    1
    23    63    1
    22    64    1
    16    70    1
    22    65    1
    42    46    1
    20    68    1
    44    46    1
    43    47    1
    25    69    1
    23    71    1
    25    70    1
    23    72    1
    48    49    1
    48    50    1
    27    71    1
    25    73    1
    27    72    1
    25    74    1
    49    51    1
    50    51    1
    49    52    1
    50    52    1
    29    73    1
    29    74    1
    28    75    1
    28    76    1
    34    71    1
    30    75    1
    25    80    1
    34    72    1
    30    76    1
    29    77    1
    25    81    1
    34    73    1
    29    78    1
    27    80    1
    34    74    1
    33    75    1
    27    81    1
    33    76    1
    31    79    1
    41    71    1
    25    87    1
    41    72    1
    25    88    1
    41    73    1
    27    87    1
    41    74    1
    27    88    1
    57    59    1
    36    80    1
    58    59    1
    57    60    1
    36    81    1
    35    82    1
    58    60    1
    35    83    1
    37    82    1
    59    61    1
    37    83    1
    36    84    1
    60    61    1
    41    80    1
    36    85    1
    34    87    1
    41    81    1
    40    82    1
    34    88    1
    40    83    1
    38    86    1
    64    66    1
    43    87    1
    65    66    1
    64    67    1
    43    88    1
    42    89    1
    65    67    1
    42    90    1
    44    89    1
    66    68    1
    44    90    1
    43    91    1
    67    68    1
    43    92    1
    47    89    1
    47    90    1
    45    93    1
    75    77    1
    76    77    1
    75    78    1
    76    78    1
    77    79    1
    78    79    1
    82    84    1
    83    84    1
    82    85    1
    83    85    1
    84    86    1
    85    86    1
    89    91    1
    90    91    1
    89    92    1
    90    92    1
    91    93    1
    92    93    1

