
;
; GENERATED BY LigParGen Server
; Jorgensen Lab @ Yale University 
;
[ atomtypes ]
  opls_818  H818     1.0080     0.000    A    2.50000E-01   1.25520E-01
  opls_826  H826     1.0080     0.000    A    2.42000E-01   1.25520E-01
  opls_814  C814    12.0110     0.000    A    3.50000E-01   2.76144E-01
  opls_808  O808    15.9990     0.000    A    2.96000E-01   8.78640E-01
  opls_816  C816    12.0110     0.000    A    3.55000E-01   2.92880E-01
  opls_828  H828     1.0080     0.000    A    2.50000E-01   1.25520E-01
  opls_801  O801    15.9990     0.000    A    2.90000E-01   5.85760E-01
  opls_803  O803    15.9990     0.000    A    2.96000E-01   8.78640E-01
  opls_827  H827     1.0080     0.000    A    2.50000E-01   1.25520E-01
  opls_822  H822     1.0080     0.000    A    2.50000E-01   1.25520E-01
  opls_809  N809    14.0070     0.000    A    3.25000E-01   7.11280E-01
  opls_821  H821     1.0080     0.000    A    2.50000E-01   1.25520E-01
  opls_820  H820     1.0080     0.000    A    2.50000E-01   1.25520E-01
  opls_812  C812    12.0110     0.000    A    3.55000E-01   2.92880E-01
  opls_813  C813    12.0110     0.000    A    3.55000E-01   2.92880E-01
  opls_815  C815    12.0110     0.000    A    3.55000E-01   2.92880E-01
  opls_824  H824     1.0080     0.000    A    0.00000E+00   0.00000E+00
  opls_810  C810    12.0110     0.000    A    3.55000E-01   2.92880E-01
  opls_800  C800    12.0110     0.000    A    3.50000E-01   2.76144E-01
  opls_805  C805    12.0110     0.000    A    3.50000E-01   2.76144E-01
  opls_806  S806    32.0600     0.000    A    3.60000E-01   1.48532E+00
  opls_831  H831     1.0080     0.000    A    2.42000E-01   1.25520E-01
  opls_823  H823     1.0080     0.000    A    2.50000E-01   1.25520E-01
  opls_802  C802    12.0110     0.000    A    3.55000E-01   2.92880E-01
  opls_811  C811    12.0110     0.000    A    3.55000E-01   2.92880E-01
  opls_819  H819     1.0080     0.000    A    2.50000E-01   1.25520E-01
  opls_804  C804    12.0110     0.000    A    3.50000E-01   2.76144E-01
  opls_807  C807    12.0110     0.000    A    3.55000E-01   2.92880E-01
  opls_825  H825     1.0080     0.000    A    2.42000E-01   1.25520E-01
  opls_817  H817     1.0080     0.000    A    2.50000E-01   1.25520E-01
  opls_829  H829     1.0080     0.000    A    2.50000E-01   1.25520E-01
  opls_830  H830     1.0080     0.000    A    2.42000E-01   1.25520E-01
[ moleculetype ]
; Name               nrexcl
UNK                   3
[ atoms ]
;   nr       type  resnr residue  atom   cgnr     charge       mass  
     1   opls_800      1    UNK   C00      1    -0.0573    12.0110 
     2   opls_801      1    UNK   O01      1     -0.356    15.9990 
     3   opls_802      1    UNK   C02      1      0.436    12.0110 
     4   opls_803      1    UNK   O03      1    -0.4372    15.9990 
     5   opls_804      1    UNK   C04      1    -0.1805    12.0110 
     6   opls_805      1    UNK   C05      1    -0.0635    12.0110 
     7   opls_806      1    UNK   S06      1    -0.2737    32.0600 
     8   opls_807      1    UNK   C07      1     0.5833    12.0110 
     9   opls_808      1    UNK   O08      1    -0.4139    15.9990 
    10   opls_809      1    UNK   N09      1    -0.9068    14.0070 
    11   opls_810      1    UNK   C0A      1     0.2145    12.0110 
    12   opls_811      1    UNK   C0B      1    -0.1538    12.0110 
    13   opls_812      1    UNK   C0C      1    -0.1117    12.0110 
    14   opls_813      1    UNK   C0D      1    -0.0969    12.0110 
    15   opls_814      1    UNK   C0E      1    -0.1962    12.0110 
    16   opls_815      1    UNK   C0F      1    -0.1117    12.0110 
    17   opls_816      1    UNK   C0G      1    -0.1538    12.0110 
    18   opls_817      1    UNK   H0H      1     0.1041     1.0080 
    19   opls_818      1    UNK   H0I      1     0.1041     1.0080 
    20   opls_819      1    UNK   H0J      1     0.1041     1.0080 
    21   opls_820      1    UNK   H0K      1     0.1463     1.0080 
    22   opls_821      1    UNK   H0M      1     0.1463     1.0080 
    23   opls_822      1    UNK   H0N      1     0.1522     1.0080 
    24   opls_823      1    UNK   H0O      1     0.1522     1.0080 
    25   opls_824      1    UNK   H0P      1     0.4986     1.0080 
    26   opls_825      1    UNK   H0Q      1     0.1502     1.0080 
    27   opls_826      1    UNK   H0R      1     0.1441     1.0080 
    28   opls_827      1    UNK   H0S      1     0.0942     1.0080 
    29   opls_828      1    UNK   H0T      1     0.0942     1.0080 
    30   opls_829      1    UNK   H0U      1     0.0942     1.0080 
    31   opls_830      1    UNK   H0V      1     0.1441     1.0080 
    32   opls_831      1    UNK   H0W      1     0.1502     1.0080 
[ bonds ]
    2     1     1      0.1410 267776.000
    3     2     1      0.1327 179075.200
    4     3     1      0.1229 476976.000
    5     3     1      0.1522 265265.600
    6     5     1      0.1529 224262.400
    7     6     1      0.1810 185769.600
    8     7     1      0.1715 187443.200
    9     8     1      0.1229 476976.000
   10     8     1      0.1335 410032.000
   11    10     1      0.1381 357313.600
   12    11     1      0.1400 392459.200
   13    12     1      0.1400 392459.200
   14    13     1      0.1400 392459.200
   15    14     1      0.1510 265265.600
   16    14     1      0.1400 392459.200
   17    11     1      0.1400 392459.200
   18     1     1      0.1090 284512.000
   19     1     1      0.1090 284512.000
   20     1     1      0.1090 284512.000
   21     5     1      0.1090 284512.000
   22     5     1      0.1090 284512.000
   23     6     1      0.1090 284512.000
   24     6     1      0.1090 284512.000
   25    10     1      0.1010 363171.200
   26    12     1      0.1080 307105.600
   27    13     1      0.1080 307105.600
   28    15     1      0.1090 284512.000
   29    15     1      0.1090 284512.000
   30    15     1      0.1090 284512.000
   31    16     1      0.1080 307105.600
   32    17     1      0.1080 307105.600
   17    16     1      0.1400 392459.200

[ angles ]
;  ai    aj    ak funct            c0            c1            c2            c3 
    1     2     3     1    116.900    694.544
    2     3     4     1    123.400    694.544
    2     3     5     1    111.400    677.808
    3     5     6     1    111.100    527.184
    5     6     7     1    114.700    418.400
    6     7     8     1    105.500    561.660
    7     8     9     1    118.180    584.923
    7     8    10     1    118.180    584.923
    8    10    11     1    121.900    418.400
   10    11    12     1    120.000    585.760
   11    12    13     1    120.000    527.184
   12    13    14     1    120.000    527.184
   13    14    15     1    120.000    585.760
   13    14    16     1    120.000    527.184
   10    11    17     1    120.000    585.760
    2     1    18     1    109.500    292.880
    2     1    19     1    109.500    292.880
    2     1    20     1    109.500    292.880
    3     5    21     1    109.500    292.880
    3     5    22     1    109.500    292.880
    5     6    23     1    110.700    313.800
    5     6    24     1    110.700    313.800
    8    10    25     1    119.800    292.880
   11    12    26     1    120.000    292.880
   12    13    27     1    120.000    292.880
   14    15    28     1    109.500    292.880
   14    15    29     1    109.500    292.880
   14    15    30     1    109.500    292.880
   14    16    31     1    120.000    292.880
   11    17    32     1    120.000    292.880
   14    13    27     1    120.000    292.880
    7     6    24     1    109.500    292.880
   15    14    16     1    120.000    585.760
   21     5    22     1    107.800    276.144
    6     5    22     1    110.700    313.800
   16    17    32     1    120.000    292.880
    7     6    23     1    109.500    292.880
    4     3     5     1    120.400    669.440
   14    16    17     1    120.000    527.184
   18     1    19     1    107.800    276.144
   29    15    30     1    107.800    276.144
   28    15    29     1    107.800    276.144
   28    15    30     1    107.800    276.144
   11    10    25     1    119.800    292.880
   17    16    31     1    120.000    292.880
   23     6    24     1    107.800    276.144
    6     5    21     1    110.700    313.800
   18     1    20     1    107.800    276.144
   12    11    17     1    120.000    527.184
   19     1    20     1    107.800    276.144
    9     8    10     1    122.900    669.440
   13    12    26     1    120.000    292.880
   11    17    16     1    120.000    527.184

[ dihedrals ]
; IMPROPER DIHEDRAL ANGLES 
;  ai    aj    ak    al funct            c0            c1            c2            c3            c4            c5
    16    14    13    15    4        180.000     10.460     2  
    17    11    10    12    4        180.000     10.460     2  
     5     3     2     4    4        180.000     43.932     2  
    25    10     8    11    4        180.000     10.460     2  
    32    17    11    16    4        180.000     10.460     2  
    26    12    11    13    4        180.000     10.460     2  
    31    16    14    17    4        180.000     10.460     2  
    27    13    12    14    4        180.000     10.460     2  
    10     8     7     9    4        180.000     43.932     2  

[ dihedrals ]
; PROPER DIHEDRAL ANGLES
;  ai    aj    ak    al funct            c0            c1            c2            c3            c4            c5
    8    7    6    5        3       0.941   2.314   2.410  -5.665  -0.000   0.000
   17   16   14   13        3      30.334   0.000  -30.334  -0.000  -0.000   0.000
   16   14   13   12        3      30.334   0.000  -30.334  -0.000  -0.000   0.000
   14   16   17   11        3      30.334   0.000  -30.334  -0.000  -0.000   0.000
   16   17   11   12        3      30.334   0.000  -30.334  -0.000  -0.000   0.000
   14   13   12   11        3      30.334   0.000  -30.334  -0.000  -0.000   0.000
   17   11   12   13        3      30.334   0.000  -30.334  -0.000  -0.000   0.000
   17   16   14   15        3      30.334   0.000  -30.334  -0.000  -0.000   0.000
   16   17   11   10        3      30.334   0.000  -30.334  -0.000  -0.000   0.000
   13   12   11   10        3      30.334   0.000  -30.334  -0.000  -0.000   0.000
   17   11   10    8        3       8.786   0.000  -8.786  -0.000  -0.000   0.000
   12   11   10    8        3       8.786   0.000  -8.786  -0.000  -0.000   0.000
   11   10    8    9        3      25.476   0.000  -25.476  -0.000  -0.000   0.000
   11   10    8    7        3      27.196   0.000  -27.196  -0.000  -0.000   0.000
    5    3    2    1        3      31.206  -9.768  -21.439  -0.000  -0.000   0.000
   15   14   13   12        3      30.334   0.000  -30.334  -0.000  -0.000   0.000
    6    5    3    4        3       0.000   0.000   0.000  -0.000  -0.000   0.000
    6    5    3    2        3      -1.157  -3.471   0.000   4.628  -0.000   0.000
   25   10    8    9        3      20.502   0.000  -20.502  -0.000  -0.000   0.000
   25   10    8    7        3      19.456   1.464  -20.920  -0.000  -0.000   0.000
   25   10   11   17        3       8.786   0.000  -8.786  -0.000  -0.000   0.000
   25   10   11   12        3       8.786   0.000  -8.786  -0.000  -0.000   0.000
   31   16   17   11        3      30.334   0.000  -30.334  -0.000  -0.000   0.000
   32   17   16   14        3      30.334   0.000  -30.334  -0.000  -0.000   0.000
   27   13   14   16        3      30.334   0.000  -30.334  -0.000  -0.000   0.000
   26   12   13   14        3      30.334   0.000  -30.334  -0.000  -0.000   0.000
   31   16   14   13        3      30.334   0.000  -30.334  -0.000  -0.000   0.000
   26   12   11   17        3      30.334   0.000  -30.334  -0.000  -0.000   0.000
   32   17   11   12        3      30.334   0.000  -30.334  -0.000  -0.000   0.000
   27   13   12   11        3      30.334   0.000  -30.334  -0.000  -0.000   0.000
   31   16   14   15        3      30.334   0.000  -30.334  -0.000  -0.000   0.000
   27   13   14   15        3      30.334   0.000  -30.334  -0.000  -0.000   0.000
   27   13   12   26        3      30.334   0.000  -30.334  -0.000  -0.000   0.000
   32   17   16   31        3      30.334   0.000  -30.334  -0.000  -0.000   0.000
   26   12   11   10        3      30.334   0.000  -30.334  -0.000  -0.000   0.000
   32   17   11   10        3      30.334   0.000  -30.334  -0.000  -0.000   0.000
   21    5    3    4        3       0.000   0.000   0.000  -0.000  -0.000   0.000
   22    5    3    4        3       0.000   0.000   0.000  -0.000  -0.000   0.000
   21    5    3    2        3       0.276   0.828   0.000  -1.105  -0.000   0.000
   22    5    3    2        3       0.276   0.828   0.000  -1.105  -0.000   0.000
   30   15   14   13        3       0.000   0.000   0.000  -0.000  -0.000   0.000
   28   15   14   13        3       0.000   0.000   0.000  -0.000  -0.000   0.000
   29   15   14   16        3       0.000   0.000   0.000  -0.000  -0.000   0.000
   29   15   14   13        3       0.000   0.000   0.000  -0.000  -0.000   0.000
   28   15   14   16        3       0.000   0.000   0.000  -0.000  -0.000   0.000
   30   15   14   16        3       0.000   0.000   0.000  -0.000  -0.000   0.000
   24    6    5    3        3      -0.209  -0.628   0.000   0.837  -0.000   0.000
   23    6    5    3        3      -0.209  -0.628   0.000   0.837  -0.000   0.000
   23    6    5   22        3       0.628   1.883   0.000  -2.510  -0.000   0.000
   24    6    5   21        3       0.628   1.883   0.000  -2.510  -0.000   0.000
   24    6    5   22        3       0.628   1.883   0.000  -2.510  -0.000   0.000
   23    6    5   21        3       0.628   1.883   0.000  -2.510  -0.000   0.000
   22    5    6    7        3       0.946   2.837   0.000  -3.782  -0.000   0.000
   21    5    6    7        3       0.946   2.837   0.000  -3.782  -0.000   0.000
   19    1    2    3        3       0.414   1.243   0.000  -1.657  -0.000   0.000
   18    1    2    3        3       0.414   1.243   0.000  -1.657  -0.000   0.000
   20    1    2    3        3       0.414   1.243   0.000  -1.657  -0.000   0.000
   24    6    7    8        3       1.354   4.061   0.000  -5.414  -0.000   0.000
   23    6    7    8        3       1.354   4.061   0.000  -5.414  -0.000   0.000
   10    8    7    6        3       9.623  -9.623   0.000  -0.000  -0.000   0.000
    4    3    2    1        3      21.439   0.000  -21.439  -0.000  -0.000   0.000
    9    8    7    6        3      25.476   0.000  -25.476  -0.000  -0.000   0.000
    7    6    5    3        3      -16.259   9.088   7.171  -0.000  -0.000   0.000

[ pairs ]
     1     4    1
     1     5    1
     2     6    1
     4     6    1
     3     7    1
     5     8    1
     6     9    1
     6    10    1
     7    11    1
     9    11    1
     8    12    1
     3    18    1
     3    19    1
    10    13    1
     3    20    1
     2    21    1
     2    22    1
    11    14    1
     8    17    1
     4    21    1
    10    16    1
     4    22    1
     3    23    1
    12    15    1
     3    24    1
    12    16    1
     7    21    1
     7    22    1
    13    17    1
     8    23    1
    15    17    1
     8    24    1
     7    25    1
     9    25    1
    10    26    1
    12    25    1
    11    27    1
    14    26    1
    13    28    1
    17    25    1
    15    27    1
    13    29    1
    11    31    1
    10    32    1
    17    26    1
    16    27    1
    13    30    1
    21    23    1
    16    28    1
    13    31    1
    12    32    1
    22    23    1
    21    24    1
    16    29    1
    22    24    1
    16    30    1
    15    31    1
    14    32    1
    26    27    1
    31    32    1

