LIGPARGEN GENERATED GRO FILE
   32
    1UNK    C00    1   0.100   0.100   0.000
    1UNK    O01    2  -0.043   0.100   0.000
    1UNK    C02    3  -0.098   0.100   0.125
    1UNK    O03    4  -0.034   0.100   0.229
    1UNK    C04    5  -0.249   0.100   0.113
    1UNK    C05    6  -0.311   0.100   0.252
    1UNK    S06    7  -0.493   0.100   0.243
    1UNK    C07    8  -0.523   0.084   0.415
    1UNK    O08    9  -0.434   0.099   0.497
    1UNK    N09   10  -0.656   0.060   0.439
    1UNK    C0A   11  -0.707   0.044   0.569
    1UNK    C0B   12  -0.832   0.098   0.600
    1UNK    C0C   13  -0.876   0.097   0.733
    1UNK    C0D   14  -0.800   0.037   0.834
    1UNK    C0E   15  -0.842   0.042   0.977
    1UNK    C0F   16  -0.681  -0.028   0.799
    1UNK    C0G   17  -0.636  -0.025   0.667
    1UNK    H0H   18   0.134   0.100  -0.104
    1UNK    H0I   19   0.138   0.010   0.049
    1UNK    H0J   20   0.138   0.190   0.049
    1UNK    H0K   21  -0.278   0.010   0.058
    1UNK    H0M   22  -0.279   0.189   0.057
    1UNK    H0N   23  -0.279   0.189   0.307
    1UNK    H0O   24  -0.278   0.011   0.307
    1UNK    H0P   25  -0.719   0.084   0.364
    1UNK    H0Q   26  -0.891   0.149   0.525
    1UNK    H0R   27  -0.970   0.147   0.757
    1UNK    H0S   28  -0.928   0.108   0.991
    1UNK    H0T   29  -0.760   0.081   1.039
    1UNK    H0U   30  -0.869  -0.058   1.013
    1UNK    H0V   31  -0.622  -0.079   0.874
    1UNK    H0W   32  -0.543  -0.078   0.642
   1.00000   1.00000   1.00000

