
;
; GENERATED BY LigParGen Server
; Jorgensen Lab @ Yale University 
;
[ atomtypes ]
  opls_818  H818     1.0080     0.000    A    2.50000E-01   1.25520E-01
  opls_803  O803    15.9990     0.000    A    2.90000E-01   5.85760E-01
  opls_824  H824     1.0080     0.000    A    2.50000E-01   1.25520E-01
  opls_809  O809    15.9990     0.000    A    2.90000E-01   5.85760E-01
  opls_800  O800    15.9990     0.000    A    3.12000E-01   7.11280E-01
  opls_828  H828     1.0080     0.000    A    2.50000E-01   1.25520E-01
  opls_806  O806    15.9990     0.000    A    2.90000E-01   5.85760E-01
  opls_802  C802    12.0110     0.000    A    3.50000E-01   2.76144E-01
  opls_815  H815     1.0080     0.000    A    2.50000E-01   1.25520E-01
  opls_801  C801    12.0110     0.000    A    3.50000E-01   2.76144E-01
  opls_822  H822     1.0080     0.000    A    2.50000E-01   1.25520E-01
  opls_807  C807    12.0110     0.000    A    3.50000E-01   2.76144E-01
  opls_825  H825     1.0080     0.000    A    2.50000E-01   1.25520E-01
  opls_814  H814     1.0080     0.000    A    2.50000E-01   1.25520E-01
  opls_810  C810    12.0110     0.000    A    3.50000E-01   2.76144E-01
  opls_820  H820     1.0080     0.000    A    2.50000E-01   1.25520E-01
  opls_821  H821     1.0080     0.000    A    2.50000E-01   1.25520E-01
  opls_816  H816     1.0080     0.000    A    2.50000E-01   1.25520E-01
  opls_812  O812    15.9990     0.000    A    3.12000E-01   7.11280E-01
  opls_811  C811    12.0110     0.000    A    3.50000E-01   2.76144E-01
  opls_823  H823     1.0080     0.000    A    2.50000E-01   1.25520E-01
  opls_813  H813     1.0080     0.000    A    0.00000E+00   0.00000E+00
  opls_805  C805    12.0110     0.000    A    3.50000E-01   2.76144E-01
  opls_826  H826     1.0080     0.000    A    2.50000E-01   1.25520E-01
  opls_819  H819     1.0080     0.000    A    2.50000E-01   1.25520E-01
  opls_804  C804    12.0110     0.000    A    3.50000E-01   2.76144E-01
  opls_827  H827     1.0080     0.000    A    2.50000E-01   1.25520E-01
  opls_808  C808    12.0110     0.000    A    3.50000E-01   2.76144E-01
  opls_817  H817     1.0080     0.000    A    2.50000E-01   1.25520E-01
  opls_829  H829     1.0080     0.000    A    2.50000E-01   1.25520E-01
  opls_830  H830     1.0080     0.000    A    0.00000E+00   0.00000E+00
[ moleculetype ]
; Name               nrexcl
UNK                   3
[ atoms ]
;   nr       type  resnr residue  atom   cgnr     charge       mass  
     1   opls_800      1    UNK   O00      1    -0.6888    15.9990 
     2   opls_801      1    UNK   C01      1     0.1085    12.0110 
     3   opls_802      1    UNK   C02      1     0.0084    12.0110 
     4   opls_803      1    UNK   O03      1    -0.3854    15.9990 
     5   opls_804      1    UNK   C04      1     0.0086    12.0110 
     6   opls_805      1    UNK   C05      1     0.0088    12.0110 
     7   opls_806      1    UNK   O06      1    -0.3849    15.9990 
     8   opls_807      1    UNK   C07      1     0.0089    12.0110 
     9   opls_808      1    UNK   C08      1     0.0069    12.0110 
    10   opls_809      1    UNK   O09      1    -0.3993    15.9990 
    11   opls_810      1    UNK   C0A      1    -0.0409    12.0110 
    12   opls_811      1    UNK   C0B      1     0.1082    12.0110 
    13   opls_812      1    UNK   O0C      1    -0.6858    15.9990 
    14   opls_813      1    UNK   H0D      1     0.4177     1.0080 
    15   opls_814      1    UNK   H0E      1     0.0823     1.0080 
    16   opls_815      1    UNK   H0F      1     0.0823     1.0080 
    17   opls_816      1    UNK   H0G      1     0.0926     1.0080 
    18   opls_817      1    UNK   H0H      1     0.0926     1.0080 
    19   opls_818      1    UNK   H0I      1     0.0916     1.0080 
    20   opls_819      1    UNK   H0J      1     0.0916     1.0080 
    21   opls_820      1    UNK   H0K      1     0.0917     1.0080 
    22   opls_821      1    UNK   H0M      1     0.0917     1.0080 
    23   opls_822      1    UNK   H0N      1     0.0914     1.0080 
    24   opls_823      1    UNK   H0O      1     0.0914     1.0080 
    25   opls_824      1    UNK   H0P      1      0.092     1.0080 
    26   opls_825      1    UNK   H0Q      1      0.092     1.0080 
    27   opls_826      1    UNK   H0R      1     0.0946     1.0080 
    28   opls_827      1    UNK   H0S      1     0.0946     1.0080 
    29   opls_828      1    UNK   H0T      1     0.1069     1.0080 
    30   opls_829      1    UNK   H0U      1     0.1069     1.0080 
    31   opls_830      1    UNK   H0V      1     0.4235     1.0080 
[ bonds ]
    2     1     1      0.1410 267776.000
    3     2     1      0.1529 224262.400
    4     3     1      0.1410 267776.000
    5     4     1      0.1410 267776.000
    6     5     1      0.1529 224262.400
    7     6     1      0.1410 267776.000
    8     7     1      0.1410 267776.000
    9     8     1      0.1529 224262.400
   10     9     1      0.1410 267776.000
   11    10     1      0.1410 267776.000
   12    11     1      0.1529 224262.400
   13    12     1      0.1410 267776.000
   14     1     1      0.0945 462750.400
   15     2     1      0.1090 284512.000
   16     2     1      0.1090 284512.000
   17     3     1      0.1090 284512.000
   18     3     1      0.1090 284512.000
   19     5     1      0.1090 284512.000
   20     5     1      0.1090 284512.000
   21     6     1      0.1090 284512.000
   22     6     1      0.1090 284512.000
   23     8     1      0.1090 284512.000
   24     8     1      0.1090 284512.000
   25     9     1      0.1090 284512.000
   26     9     1      0.1090 284512.000
   27    11     1      0.1090 284512.000
   28    11     1      0.1090 284512.000
   29    12     1      0.1090 284512.000
   30    12     1      0.1090 284512.000
   31    13     1      0.0945 462750.400

[ angles ]
;  ai    aj    ak funct            c0            c1            c2            c3 
    1     2     3     1    109.500    418.400
    2     3     4     1    109.500    418.400
    3     4     5     1    109.500    502.080
    4     5     6     1    109.500    418.400
    5     6     7     1    109.500    418.400
    6     7     8     1    109.500    502.080
    7     8     9     1    109.500    418.400
    8     9    10     1    109.500    418.400
    9    10    11     1    109.500    502.080
   10    11    12     1    109.500    418.400
   11    12    13     1    109.500    418.400
    2     1    14     1    108.500    460.240
    1     2    15     1    109.500    292.880
    1     2    16     1    109.500    292.880
    2     3    17     1    110.700    313.800
    2     3    18     1    110.700    313.800
    4     5    19     1    109.500    292.880
    4     5    20     1    109.500    292.880
    5     6    21     1    110.700    313.800
    5     6    22     1    110.700    313.800
    7     8    23     1    109.500    292.880
    7     8    24     1    109.500    292.880
    8     9    25     1    110.700    313.800
    8     9    26     1    110.700    313.800
   10    11    27     1    109.500    292.880
   10    11    28     1    109.500    292.880
   11    12    29     1    110.700    313.800
   11    12    30     1    110.700    313.800
   12    13    31     1    108.500    460.240
   25     9    26     1    107.800    276.144
   23     8    24     1    107.800    276.144
    3     2    15     1    110.700    313.800
   29    12    30     1    107.800    276.144
   12    11    27     1    110.700    313.800
   15     2    16     1    107.800    276.144
    7     6    22     1    109.500    292.880
   21     6    22     1    107.800    276.144
   27    11    28     1    107.800    276.144
    6     5    19     1    110.700    313.800
    9     8    23     1    110.700    313.800
   13    12    29     1    109.500    292.880
    3     2    16     1    110.700    313.800
    4     3    18     1    109.500    292.880
    9     8    24     1    110.700    313.800
   19     5    20     1    107.800    276.144
   13    12    30     1    109.500    292.880
    6     5    20     1    110.700    313.800
   10     9    25     1    109.500    292.880
   10     9    26     1    109.500    292.880
    4     3    17     1    109.500    292.880
   17     3    18     1    107.800    276.144
   12    11    28     1    110.700    313.800
    7     6    21     1    109.500    292.880

[ dihedrals ]
; IMPROPER DIHEDRAL ANGLES 
;  ai    aj    ak    al funct            c0            c1            c2            c3            c4            c5

[ dihedrals ]
; PROPER DIHEDRAL ANGLES
;  ai    aj    ak    al funct            c0            c1            c2            c3            c4            c5
    6    5    4    3        3       1.715   2.845   1.046  -5.607  -0.000   0.000
    9    8    7    6        3       1.715   2.845   1.046  -5.607  -0.000   0.000
   12   11   10    9        3       1.715   2.845   1.046  -5.607  -0.000   0.000
    5    4    3    2        3       1.715   2.845   1.046  -5.607  -0.000   0.000
    8    7    6    5        3       1.715   2.845   1.046  -5.607  -0.000   0.000
   11   10    9    8        3       1.715   2.845   1.046  -5.607  -0.000   0.000
   18    3    2   15        3       0.628   1.883   0.000  -2.510  -0.000   0.000
   18    3    2   16        3       0.628   1.883   0.000  -2.510  -0.000   0.000
   21    6    5   20        3       0.628   1.883   0.000  -2.510  -0.000   0.000
   21    6    5   19        3       0.628   1.883   0.000  -2.510  -0.000   0.000
   22    6    5   19        3       0.628   1.883   0.000  -2.510  -0.000   0.000
   29   12   11   28        3       0.628   1.883   0.000  -2.510  -0.000   0.000
   30   12   11   28        3       0.628   1.883   0.000  -2.510  -0.000   0.000
   17    3    2   16        3       0.628   1.883   0.000  -2.510  -0.000   0.000
   22    6    5   20        3       0.628   1.883   0.000  -2.510  -0.000   0.000
   30   12   11   27        3       0.628   1.883   0.000  -2.510  -0.000   0.000
   17    3    2   15        3       0.628   1.883   0.000  -2.510  -0.000   0.000
   26    9    8   24        3       0.628   1.883   0.000  -2.510  -0.000   0.000
   26    9    8   23        3       0.628   1.883   0.000  -2.510  -0.000   0.000
   29   12   11   27        3       0.628   1.883   0.000  -2.510  -0.000   0.000
   25    9    8   23        3       0.628   1.883   0.000  -2.510  -0.000   0.000
   25    9    8   24        3       0.628   1.883   0.000  -2.510  -0.000   0.000
   28   11   12   13        3       0.979   2.937   0.000  -3.916  -0.000   0.000
   18    3    2    1        3       0.979   2.937   0.000  -3.916  -0.000   0.000
   27   11   12   13        3       0.979   2.937   0.000  -3.916  -0.000   0.000
   17    3    2    1        3       0.979   2.937   0.000  -3.916  -0.000   0.000
   19    5    6    7        3       0.979   2.937   0.000  -3.916  -0.000   0.000
   20    5    6    7        3       0.979   2.937   0.000  -3.916  -0.000   0.000
   30   12   11   10        3       0.979   2.937   0.000  -3.916  -0.000   0.000
   26    9    8    7        3       0.979   2.937   0.000  -3.916  -0.000   0.000
   24    8    9   10        3       0.979   2.937   0.000  -3.916  -0.000   0.000
   22    6    5    4        3       0.979   2.937   0.000  -3.916  -0.000   0.000
   23    8    9   10        3       0.979   2.937   0.000  -3.916  -0.000   0.000
   29   12   11   10        3       0.979   2.937   0.000  -3.916  -0.000   0.000
   21    6    5    4        3       0.979   2.937   0.000  -3.916  -0.000   0.000
   25    9    8    7        3       0.979   2.937   0.000  -3.916  -0.000   0.000
   15    2    3    4        3       0.979   2.937   0.000  -3.916  -0.000   0.000
   16    2    3    4        3       0.979   2.937   0.000  -3.916  -0.000   0.000
   16    2    1   14        3       0.736   2.209   0.000  -2.946  -0.000   0.000
   15    2    1   14        3       0.736   2.209   0.000  -2.946  -0.000   0.000
   21    6    7    8        3       1.590   4.770   0.000  -6.360  -0.000   0.000
   24    8    7    6        3       1.590   4.770   0.000  -6.360  -0.000   0.000
   22    6    7    8        3       1.590   4.770   0.000  -6.360  -0.000   0.000
   28   11   10    9        3       1.590   4.770   0.000  -6.360  -0.000   0.000
   26    9   10   11        3       1.590   4.770   0.000  -6.360  -0.000   0.000
   19    5    4    3        3       1.590   4.770   0.000  -6.360  -0.000   0.000
   25    9   10   11        3       1.590   4.770   0.000  -6.360  -0.000   0.000
   17    3    4    5        3       1.590   4.770   0.000  -6.360  -0.000   0.000
   20    5    4    3        3       1.590   4.770   0.000  -6.360  -0.000   0.000
   23    8    7    6        3       1.590   4.770   0.000  -6.360  -0.000   0.000
   18    3    4    5        3       1.590   4.770   0.000  -6.360  -0.000   0.000
   27   11   10    9        3       1.590   4.770   0.000  -6.360  -0.000   0.000
   31   13   12   11        3      -0.444   3.833   0.728  -4.117  -0.000   0.000
   14    1    2    3        3      -0.444   3.833   0.728  -4.117  -0.000   0.000
   31   13   12   30        3       0.736   2.209   0.000  -2.946  -0.000   0.000
   31   13   12   29        3       0.736   2.209   0.000  -2.946  -0.000   0.000
   13   12   11   10        3       9.035  -9.035   0.000  -0.000  -0.000   0.000
    4    3    2    1        3       9.035  -9.035   0.000  -0.000  -0.000   0.000
    7    6    5    4        3      -1.151   1.151   0.000  -0.000  -0.000   0.000
   10    9    8    7        3      -1.151   1.151   0.000  -0.000  -0.000   0.000

[ pairs ]
     1     4    1
     2     5    1
     3     6    1
     4     7    1
     5     8    1
     6     9    1
     7    10    1
     3    14    1
     1    17    1
     8    11    1
     4    15    1
     1    18    1
     4    16    1
     9    12    1
     5    17    1
     3    19    1
    10    13    1
     5    18    1
     3    20    1
     4    21    1
     7    19    1
     4    22    1
     7    20    1
    14    15    1
     8    21    1
     6    23    1
    14    16    1
     8    22    1
     6    24    1
    15    17    1
     7    25    1
    16    17    1
    15    18    1
    10    23    1
     7    26    1
    16    18    1
    10    24    1
    11    25    1
     9    27    1
    11    26    1
     9    28    1
    10    29    1
    19    21    1
    13    27    1
    10    30    1
    20    21    1
    19    22    1
    13    28    1
    20    22    1
    11    31    1
    23    25    1
    24    25    1
    23    26    1
    24    26    1
    27    29    1
    28    29    1
    27    30    1
    28    30    1
    29    31    1
    30    31    1

