LIGPARGEN GENERATED GRO FILE
   31
    1UNK    O00    1   0.100   0.100   0.000
    1UNK    C01    2  -0.042   0.100   0.000
    1UNK    C02    3  -0.095   0.100   0.143
    1UNK    O03    4  -0.238   0.100   0.141
    1UNK    C04    5  -0.291   0.100   0.273
    1UNK    C05    6  -0.443   0.100   0.267
    1UNK    O06    7  -0.496   0.101   0.399
    1UNK    C07    8  -0.639   0.101   0.398
    1UNK    C08    9  -0.690   0.101   0.542
    1UNK    O09   10  -0.833   0.101   0.543
    1UNK    C0A   11  -0.883   0.101   0.678
    1UNK    C0B   12  -1.036   0.102   0.672
    1UNK    O0C   13  -1.082  -0.015   0.605
    1UNK    H0D   14   0.128   0.100  -0.093
    1UNK    H0E   15  -0.078   0.012  -0.054
    1UNK    H0F   16  -0.078   0.189  -0.054
    1UNK    H0G   17  -0.058   0.189   0.196
    1UNK    H0H   18  -0.058   0.011   0.196
    1UNK    H0I   19  -0.256   0.189   0.328
    1UNK    H0J   20  -0.256   0.012   0.328
    1UNK    H0K   21  -0.478   0.012   0.213
    1UNK    H0M   22  -0.478   0.189   0.212
    1UNK    H0N   23  -0.677   0.012   0.346
    1UNK    H0O   24  -0.677   0.190   0.346
    1UNK    H0P   25  -0.652   0.190   0.595
    1UNK    H0Q   26  -0.652   0.012   0.595
    1UNK    H0R   27  -0.847   0.190   0.731
    1UNK    H0S   28  -0.848   0.011   0.729
    1UNK    H0T   29  -1.072   0.189   0.617
    1UNK    H0U   30  -1.078   0.103   0.773
    1UNK    H0V   31  -1.030  -0.019   0.522
   1.00000   1.00000   1.00000

