LIGPARGEN GENERATED GRO FILE
   83
    1UNK    C00    1   0.100   0.100   0.000
    1UNK    S01    2  -0.082   0.100   0.000
    1UNK    C02    3  -0.119   0.100   0.174
    1UNK    O03    4  -0.029   0.093   0.255
    1UNK    N04    5  -0.254   0.108   0.203
    1UNK    C05    6  -0.318   0.147   0.328
    1UNK    C06    7  -0.247   0.208   0.439
    1UNK    C07    8  -0.311   0.288   0.540
    1UNK    N08    9  -0.240   0.370   0.640
    1UNK    C09   10  -0.226   0.512   0.642
    1UNK    O0A   11  -0.296   0.593   0.581
    1UNK    O0B   12  -0.121   0.556   0.722
    1UNK    C0C   13  -0.081   0.699   0.712
    1UNK    C0D   14  -0.196   0.794   0.750
    1UNK    C0E   15   0.040   0.732   0.805
    1UNK    O0F   16   0.168   0.679   0.765
    1UNK    C0G   17   0.225   0.729   0.643
    1UNK    C0H   18   0.256   0.877   0.648
    1UNK    C0I   19   0.356   0.649   0.615
    1UNK    O0J   20   0.338   0.508   0.590
    1UNK    C0K   21   0.250   0.480   0.481
    1UNK    C0M   22   0.305   0.531   0.347
    1UNK    C0N   23   0.214   0.331   0.464
    1UNK    O0O   24   0.124   0.319   0.349
    1UNK    C0P   25   0.003   0.384   0.361
    1UNK    O0Q   26  -0.033   0.424   0.470
    1UNK    N0R   27  -0.063   0.396   0.238
    1UNK    C0S   28  -0.201   0.434   0.217
    1UNK    C0T   29  -0.272   0.498   0.316
    1UNK    C0U   30  -0.412   0.510   0.319
    1UNK    C0V   31  -0.489   0.456   0.217
    1UNK    C0W   32  -0.637   0.438   0.249
    1UNK    C0X   33  -0.419   0.405   0.106
    1UNK    N0Y   34  -0.495   0.348  -0.003
    1UNK    C0Z   35  -0.460   0.234  -0.071
    1UNK    O10   36  -0.360   0.167  -0.061
    1UNK    S11   37  -0.598   0.180  -0.169
    1UNK    C12   38  -0.564   0.002  -0.179
    1UNK    C13   39  -0.276   0.398   0.105
    1UNK    C14   40  -0.449   0.277   0.546
    1UNK    C15   41  -0.519   0.199   0.451
    1UNK    C16   42  -0.458   0.141   0.337
    1UNK    C17   43  -0.550   0.090   0.230
    1UNK    H18   44   0.137   0.078  -0.101
    1UNK    H19   45   0.139   0.023   0.066
    1UNK    H1A   46   0.142   0.197   0.029
    1UNK    H1B   47  -0.315   0.103   0.120
    1UNK    H1C   48  -0.139   0.202   0.439
    1UNK    H1D   49  -0.156   0.329   0.677
    1UNK    H1E   50  -0.052   0.718   0.608
    1UNK    H1F   51  -0.243   0.762   0.843
    1UNK    H1G   52  -0.274   0.796   0.673
    1UNK    H1H   53  -0.162   0.898   0.760
    1UNK    H1I   54   0.021   0.690   0.904
    1UNK    H1J   55   0.052   0.840   0.819
    1UNK    H1K   56   0.154   0.714   0.562
    1UNK    H1M   57   0.321   0.904   0.731
    1UNK    H1N   58   0.165   0.938   0.655
    1UNK    H1O   59   0.307   0.909   0.554
    1UNK    H1P   60   0.422   0.657   0.701
    1UNK    H1Q   61   0.409   0.692   0.530
    1UNK    H1R   62   0.157   0.531   0.502
    1UNK    H1S   63   0.406   0.492   0.331
    1UNK    H1T   64   0.308   0.639   0.345
    1UNK    H1U   65   0.242   0.500   0.263
    1UNK    H1V   66   0.171   0.287   0.555
    1UNK    H1W   67   0.305   0.273   0.444
    1UNK    H1X   68  -0.015   0.349   0.164
    1UNK    H1Y   69  -0.216   0.527   0.403
    1UNK    H1Z   70  -0.458   0.545   0.411
    1UNK    H20   71  -0.655   0.454   0.357
    1UNK    H21   72  -0.671   0.335   0.233
    1UNK    H22   73  -0.702   0.506   0.195
    1UNK    H23   74  -0.593   0.372  -0.005
    1UNK    H24   75  -0.630  -0.041  -0.256
    1UNK    H25   76  -0.587  -0.049  -0.085
    1UNK    H26   77  -0.461  -0.020  -0.208
    1UNK    H27   78  -0.226   0.351   0.021
    1UNK    H28   79  -0.506   0.328   0.623
    1UNK    H29   80  -0.628   0.191   0.462
    1UNK    H2A   81  -0.644   0.051   0.272
    1UNK    H2B   82  -0.507   0.011   0.167
    1UNK    H2C   83  -0.582   0.171   0.165
   1.00000   1.00000   1.00000

