
;
; GENERATED BY LigParGen Server
; Jorgensen Lab @ Yale University 
;
[ atomtypes ]
  opls_846  H846     1.0080     0.000    A    0.00000E+00   0.00000E+00
  opls_867  H867     1.0080     0.000    A    0.00000E+00   0.00000E+00
  opls_827  C827    12.0110     0.000    A    3.55000E-01   2.92880E-01
  opls_831  C831    12.0110     0.000    A    3.50000E-01   2.76144E-01
  opls_814  C814    12.0110     0.000    A    3.50000E-01   2.76144E-01
  opls_848  H848     1.0080     0.000    A    0.00000E+00   0.00000E+00
  opls_874  H874     1.0080     0.000    A    2.50000E-01   1.25520E-01
  opls_864  H864     1.0080     0.000    A    2.50000E-01   1.25520E-01
  opls_815  O815    15.9990     0.000    A    2.90000E-01   5.85760E-01
  opls_823  O823    15.9990     0.000    A    2.90000E-01   5.85760E-01
  opls_822  C822    12.0110     0.000    A    3.50000E-01   2.76144E-01
  opls_818  C818    12.0110     0.000    A    3.50000E-01   2.76144E-01
  opls_801  S801    32.0600     0.000    A    3.60000E-01   1.48532E+00
  opls_843  H843     1.0080     0.000    A    2.50000E-01   1.25520E-01
  opls_842  C842    12.0110     0.000    A    3.50000E-01   2.76144E-01
  opls_878  H878     1.0080     0.000    A    2.42000E-01   1.25520E-01
  opls_849  H849     1.0080     0.000    A    2.50000E-01   1.25520E-01
  opls_837  C837    12.0110     0.000    A    3.50000E-01   2.76144E-01
  opls_835  O835    15.9990     0.000    A    2.96000E-01   8.78640E-01
  opls_881  H881     1.0080     0.000    A    2.50000E-01   1.25520E-01
  opls_804  N804    14.0070     0.000    A    3.25000E-01   7.11280E-01
  opls_803  O803    15.9990     0.000    A    2.96000E-01   8.78640E-01
  opls_875  H875     1.0080     0.000    A    2.50000E-01   1.25520E-01
  opls_824  C824    12.0110     0.000    A    3.55000E-01   2.92880E-01
  opls_829  C829    12.0110     0.000    A    3.55000E-01   2.92880E-01
  opls_812  C812    12.0110     0.000    A    3.50000E-01   2.76144E-01
  opls_844  H844     1.0080     0.000    A    2.50000E-01   1.25520E-01
  opls_857  H857     1.0080     0.000    A    2.50000E-01   1.25520E-01
  opls_841  C841    12.0110     0.000    A    3.55000E-01   2.92880E-01
  opls_826  N826    14.0070     0.000    A    3.25000E-01   7.11280E-01
  opls_880  H880     1.0080     0.000    A    2.50000E-01   1.25520E-01
  opls_810  O810    15.9990     0.000    A    2.96000E-01   8.78640E-01
  opls_852  H852     1.0080     0.000    A    2.50000E-01   1.25520E-01
  opls_809  C809    12.0110     0.000    A    3.55000E-01   2.92880E-01
  opls_847  H847     1.0080     0.000    A    2.42000E-01   1.25520E-01
  opls_865  H865     1.0080     0.000    A    2.50000E-01   1.25520E-01
  opls_876  H876     1.0080     0.000    A    2.50000E-01   1.25520E-01
  opls_825  O825    15.9990     0.000    A    2.96000E-01   8.78640E-01
  opls_819  O819    15.9990     0.000    A    2.90000E-01   5.85760E-01
  opls_805  C805    12.0110     0.000    A    3.55000E-01   2.92880E-01
  opls_868  H868     1.0080     0.000    A    2.42000E-01   1.25520E-01
  opls_873  H873     1.0080     0.000    A    0.00000E+00   0.00000E+00
  opls_800  C800    12.0110     0.000    A    3.50000E-01   2.76144E-01
  opls_858  H858     1.0080     0.000    A    2.50000E-01   1.25520E-01
  opls_856  H856     1.0080     0.000    A    2.50000E-01   1.25520E-01
  opls_836  S836    32.0600     0.000    A    3.60000E-01   1.48532E+00
  opls_862  H862     1.0080     0.000    A    2.50000E-01   1.25520E-01
  opls_851  H851     1.0080     0.000    A    2.50000E-01   1.25520E-01
  opls_802  C802    12.0110     0.000    A    3.55000E-01   2.92880E-01
  opls_833  N833    14.0070     0.000    A    3.25000E-01   7.11280E-01
  opls_832  C832    12.0110     0.000    A    3.55000E-01   2.92880E-01
  opls_830  C830    12.0110     0.000    A    3.55000E-01   2.92880E-01
  opls_813  C813    12.0110     0.000    A    3.50000E-01   2.76144E-01
  opls_806  C806    12.0110     0.000    A    3.55000E-01   2.92880E-01
  opls_820  C820    12.0110     0.000    A    3.50000E-01   2.76144E-01
  opls_882  H882     1.0080     0.000    A    2.50000E-01   1.25520E-01
  opls_866  H866     1.0080     0.000    A    2.50000E-01   1.25520E-01
  opls_871  H871     1.0080     0.000    A    2.50000E-01   1.25520E-01
  opls_860  H860     1.0080     0.000    A    2.50000E-01   1.25520E-01
  opls_821  C821    12.0110     0.000    A    3.50000E-01   2.76144E-01
  opls_816  C816    12.0110     0.000    A    3.50000E-01   2.76144E-01
  opls_861  H861     1.0080     0.000    A    2.50000E-01   1.25520E-01
  opls_811  O811    15.9990     0.000    A    2.90000E-01   5.85760E-01
  opls_834  C834    12.0110     0.000    A    3.55000E-01   2.92880E-01
  opls_817  C817    12.0110     0.000    A    3.50000E-01   2.76144E-01
  opls_870  H870     1.0080     0.000    A    2.50000E-01   1.25520E-01
  opls_855  H855     1.0080     0.000    A    2.50000E-01   1.25520E-01
  opls_807  C807    12.0110     0.000    A    3.55000E-01   2.92880E-01
  opls_850  H850     1.0080     0.000    A    2.50000E-01   1.25520E-01
  opls_853  H853     1.0080     0.000    A    2.50000E-01   1.25520E-01
  opls_839  C839    12.0110     0.000    A    3.55000E-01   2.92880E-01
  opls_808  N808    14.0070     0.000    A    3.25000E-01   7.11280E-01
  opls_872  H872     1.0080     0.000    A    2.50000E-01   1.25520E-01
  opls_877  H877     1.0080     0.000    A    2.42000E-01   1.25520E-01
  opls_854  H854     1.0080     0.000    A    2.50000E-01   1.25520E-01
  opls_838  C838    12.0110     0.000    A    3.55000E-01   2.92880E-01
  opls_879  H879     1.0080     0.000    A    2.42000E-01   1.25520E-01
  opls_863  H863     1.0080     0.000    A    2.50000E-01   1.25520E-01
  opls_869  H869     1.0080     0.000    A    2.42000E-01   1.25520E-01
  opls_828  C828    12.0110     0.000    A    3.55000E-01   2.92880E-01
  opls_845  H845     1.0080     0.000    A    2.50000E-01   1.25520E-01
  opls_840  C840    12.0110     0.000    A    3.55000E-01   2.92880E-01
  opls_859  H859     1.0080     0.000    A    2.50000E-01   1.25520E-01
[ moleculetype ]
; Name               nrexcl
UNK                   3
[ atoms ]
;   nr       type  resnr residue  atom   cgnr     charge       mass  
     1   opls_800      1    UNK   C00      1    -0.1456    12.0110 
     2   opls_801      1    UNK   S01      1    -0.2403    32.0600 
     3   opls_802      1    UNK   C02      1     0.6021    12.0110 
     4   opls_803      1    UNK   O03      1     -0.426    15.9990 
     5   opls_804      1    UNK   N04      1    -0.9562    14.0070 
     6   opls_805      1    UNK   C05      1     0.2809    12.0110 
     7   opls_806      1    UNK   C06      1    -0.1741    12.0110 
     8   opls_807      1    UNK   C07      1     0.2484    12.0110 
     9   opls_808      1    UNK   N08      1    -0.8573    14.0070 
    10   opls_809      1    UNK   C09      1     0.7158    12.0110 
    11   opls_810      1    UNK   O0A      1    -0.4952    15.9990 
    12   opls_811      1    UNK   O0B      1    -0.3705    15.9990 
    13   opls_812      1    UNK   C0C      1     0.0812    12.0110 
    14   opls_813      1    UNK   C0D      1    -0.2814    12.0110 
    15   opls_814      1    UNK   C0E      1     0.0102    12.0110 
    16   opls_815      1    UNK   O0F      1    -0.3658    15.9990 
    17   opls_816      1    UNK   C0G      1     0.0377    12.0110 
    18   opls_817      1    UNK   C0H      1    -0.2818    12.0110 
    19   opls_818      1    UNK   C0I      1     0.0226    12.0110 
    20   opls_819      1    UNK   O0J      1    -0.3569    15.9990 
    21   opls_820      1    UNK   C0K      1      0.016    12.0110 
    22   opls_821      1    UNK   C0M      1    -0.2837    12.0110 
    23   opls_822      1    UNK   C0N      1     0.0478    12.0110 
    24   opls_823      1    UNK   O0O      1      -0.36    15.9990 
    25   opls_824      1    UNK   C0P      1      0.724    12.0110 
    26   opls_825      1    UNK   O0Q      1    -0.4988    15.9990 
    27   opls_826      1    UNK   N0R      1    -0.9258    14.0070 
    28   opls_827      1    UNK   C0S      1     0.2599    12.0110 
    29   opls_828      1    UNK   C0T      1    -0.1738    12.0110 
    30   opls_829      1    UNK   C0U      1    -0.0654    12.0110 
    31   opls_830      1    UNK   C0V      1     -0.133    12.0110 
    32   opls_831      1    UNK   C0W      1    -0.1935    12.0110 
    33   opls_832      1    UNK   C0X      2     0.2269    12.0110 
    34   opls_833      1    UNK   N0Y      2    -0.9052    14.0070 
    35   opls_834      1    UNK   C0Z      2     0.6001    12.0110 
    36   opls_835      1    UNK   O10      2    -0.4364    15.9990 
    37   opls_836      1    UNK   S11      2    -0.2768    32.0600 
    38   opls_837      1    UNK   C12      2    -0.1363    12.0110 
    39   opls_838      1    UNK   C13      2     -0.185    12.0110 
    40   opls_839      1    UNK   C14      2    -0.1486    12.0110 
    41   opls_840      1    UNK   C15      2    -0.1122    12.0110 
    42   opls_841      1    UNK   C16      2    -0.1205    12.0110 
    43   opls_842      1    UNK   C17      2    -0.1954    12.0110 
    44   opls_843      1    UNK   H18      2     0.1259     1.0080 
    45   opls_844      1    UNK   H19      2     0.1259     1.0080 
    46   opls_845      1    UNK   H1A      2     0.1259     1.0080 
    47   opls_846      1    UNK   H1B      2     0.5249     1.0080 
    48   opls_847      1    UNK   H1C      2     0.1645     1.0080 
    49   opls_848      1    UNK   H1D      2     0.4755     1.0080 
    50   opls_849      1    UNK   H1E      2     0.1126     1.0080 
    51   opls_850      1    UNK   H1F      2     0.1053     1.0080 
    52   opls_851      1    UNK   H1G      2     0.1053     1.0080 
    53   opls_852      1    UNK   H1H      2     0.1053     1.0080 
    54   opls_853      1    UNK   H1I      2     0.1152     1.0080 
    55   opls_854      1    UNK   H1J      2     0.1152     1.0080 
    56   opls_855      1    UNK   H1K      2     0.0939     1.0080 
    57   opls_856      1    UNK   H1M      2     0.0937     1.0080 
    58   opls_857      1    UNK   H1N      2     0.0937     1.0080 
    59   opls_858      1    UNK   H1O      2     0.0937     1.0080 
    60   opls_859      1    UNK   H1P      2     0.1115     1.0080 
    61   opls_860      1    UNK   H1Q      2     0.1115     1.0080 
    62   opls_861      1    UNK   H1R      2     0.1164     1.0080 
    63   opls_862      1    UNK   H1S      2      0.094     1.0080 
    64   opls_863      1    UNK   H1T      2      0.094     1.0080 
    65   opls_864      1    UNK   H1U      2      0.094     1.0080 
    66   opls_865      1    UNK   H1V      3     0.1345     1.0080 
    67   opls_866      1    UNK   H1W      3     0.1345     1.0080 
    68   opls_867      1    UNK   H1X      3     0.4953     1.0080 
    69   opls_868      1    UNK   H1Y      3     0.1807     1.0080 
    70   opls_869      1    UNK   H1Z      3     0.1768     1.0080 
    71   opls_870      1    UNK   H20      3     0.0932     1.0080 
    72   opls_871      1    UNK   H21      3     0.0932     1.0080 
    73   opls_872      1    UNK   H22      3     0.0932     1.0080 
    74   opls_873      1    UNK   H23      3     0.5019     1.0080 
    75   opls_874      1    UNK   H24      3     0.1297     1.0080 
    76   opls_875      1    UNK   H25      3     0.1297     1.0080 
    77   opls_876      1    UNK   H26      3     0.1297     1.0080 
    78   opls_877      1    UNK   H27      3     0.1699     1.0080 
    79   opls_878      1    UNK   H28      3     0.1556     1.0080 
    80   opls_879      1    UNK   H29      3     0.1396     1.0080 
    81   opls_880      1    UNK   H2A      3     0.0908     1.0080 
    82   opls_881      1    UNK   H2B      3     0.0908     1.0080 
    83   opls_882      1    UNK   H2C      3     0.0908     1.0080 
[ bonds ]
    2     1     1      0.1810 185769.600
    3     2     1      0.1715 187443.200
    4     3     1      0.1229 476976.000
    5     3     1      0.1335 410032.000
    6     5     1      0.1381 357313.600
    7     6     1      0.1400 392459.200
    8     7     1      0.1400 392459.200
    9     8     1      0.1381 357313.600
   10     9     1      0.1335 410032.000
   11    10     1      0.1229 476976.000
   12    10     1      0.1327 179075.200
   13    12     1      0.1410 267776.000
   14    13     1      0.1529 224262.400
   15    13     1      0.1529 224262.400
   16    15     1      0.1410 267776.000
   17    16     1      0.1410 267776.000
   18    17     1      0.1529 224262.400
   19    17     1      0.1529 224262.400
   20    19     1      0.1410 267776.000
   21    20     1      0.1410 267776.000
   22    21     1      0.1529 224262.400
   23    21     1      0.1529 224262.400
   24    23     1      0.1410 267776.000
   25    24     1      0.1327 179075.200
   26    25     1      0.1229 476976.000
   27    25     1      0.1335 410032.000
   28    27     1      0.1381 357313.600
   29    28     1      0.1400 392459.200
   30    29     1      0.1400 392459.200
   31    30     1      0.1400 392459.200
   32    31     1      0.1510 265265.600
   33    31     1      0.1400 392459.200
   34    33     1      0.1381 357313.600
   35    34     1      0.1335 410032.000
   36    35     1      0.1229 476976.000
   37    35     1      0.1715 187443.200
   38    37     1      0.1810 185769.600
   39    28     1      0.1400 392459.200
   40     8     1      0.1400 392459.200
   41    40     1      0.1400 392459.200
   42     6     1      0.1400 392459.200
   43    42     1      0.1510 265265.600
   44     1     1      0.1090 284512.000
   45     1     1      0.1090 284512.000
   46     1     1      0.1090 284512.000
   47     5     1      0.1010 363171.200
   48     7     1      0.1080 307105.600
   49     9     1      0.1010 363171.200
   50    13     1      0.1090 284512.000
   51    14     1      0.1090 284512.000
   52    14     1      0.1090 284512.000
   53    14     1      0.1090 284512.000
   54    15     1      0.1090 284512.000
   55    15     1      0.1090 284512.000
   56    17     1      0.1090 284512.000
   57    18     1      0.1090 284512.000
   58    18     1      0.1090 284512.000
   59    18     1      0.1090 284512.000
   60    19     1      0.1090 284512.000
   61    19     1      0.1090 284512.000
   62    21     1      0.1090 284512.000
   63    22     1      0.1090 284512.000
   64    22     1      0.1090 284512.000
   65    22     1      0.1090 284512.000
   66    23     1      0.1090 284512.000
   67    23     1      0.1090 284512.000
   68    27     1      0.1010 363171.200
   69    29     1      0.1080 307105.600
   70    30     1      0.1080 307105.600
   71    32     1      0.1090 284512.000
   72    32     1      0.1090 284512.000
   73    32     1      0.1090 284512.000
   74    34     1      0.1010 363171.200
   75    38     1      0.1090 284512.000
   76    38     1      0.1090 284512.000
   77    38     1      0.1090 284512.000
   78    39     1      0.1080 307105.600
   79    40     1      0.1080 307105.600
   80    41     1      0.1080 307105.600
   81    43     1      0.1090 284512.000
   82    43     1      0.1090 284512.000
   83    43     1      0.1090 284512.000
   39    33     1      0.1400 392459.200
   42    41     1      0.1400 392459.200

[ angles ]
;  ai    aj    ak funct            c0            c1            c2            c3 
    1     2     3     1    105.500    561.660
    2     3     4     1    118.180    584.923
    2     3     5     1    118.180    584.923
    3     5     6     1    121.900    418.400
    5     6     7     1    120.000    585.760
    6     7     8     1    120.000    527.184
    7     8     9     1    120.000    585.760
    8     9    10     1    121.900    418.400
    9    10    11     1    122.900    669.440
    9    10    12     1    111.400    677.808
   10    12    13     1    116.900    694.544
   12    13    14     1    109.500    418.400
   12    13    15     1    109.500    418.400
   13    15    16     1    109.500    418.400
   15    16    17     1    109.500    502.080
   16    17    18     1    109.500    418.400
   16    17    19     1    109.500    418.400
   17    19    20     1    109.500    418.400
   19    20    21     1    109.500    502.080
   20    21    22     1    109.500    418.400
   20    21    23     1    109.500    418.400
   21    23    24     1    109.500    418.400
   23    24    25     1    116.900    694.544
   24    25    26     1    123.400    694.544
   24    25    27     1    111.400    677.808
   25    27    28     1    121.900    418.400
   27    28    29     1    120.000    585.760
   28    29    30     1    120.000    527.184
   29    30    31     1    120.000    527.184
   30    31    32     1    120.000    585.760
   30    31    33     1    120.000    527.184
   31    33    34     1    120.000    585.760
   33    34    35     1    121.900    418.400
   34    35    36     1    122.900    669.440
   34    35    37     1    118.180    584.923
   35    37    38     1    105.500    561.660
   27    28    39     1    120.000    585.760
    7     8    40     1    120.000    527.184
    8    40    41     1    120.000    527.184
    5     6    42     1    120.000    585.760
    6    42    43     1    120.000    585.760
    2     1    44     1    109.500    292.880
    2     1    45     1    109.500    292.880
    2     1    46     1    109.500    292.880
    3     5    47     1    119.800    292.880
    6     7    48     1    120.000    292.880
    8     9    49     1    119.800    292.880
   12    13    50     1    109.500    292.880
   13    14    51     1    110.700    313.800
   13    14    52     1    110.700    313.800
   13    14    53     1    110.700    313.800
   13    15    54     1    110.700    313.800
   13    15    55     1    110.700    313.800
   16    17    56     1    109.500    292.880
   17    18    57     1    110.700    313.800
   17    18    58     1    110.700    313.800
   17    18    59     1    110.700    313.800
   17    19    60     1    110.700    313.800
   17    19    61     1    110.700    313.800
   20    21    62     1    109.500    292.880
   21    22    63     1    110.700    313.800
   21    22    64     1    110.700    313.800
   21    22    65     1    110.700    313.800
   21    23    66     1    110.700    313.800
   21    23    67     1    110.700    313.800
   25    27    68     1    119.800    292.880
   28    29    69     1    120.000    292.880
   29    30    70     1    120.000    292.880
   31    32    71     1    109.500    292.880
   31    32    72     1    109.500    292.880
   31    32    73     1    109.500    292.880
   33    34    74     1    119.800    292.880
   37    38    75     1    109.500    292.880
   37    38    76     1    109.500    292.880
   37    38    77     1    109.500    292.880
   28    39    78     1    120.000    292.880
    8    40    79     1    120.000    292.880
   40    41    80     1    120.000    292.880
   42    43    81     1    109.500    292.880
   42    43    82     1    109.500    292.880
   42    43    83     1    109.500    292.880
   36    35    37     1    118.180    584.923
   11    10    12     1    123.400    694.544
   24    23    67     1    109.500    292.880
   57    18    58     1    107.800    276.144
   14    13    15     1    112.700    488.273
    9     8    40     1    120.000    585.760
   18    17    56     1    110.700    313.800
    6    42    41     1    120.000    527.184
   28    39    33     1    120.000    527.184
   30    29    69     1    120.000    292.880
   52    14    53     1    107.800    276.144
   51    14    53     1    107.800    276.144
   35    34    74     1    119.800    292.880
   81    43    82     1    107.800    276.144
   31    30    70     1    120.000    292.880
   22    21    23     1    112.700    488.273
   57    18    59     1    107.800    276.144
   33    39    78     1    120.000    292.880
   32    31    33     1    120.000    585.760
   16    15    55     1    109.500    292.880
   26    25    27     1    122.900    669.440
   82    43    83     1    107.800    276.144
   71    32    72     1    107.800    276.144
    4     3     5     1    122.900    669.440
   75    38    76     1    107.800    276.144
    6     5    47     1    119.800    292.880
   24    23    66     1    109.500    292.880
    8     7    48     1    120.000    292.880
   44     1    45     1    107.800    276.144
   19    17    56     1    110.700    313.800
   51    14    52     1    107.800    276.144
   75    38    77     1    107.800    276.144
   20    19    61     1    109.500    292.880
   34    33    39     1    120.000    585.760
   71    32    73     1    107.800    276.144
   76    38    77     1    107.800    276.144
   44     1    46     1    107.800    276.144
   23    21    62     1    110.700    313.800
   72    32    73     1    107.800    276.144
   54    15    55     1    107.800    276.144
   45     1    46     1    107.800    276.144
   41    42    43     1    120.000    585.760
   58    18    59     1    107.800    276.144
   14    13    50     1    110.700    313.800
   22    21    62     1    110.700    313.800
   60    19    61     1    107.800    276.144
   29    28    39     1    120.000    527.184
   64    22    65     1    107.800    276.144
   15    13    50     1    110.700    313.800
   63    22    65     1    107.800    276.144
   28    27    68     1    119.800    292.880
   42    41    80     1    120.000    292.880
   31    33    39     1    120.000    527.184
   66    23    67     1    107.800    276.144
   16    15    54     1    109.500    292.880
   81    43    83     1    107.800    276.144
   63    22    64     1    107.800    276.144
   20    19    60     1    109.500    292.880
   18    17    19     1    112.700    488.273
   40    41    42     1    120.000    527.184
   10     9    49     1    119.800    292.880
    7     6    42     1    120.000    527.184
   41    40    79     1    120.000    292.880

[ dihedrals ]
; IMPROPER DIHEDRAL ANGLES 
;  ai    aj    ak    al funct            c0            c1            c2            c3            c4            c5
    33    31    30    32    4        180.000     10.460     2  
    40     8     7     9    4        180.000     10.460     2  
    39    28    27    29    4        180.000     10.460     2  
    42     6     5     7    4        180.000     10.460     2  
    43    42     6    41    4        180.000     10.460     2  
    68    27    25    28    4        180.000     10.460     2  
    47     5     3     6    4        180.000     10.460     2  
    49     9     8    10    4        180.000     10.460     2  
    74    34    33    35    4        180.000     10.460     2  
    48     7     6     8    4        180.000     10.460     2  
    69    29    28    30    4        180.000     10.460     2  
    70    30    29    31    4        180.000     10.460     2  
    80    41    40    42    4        180.000     10.460     2  
    79    40     8    41    4        180.000     10.460     2  
    78    39    28    33    4        180.000     10.460     2  
    27    25    24    26    4        180.000     43.932     2  
     5     3     2     4    4        180.000     43.932     2  
    34    33    39    31    4        180.000     10.460     2  
    12    10     9    11    4        180.000     43.932     2  
    37    35    34    36    4        180.000     43.932     2  

[ dihedrals ]
; PROPER DIHEDRAL ANGLES
;  ai    aj    ak    al funct            c0            c1            c2            c3            c4            c5
   35   34   33   31        3       8.786   0.000  -8.786  -0.000  -0.000   0.000
   10    9    8    7        3       8.786   0.000  -8.786  -0.000  -0.000   0.000
   25   24   23   21        3      -2.197   5.201   0.527  -3.531  -0.000   0.000
   41   42    6    7        3      30.334   0.000  -30.334  -0.000  -0.000   0.000
   40   41   42    6        3      30.334   0.000  -30.334  -0.000  -0.000   0.000
   39   28   29   30        3      30.334   0.000  -30.334  -0.000  -0.000   0.000
   33   31   30   29        3      30.334   0.000  -30.334  -0.000  -0.000   0.000
   40    8    7    6        3      30.334   0.000  -30.334  -0.000  -0.000   0.000
   39   33   31   30        3      30.334   0.000  -30.334  -0.000  -0.000   0.000
   41   40    8    7        3      30.334   0.000  -30.334  -0.000  -0.000   0.000
   31   30   29   28        3      30.334   0.000  -30.334  -0.000  -0.000   0.000
   33   39   28   29        3      30.334   0.000  -30.334  -0.000  -0.000   0.000
   42   41   40    8        3      30.334   0.000  -30.334  -0.000  -0.000   0.000
   31   33   39   28        3      30.334   0.000  -30.334  -0.000  -0.000   0.000
   42    6    7    8        3      30.334   0.000  -30.334  -0.000  -0.000   0.000
   39   33   31   32        3      30.334   0.000  -30.334  -0.000  -0.000   0.000
    8    7    6    5        3      30.334   0.000  -30.334  -0.000  -0.000   0.000
   33   39   28   27        3      30.334   0.000  -30.334  -0.000  -0.000   0.000
   41   40    8    9        3      30.334   0.000  -30.334  -0.000  -0.000   0.000
   41   42    6    5        3      30.334   0.000  -30.334  -0.000  -0.000   0.000
   30   29   28   27        3      30.334   0.000  -30.334  -0.000  -0.000   0.000
   39   33   34   35        3       8.786   0.000  -8.786  -0.000  -0.000   0.000
    7    6    5    3        3       8.786   0.000  -8.786  -0.000  -0.000   0.000
   42    6    5    3        3       8.786   0.000  -8.786  -0.000  -0.000   0.000
   29   28   27   25        3       8.786   0.000  -8.786  -0.000  -0.000   0.000
   40    8    9   10        3       8.786   0.000  -8.786  -0.000  -0.000   0.000
   39   28   27   25        3       8.786   0.000  -8.786  -0.000  -0.000   0.000
   28   27   25   26        3      25.476   0.000  -25.476  -0.000  -0.000   0.000
    6    5    3    4        3      25.476   0.000  -25.476  -0.000  -0.000   0.000
   28   27   25   24        3      25.476   0.000  -25.476  -0.000  -0.000   0.000
    6    5    3    2        3      27.196   0.000  -27.196  -0.000  -0.000   0.000
   43   42    6    7        3      30.334   0.000  -30.334  -0.000  -0.000   0.000
   43   42   41   40        3      30.334   0.000  -30.334  -0.000  -0.000   0.000
   32   31   30   29        3      30.334   0.000  -30.334  -0.000  -0.000   0.000
   43   42    6    5        3      30.334   0.000  -30.334  -0.000  -0.000   0.000
   15   13   12   10        3      -2.197   5.201   0.527  -3.531  -0.000   0.000
   14   13   12   10        3      -2.197   5.201   0.527  -3.531  -0.000   0.000
   23   21   20   19        3       1.715   2.845   1.046  -5.607  -0.000   0.000
   18   17   16   15        3       1.715   2.845   1.046  -5.607  -0.000   0.000
   19   17   16   15        3       1.715   2.845   1.046  -5.607  -0.000   0.000
   22   21   20   19        3       1.715   2.845   1.046  -5.607  -0.000   0.000
   13   12   10    9        3      16.736   4.184  -20.920  -0.000  -0.000   0.000
   13   12   10   11        3      21.439   0.000  -21.439  -0.000  -0.000   0.000
   17   16   15   13        3       1.715   2.845   1.046  -5.607  -0.000   0.000
   21   20   19   17        3       1.715   2.845   1.046  -5.607  -0.000   0.000
   38   37   35   34        3       9.623  -9.623   0.000  -0.000  -0.000   0.000
   38   37   35   36        3      25.476   0.000  -25.476  -0.000  -0.000   0.000
   74   34   35   36        3      20.502   0.000  -20.502  -0.000  -0.000   0.000
   47    5    3    4        3      20.502   0.000  -20.502  -0.000  -0.000   0.000
   49    9   10   11        3      20.502   0.000  -20.502  -0.000  -0.000   0.000
   68   27   25   26        3      20.502   0.000  -20.502  -0.000  -0.000   0.000
   68   27   25   24        3      20.502   0.000  -20.502  -0.000  -0.000   0.000
   49    9   10   12        3      20.502   0.000  -20.502  -0.000  -0.000   0.000
   47    5    3    2        3      19.456   1.464  -20.920  -0.000  -0.000   0.000
   74   34   35   37        3      19.456   1.464  -20.920  -0.000  -0.000   0.000
   74   34   33   39        3       8.786   0.000  -8.786  -0.000  -0.000   0.000
   68   27   28   39        3       8.786   0.000  -8.786  -0.000  -0.000   0.000
   68   27   28   29        3       8.786   0.000  -8.786  -0.000  -0.000   0.000
   47    5    6    7        3       8.786   0.000  -8.786  -0.000  -0.000   0.000
   47    5    6   42        3       8.786   0.000  -8.786  -0.000  -0.000   0.000
   74   34   33   31        3       8.786   0.000  -8.786  -0.000  -0.000   0.000
   49    9    8   40        3       8.786   0.000  -8.786  -0.000  -0.000   0.000
   49    9    8    7        3       8.786   0.000  -8.786  -0.000  -0.000   0.000
   78   39   28   29        3      30.334   0.000  -30.334  -0.000  -0.000   0.000
   79   40    8    7        3      30.334   0.000  -30.334  -0.000  -0.000   0.000
   80   41   40    8        3      30.334   0.000  -30.334  -0.000  -0.000   0.000
   48    7    8   40        3      30.334   0.000  -30.334  -0.000  -0.000   0.000
   78   39   33   31        3      30.334   0.000  -30.334  -0.000  -0.000   0.000
   80   41   42    6        3      30.334   0.000  -30.334  -0.000  -0.000   0.000
   69   29   28   39        3      30.334   0.000  -30.334  -0.000  -0.000   0.000
   79   40   41   42        3      30.334   0.000  -30.334  -0.000  -0.000   0.000
   48    7    6   42        3      30.334   0.000  -30.334  -0.000  -0.000   0.000
   70   30   29   28        3      30.334   0.000  -30.334  -0.000  -0.000   0.000
   69   29   30   31        3      30.334   0.000  -30.334  -0.000  -0.000   0.000
   70   30   31   33        3      30.334   0.000  -30.334  -0.000  -0.000   0.000
   80   41   42   43        3      30.334   0.000  -30.334  -0.000  -0.000   0.000
   70   30   31   32        3      30.334   0.000  -30.334  -0.000  -0.000   0.000
   80   41   40   79        3      30.334   0.000  -30.334  -0.000  -0.000   0.000
   70   30   29   69        3      30.334   0.000  -30.334  -0.000  -0.000   0.000
   79   40    8    9        3      30.334   0.000  -30.334  -0.000  -0.000   0.000
   78   39   28   27        3      30.334   0.000  -30.334  -0.000  -0.000   0.000
   78   39   33   34        3      30.334   0.000  -30.334  -0.000  -0.000   0.000
   69   29   28   27        3      30.334   0.000  -30.334  -0.000  -0.000   0.000
   48    7    8    9        3      30.334   0.000  -30.334  -0.000  -0.000   0.000
   48    7    6    5        3      30.334   0.000  -30.334  -0.000  -0.000   0.000
   83   43   42    6        3       0.000   0.000   0.000  -0.000  -0.000   0.000
   83   43   42   41        3       0.000   0.000   0.000  -0.000  -0.000   0.000
   73   32   31   30        3       0.000   0.000   0.000  -0.000  -0.000   0.000
   72   32   31   30        3       0.000   0.000   0.000  -0.000  -0.000   0.000
   82   43   42    6        3       0.000   0.000   0.000  -0.000  -0.000   0.000
   81   43   42   41        3       0.000   0.000   0.000  -0.000  -0.000   0.000
   71   32   31   30        3       0.000   0.000   0.000  -0.000  -0.000   0.000
   73   32   31   33        3       0.000   0.000   0.000  -0.000  -0.000   0.000
   82   43   42   41        3       0.000   0.000   0.000  -0.000  -0.000   0.000
   81   43   42    6        3       0.000   0.000   0.000  -0.000  -0.000   0.000
   71   32   31   33        3       0.000   0.000   0.000  -0.000  -0.000   0.000
   72   32   31   33        3       0.000   0.000   0.000  -0.000  -0.000   0.000
   54   15   13   14        3       0.628   1.883   0.000  -2.510  -0.000   0.000
   58   18   17   19        3       0.628   1.883   0.000  -2.510  -0.000   0.000
   53   14   13   15        3       0.628   1.883   0.000  -2.510  -0.000   0.000
   57   18   17   19        3       0.628   1.883   0.000  -2.510  -0.000   0.000
   66   23   21   22        3       0.628   1.883   0.000  -2.510  -0.000   0.000
   67   23   21   22        3       0.628   1.883   0.000  -2.510  -0.000   0.000
   64   22   21   23        3       0.628   1.883   0.000  -2.510  -0.000   0.000
   63   22   21   23        3       0.628   1.883   0.000  -2.510  -0.000   0.000
   59   18   17   19        3       0.628   1.883   0.000  -2.510  -0.000   0.000
   61   19   17   18        3       0.628   1.883   0.000  -2.510  -0.000   0.000
   51   14   13   15        3       0.628   1.883   0.000  -2.510  -0.000   0.000
   52   14   13   15        3       0.628   1.883   0.000  -2.510  -0.000   0.000
   65   22   21   23        3       0.628   1.883   0.000  -2.510  -0.000   0.000
   60   19   17   18        3       0.628   1.883   0.000  -2.510  -0.000   0.000
   55   15   13   14        3       0.628   1.883   0.000  -2.510  -0.000   0.000
   54   15   13   50        3       0.628   1.883   0.000  -2.510  -0.000   0.000
   61   19   17   56        3       0.628   1.883   0.000  -2.510  -0.000   0.000
   59   18   17   56        3       0.628   1.883   0.000  -2.510  -0.000   0.000
   66   23   21   62        3       0.628   1.883   0.000  -2.510  -0.000   0.000
   53   14   13   50        3       0.628   1.883   0.000  -2.510  -0.000   0.000
   63   22   21   62        3       0.628   1.883   0.000  -2.510  -0.000   0.000
   65   22   21   62        3       0.628   1.883   0.000  -2.510  -0.000   0.000
   67   23   21   62        3       0.628   1.883   0.000  -2.510  -0.000   0.000
   58   18   17   56        3       0.628   1.883   0.000  -2.510  -0.000   0.000
   57   18   17   56        3       0.628   1.883   0.000  -2.510  -0.000   0.000
   52   14   13   50        3       0.628   1.883   0.000  -2.510  -0.000   0.000
   64   22   21   62        3       0.628   1.883   0.000  -2.510  -0.000   0.000
   55   15   13   50        3       0.628   1.883   0.000  -2.510  -0.000   0.000
   60   19   17   56        3       0.628   1.883   0.000  -2.510  -0.000   0.000
   51   14   13   50        3       0.628   1.883   0.000  -2.510  -0.000   0.000
   62   21   23   24        3       0.979   2.937   0.000  -3.916  -0.000   0.000
   53   14   13   12        3       0.979   2.937   0.000  -3.916  -0.000   0.000
   60   19   17   16        3       0.979   2.937   0.000  -3.916  -0.000   0.000
   55   15   13   12        3       0.979   2.937   0.000  -3.916  -0.000   0.000
   50   13   15   16        3       0.979   2.937   0.000  -3.916  -0.000   0.000
   57   18   17   16        3       0.979   2.937   0.000  -3.916  -0.000   0.000
   59   18   17   16        3       0.979   2.937   0.000  -3.916  -0.000   0.000
   56   17   19   20        3       0.979   2.937   0.000  -3.916  -0.000   0.000
   54   15   13   12        3       0.979   2.937   0.000  -3.916  -0.000   0.000
   65   22   21   20        3       0.979   2.937   0.000  -3.916  -0.000   0.000
   66   23   21   20        3       0.979   2.937   0.000  -3.916  -0.000   0.000
   52   14   13   12        3       0.979   2.937   0.000  -3.916  -0.000   0.000
   64   22   21   20        3       0.979   2.937   0.000  -3.916  -0.000   0.000
   63   22   21   20        3       0.979   2.937   0.000  -3.916  -0.000   0.000
   58   18   17   16        3       0.979   2.937   0.000  -3.916  -0.000   0.000
   61   19   17   16        3       0.979   2.937   0.000  -3.916  -0.000   0.000
   51   14   13   12        3       0.979   2.937   0.000  -3.916  -0.000   0.000
   67   23   21   20        3       0.979   2.937   0.000  -3.916  -0.000   0.000
   50   13   12   10        3       0.414   1.243   0.000  -1.657  -0.000   0.000
   66   23   24   25        3       0.414   1.243   0.000  -1.657  -0.000   0.000
   67   23   24   25        3       0.414   1.243   0.000  -1.657  -0.000   0.000
   54   15   16   17        3       1.590   4.770   0.000  -6.360  -0.000   0.000
   55   15   16   17        3       1.590   4.770   0.000  -6.360  -0.000   0.000
   62   21   20   19        3       1.590   4.770   0.000  -6.360  -0.000   0.000
   61   19   20   21        3       1.590   4.770   0.000  -6.360  -0.000   0.000
   56   17   16   15        3       1.590   4.770   0.000  -6.360  -0.000   0.000
   60   19   20   21        3       1.590   4.770   0.000  -6.360  -0.000   0.000
   44    1    2    3        3       1.354   4.061   0.000  -5.414  -0.000   0.000
   77   38   37   35        3       1.354   4.061   0.000  -5.414  -0.000   0.000
   76   38   37   35        3       1.354   4.061   0.000  -5.414  -0.000   0.000
   45    1    2    3        3       1.354   4.061   0.000  -5.414  -0.000   0.000
   46    1    2    3        3       1.354   4.061   0.000  -5.414  -0.000   0.000
   75   38   37   35        3       1.354   4.061   0.000  -5.414  -0.000   0.000
   27   25   24   23        3      16.736   4.184  -20.920  -0.000  -0.000   0.000
    5    3    2    1        3       9.623  -9.623   0.000  -0.000  -0.000   0.000
    9    8    7    6        3      30.334   0.000  -30.334  -0.000  -0.000   0.000
   34   33   39   28        3      30.334   0.000  -30.334  -0.000  -0.000   0.000
   34   33   31   30        3      30.334   0.000  -30.334  -0.000  -0.000   0.000
   34   33   31   32        3      30.334   0.000  -30.334  -0.000  -0.000   0.000
   11   10    9    8        3      25.476   0.000  -25.476  -0.000  -0.000   0.000
   36   35   34   33        3      25.476   0.000  -25.476  -0.000  -0.000   0.000
   26   25   24   23        3      21.439   0.000  -21.439  -0.000  -0.000   0.000
    4    3    2    1        3      25.476   0.000  -25.476  -0.000  -0.000   0.000
   12   10    9    8        3      25.476   0.000  -25.476  -0.000  -0.000   0.000
   24   23   21   22        3       2.874   0.582   2.092  -5.548  -0.000   0.000
   20   19   17   18        3       2.874   0.582   2.092  -5.548  -0.000   0.000
   16   15   13   14        3       2.874   0.582   2.092  -5.548  -0.000   0.000
   24   23   21   20        3      -1.151   1.151   0.000  -0.000  -0.000   0.000
   20   19   17   16        3      -1.151   1.151   0.000  -0.000  -0.000   0.000
   16   15   13   12        3      -1.151   1.151   0.000  -0.000  -0.000   0.000
   37   35   34   33        3      27.196   0.000  -27.196  -0.000  -0.000   0.000

[ pairs ]
     1     4    1
     1     5    1
     2     6    1
     4     6    1
     3     7    1
     5     8    1
     6     9    1
     7    10    1
     8    11    1
     8    12    1
     9    13    1
    11    13    1
    10    14    1
    10    15    1
    12    16    1
    14    16    1
    13    17    1
    15    18    1
    15    19    1
    16    20    1
    18    20    1
    17    21    1
    19    22    1
    19    23    1
    20    24    1
     3    42    1
    22    24    1
    21    25    1
     6    40    1
     5    41    1
     3    44    1
     7    41    1
     5    43    1
     3    45    1
    23    26    1
     3    46    1
     2    47    1
    23    27    1
    10    40    1
     9    41    1
     8    42    1
     7    43    1
     4    47    1
    24    28    1
     5    48    1
    26    28    1
    25    29    1
     7    47    1
     7    49    1
    27    30    1
     9    48    1
    28    31    1
    27    33    1
    11    49    1
    10    50    1
    29    32    1
    12    49    1
    29    33    1
    28    34    1
    12    51    1
    30    34    1
    25    39    1
    12    52    1
    12    53    1
    32    34    1
    31    35    1
    16    50    1
    15    51    1
    12    54    1
    15    52    1
    12    55    1
    15    53    1
    14    54    1
    33    36    1
    30    39    1
    14    55    1
    33    37    1
    32    39    1
    17    54    1
    15    56    1
    34    38    1
    17    55    1
    16    57    1
    36    38    1
    35    39    1
    16    58    1
    16    59    1
    20    56    1
    19    57    1
    16    60    1
    19    58    1
    16    61    1
    19    59    1
    18    60    1
    18    61    1
    21    60    1
    19    62    1
    21    61    1
    40    43    1
    20    63    1
    20    64    1
    20    65    1
    24    62    1
    23    63    1
    20    66    1
     7    79    1
     6    80    1
    23    64    1
    20    67    1
     6    81    1
    40    48    1
    23    65    1
    22    66    1
     9    79    1
     8    80    1
     6    82    1
    42    47    1
    40    49    1
    22    67    1
     6    83    1
    42    48    1
    25    66    1
    25    67    1
    24    68    1
    26    68    1
    27    69    1
    29    68    1
    28    70    1
    31    69    1
    50    51    1
    30    71    1
    50    52    1
    32    70    1
    30    72    1
    50    53    1
    33    70    1
    30    73    1
    50    54    1
    33    71    1
    50    55    1
    33    72    1
    31    74    1
    27    78    1
    33    73    1
    39    68    1
    29    78    1
    39    69    1
    31    78    1
    36    74    1
    35    75    1
    37    74    1
    35    76    1
    35    77    1
    34    78    1
    56    57    1
    39    74    1
    56    58    1
    56    59    1
    56    60    1
    56    61    1
    42    79    1
    41    81    1
    43    80    1
    41    82    1
    41    83    1
    62    63    1
    62    64    1
    62    65    1
    62    66    1
    62    67    1
    69    70    1
    79    80    1

