STR extended conformer (extend_conformer.py, d=2.473 nm)
83
    1UNK    C00    1  -1.448   0.472  -0.058
    1UNK    S01    2  -1.286   0.425   0.008
    1UNK    C02    3  -1.263   0.275  -0.081
    1UNK    O03    4  -1.343   0.236  -0.165
    1UNK    N04    5  -1.143   0.222  -0.043
    1UNK    C05    6  -1.076   0.106  -0.085
    1UNK    C06    7  -0.936   0.108  -0.065
    1UNK    C07    8  -0.854   0.002  -0.105
    1UNK    N08    9  -0.716   0.015  -0.082
    1UNK    C09   10  -0.616  -0.073  -0.112
    1UNK    O0A   11  -0.625  -0.183  -0.164
    1UNK    O0B   12  -0.498  -0.018  -0.071
    1UNK    C0C   13  -0.379  -0.097  -0.095
    1UNK    C0D   14  -0.329  -0.071  -0.237
    1UNK    C0E   15  -0.275  -0.055   0.010
    1UNK    O0F   16  -0.157  -0.134  -0.005
    1UNK    C0G   17  -0.053  -0.097   0.087
    1UNK    C0H   18  -0.078  -0.160   0.224
    1UNK    C0I   19   0.080  -0.146   0.028
    1UNK    O0J   20   0.189  -0.103   0.109
    1UNK    C0K   21   0.317  -0.148   0.062
    1UNK    C0M   22   0.368  -0.056  -0.049
    1UNK    C0N   23   0.412  -0.150   0.183
    1UNK    O0O   24   0.537  -0.213   0.150
    1UNK    C0P   25   0.644  -0.130   0.131
    1UNK    O0Q   26   0.639  -0.008   0.137
    1UNK    N0R   27   0.753  -0.208   0.104
    1UNK    C0S   28   0.885  -0.168   0.078
    1UNK    C0T   29   0.978  -0.268   0.052
    1UNK    C0U   30   1.110  -0.235   0.023
    1UNK    C0V   31   1.154  -0.101   0.018
    1UNK    C0W   32   1.296  -0.079  -0.025
    1UNK    C0X   33   1.062   0.000   0.050
    1UNK    N0Y   34   1.087   0.139   0.056
    1UNK    C0Z   35   1.204   0.206   0.080
    1UNK    O10   36   1.316   0.165   0.103
    1UNK    S11   37   1.167   0.378   0.079
    1UNK    C12   38   1.332   0.443   0.112
    1UNK    C13   39   0.927  -0.035   0.076
    1UNK    C14   40  -0.912  -0.109  -0.165
    1UNK    C15   41  -1.050  -0.114  -0.182
    1UNK    C16   42  -1.135  -0.009  -0.140
    1UNK    C17   43  -1.282  -0.033  -0.156
    1UNK    H18   44  -1.480   0.565  -0.011
    1UNK    H19   45  -1.523   0.395  -0.035
    1UNK    H1A   46  -1.443   0.488  -0.166
    1UNK    H1B   47  -1.090   0.288   0.013
    1UNK    H1C   48  -0.891   0.195  -0.020
    1UNK    H1D   49  -0.682   0.100  -0.038
    1UNK    H1E   50  -0.400  -0.204  -0.082
    1UNK    H1F   51  -0.309   0.036  -0.252
    1UNK    H1G   52  -0.238  -0.128  -0.258
    1UNK    H1H   53  -0.405  -0.099  -0.311
    1UNK    H1I   54  -0.318  -0.068   0.110
    1UNK    H1J   55  -0.251   0.051  -0.002
    1UNK    H1K   56  -0.048   0.012   0.097
    1UNK    H1M   57  -0.089  -0.269   0.215
    1UNK    H1N   58  -0.170  -0.122   0.269
    1UNK    H1O   59   0.004  -0.139   0.293
    1UNK    H1P   60   0.080  -0.256   0.020
    1UNK    H1Q   61   0.091  -0.106  -0.074
    1UNK    H1R   62   0.309  -0.250   0.023
    1UNK    H1S   63   0.465  -0.088  -0.086
    1UNK    H1T   64   0.376   0.047  -0.012
    1UNK    H1U   65   0.299  -0.054  -0.133
    1UNK    H1V   66   0.367  -0.209   0.263
    1UNK    H1W   67   0.425  -0.049   0.225
    1UNK    H1X   68   0.732  -0.307   0.104
    1UNK    H1Y   69   0.950  -0.373   0.054
    1UNK    H1Z   70   1.180  -0.316   0.001
    1UNK    H20   71   1.304   0.009  -0.090
    1UNK    H21   72   1.361  -0.070   0.062
    1UNK    H22   73   1.332  -0.163  -0.085
    1UNK    H23   74   1.007   0.200   0.062
    1UNK    H24   75   1.368   0.408   0.209
    1UNK    H25   76   1.402   0.414   0.034
    1UNK    H26   77   1.327   0.553   0.115
    1UNK    H27   78   0.856   0.044   0.097
    1UNK    H28   79  -0.853  -0.194  -0.199
    1UNK    H29   80  -1.093  -0.204  -0.228
    1UNK    H2A   81  -1.338   0.007  -0.070
    1UNK    H2B   82  -1.305  -0.140  -0.158
    1UNK    H2C   83  -1.318   0.010  -0.250
  10.00000  10.00000  10.00000
