My System
19584
    1STR   BCK1    1   0.556   0.079   0.072
    1STR    O03    2   0.563   0.143   6.307
    1STR    N04    3   0.519   6.291   0.081
    1STR    C05    4   0.505   6.195   6.325
    1STR    C06    5   0.517   6.222   6.188
    1STR    C07    6   0.536   6.118   6.099
    1STR    N08    7   0.596   6.155   5.982
    1STR    C09    8   0.696   6.100   5.918
    1STR    O0A    9   0.728   5.982   5.919
    1STR    O0B   10   0.765   6.202   5.878
    1STR    C0C   11   0.885   6.227   5.947
    1STR    C0D   12   0.938   0.020   5.899
    1STR    C0E   13   0.875   6.227   6.101
    1STR    O0F   14   0.886   6.094   6.147
    1STR    C0G   15   0.819   6.071   6.268
    1STR    C0H   16   0.810   5.921   6.294
    1STR    C0I   17   0.872   6.150   0.044
    1STR    O0J   18   0.788   6.254   0.086
    1STR    C0K   19   0.836   6.314   0.204
    1STR    C0M   20   0.838   0.127   0.188
    1STR    C0N   21   0.775   6.256   0.332
    1STR    O0O   22   0.829   6.126   0.347
    1STR    C0P   23   0.872   6.083   0.466
    1STR    O0Q   24   0.825   6.117   0.574
    1STR    N0R   25   0.980   6.004   0.457
    1STR    C0S   26   1.058   6.005   0.344
    1STR    C0T   27   1.049   5.903   0.250
    1STR    C0U   28   1.097   5.927   0.121
    1STR    C0V   29   1.150   6.053   0.086
    1STR    C0W   30   1.174   6.085   6.282
    1STR    C0X   31   1.159   6.154   0.182
    1STR    N0Y   32   1.186   6.280   0.133
    1STR   BCK2   33   1.163   0.062   0.176
    1STR    O10   34   1.196   0.150   0.101
    1STR    C13   35   1.120   6.126   0.313
    1STR    C14   36   0.526   5.984   6.138
    1STR    C15   37   0.512   5.958   6.274
    1STR    C16   38   0.498   6.062   0.028
    1STR    C17   39   0.489   6.032   0.176
    1STR    H1B   40   0.496   6.260   0.174
    1STR    H1C   41   0.529   6.323   6.153
    1STR    H1D   42   0.583   6.251   5.956
    1STR    H1E   43   0.946   6.146   5.912
    1STR    H1F   44   0.867   0.099   5.922
    1STR    H1G   45   1.032   0.044   5.948
    1STR    H1H   46   0.955   0.015   5.792
    1STR    H1I   47   0.783   6.277   6.134
    1STR    H1J   48   0.956   6.283   6.147
    1STR    H1K   49   0.721   6.106   6.257
    1STR    H1M   50   0.757   5.873   6.213
    1STR    H1N   51   0.756   5.903   0.047
    1STR    H1O   52   0.907   5.876   6.299
    1STR    H1P   53   0.889   6.082   0.127
    1STR    H1Q   54   0.962   6.200   0.014
    1STR    H1R   55   0.939   6.286   0.213
    1STR    H1S   56   0.853   0.175   0.284
    1STR    H1T   57   0.753   0.175   0.146
    1STR    H1U   58   0.917   0.155   0.119
    1STR    H1V   59   0.667   6.252   0.327
    1STR    H1W   60   0.804   6.318   0.417
    1STR    H1X   61   1.014   5.962   0.542
    1STR    H1Y   62   0.999   5.810   0.272
    1STR    H1Z   63   1.091   5.850   0.046
    1STR    H20   64   1.155   6.188   6.255
    1STR    H21   65   1.275   6.056   6.257
    1STR    H22   66   1.101   6.030   6.224
    1STR    H23   67   1.227   6.278   0.042
    1STR    H27   68   1.124   6.201   0.389
    1STR    H28   69   0.544   5.904   6.068
    1STR    H29   70   0.517   5.854   6.303
    1STR    H2A   71   0.569   6.082   0.230
    1STR    H2B   72   0.499   5.926   0.195
    1STR    H2C   73   0.392   6.067   0.213
    1STR   BCK1   74   0.413   0.001   1.492
    1STR    O03   75   0.475   0.033   1.592
    1STR    N04   76   0.351   0.087   1.416
    1STR    C05   77   0.373   0.222   1.405
    1STR    C06   78   0.497   0.274   1.392
    1STR    C07   79   0.528   0.405   1.364
    1STR    N08   80   0.659   0.438   1.385
    1STR    C09   81   0.689   0.518   1.485
    1STR    O0A   82   0.621   0.612   1.522
    1STR    O0B   83   0.796   0.474   1.548
    1STR    C0C   84   0.783   0.367   1.642
    1STR    C0D   85   0.701   0.401   1.765
    1STR    C0E   86   0.745   0.231   1.588
    1STR    O0F   87   0.790   0.213   1.452
    1STR    C0G   88   0.751   0.089   1.389
    1STR    C0H   89   0.730   0.111   1.239
    1STR    C0I   90   0.843   6.320   1.415
    1STR    O0J   91   0.867   6.327   1.554
    1STR    C0K   92   0.863   6.212   1.636
    1STR    C0M   93   0.732   6.209   1.706
    1STR    C0N   94   0.910   6.087   1.560
    1STR    O0O   95   1.016   6.132   1.479
    1STR    C0P   96   1.112   6.199   1.541
    1STR    O0Q   97   1.157   6.160   1.645
    1STR    N0R   98   1.135   6.316   1.483
    1STR    C0S   99   1.135   0.095   1.551
    1STR    C0T  100   1.092   0.210   1.484
    1STR    C0U  101   1.083   0.332   1.554
    1STR    C0V  102   1.115   0.337   1.692
    1STR    C0W  103   1.098   0.463   1.770
    1STR    C0X  104   1.141   0.219   1.760
    1STR    N0Y  105   1.143   0.213   1.898
    1STR   BCK2  106   1.065   0.128   1.966
    1STR    O10  107   0.987   0.048   1.915
    1STR    C13  108   1.155   0.101   1.689
    1STR    C14  109   0.424   0.492   1.332
    1STR    C15  110   0.293   0.442   1.342
    1STR    C16  111   0.272   0.312   1.392
    1STR    C17  112   0.146   0.267   1.448
    1STR    H1B  113   0.273   0.046   1.361
    1STR    H1C  114   0.567   0.205   1.417
    1STR    H1D  115   0.722   0.358   1.385
    1STR    H1E  116   0.879   0.353   1.684
    1STR    H1F  117   0.596   0.401   1.740
    1STR    H1G  118   0.715   0.325   1.842
    1STR    H1H  119   0.730   0.498   1.805
    1STR    H1I  120   0.638   0.220   1.601
    1STR    H1J  121   0.785   0.160   1.659
    1STR    H1K  122   0.663   0.044   1.434
    1STR    H1M  123   0.805   0.179   1.200
    1STR    H1N  124   0.632   0.153   1.217
    1STR    H1O  125   0.735   0.017   1.185
    1STR    H1P  126   0.798   6.228   1.380
    1STR    H1Q  127   0.931   0.001   1.355
    1STR    H1R  128   0.934   6.233   1.717
    1STR    H1S  129   0.710   6.110   1.745
    1STR    H1T  130   0.659   6.242   1.635
    1STR    H1U  131   0.732   6.282   1.786
    1STR    H1V  132   0.832   6.045   1.496
    1STR    H1W  133   0.944   6.009   1.628
    1STR    H1X  134   1.099   6.323   1.391
    1STR    H1Y  135   1.064   0.208   1.380
    1STR    H1Z  136   1.046   0.419   1.504
    1STR    H20  137   1.023   0.446   1.847
    1STR    H21  138   1.193   0.488   1.816
    1STR    H22  139   1.064   0.544   1.705
    1STR    H23  140   1.206   0.272   1.949
    1STR    H27  141   1.174   0.014   1.748
    1STR    H28  142   0.442   0.596   1.310
    1STR    H29  143   0.210   0.504   1.322
    1STR    H2A  144   0.126   0.165   1.425
    1STR    H2B  145   0.069   0.324   1.402
    1STR    H2C  146   0.153   0.270   1.556
    1STR   BCK1  147   0.339   0.234   3.194
    1STR    O03  148   0.262   0.309   3.136
    1STR    N04  149   0.375   0.264   3.319
    1STR    C05  150   0.453   0.199   3.415
    1STR    C06  151   0.498   0.070   3.397
    1STR    C07  152   0.594   0.012   3.477
    1STR    N08  153   0.658   6.248   3.417
    1STR    C09  154   0.619   6.122   3.427
    1STR    O0A  155   0.563   6.079   3.527
    1STR    O0B  156   0.634   6.056   3.309
    1STR    C0C  157   0.725   6.089   3.203
    1STR    C0D  158   0.729   5.963   3.121
    1STR    C0E  159   0.707   6.207   3.103
    1STR    O0F  160   0.657   6.327   3.161
    1STR    C0G  161   0.728   0.104   3.128
    1STR    C0H  162   0.662   0.239   3.159
    1STR    C0I  163   0.834   0.093   3.227
    1STR    O0J  164   0.942   0.154   3.171
    1STR    C0K  165   0.951   0.292   3.185
    1STR    C0M  166   0.906   0.362   3.055
    1STR    C0N  167   0.934   0.362   3.325
    1STR    O0O  168   0.913   0.282   3.441
    1STR    C0P  169   0.984   0.172   3.459
    1STR    O0Q  170   1.075   0.142   3.386
    1STR    N0R  171   0.935   0.095   3.554
    1STR    C0S  172   0.966   6.301   3.578
    1STR    C0T  173   1.009   6.262   3.705
    1STR    C0U  174   1.038   6.127   3.730
    1STR    C0V  175   1.026   6.030   3.628
    1STR    C0W  176   1.070   5.889   3.652
    1STR    C0X  177   0.980   6.066   3.502
    1STR    N0Y  178   0.951   5.965   3.411
    1STR   BCK2  179   0.994   5.925   3.291
    1STR    O10  180   0.961   5.813   3.254
    1STR    C13  181   0.946   6.201   3.481
    1STR    C14  182   0.633   0.075   3.596
    1STR    C15  183   0.577   0.200   3.626
    1STR    C16  184   0.488   0.263   3.535
    1STR    C17  185   0.429   0.397   3.564
    1STR    H1B  186   0.316   0.336   3.356
    1STR    H1C  187   0.462   0.015   3.314
    1STR    H1D  188   0.684   6.270   3.321
    1STR    H1E  189   0.820   6.103   3.251
    1STR    H1F  190   0.638   5.951   3.063
    1STR    H1G  191   0.815   5.964   3.054
    1STR    H1H  192   0.737   5.877   3.187
    1STR    H1I  193   0.640   6.181   3.021
    1STR    H1J  194   0.803   6.223   3.053
    1STR    H1K  195   0.768   0.100   3.027
    1STR    H1M  196   0.599   0.226   3.241
    1STR    H1N  197   0.609   0.283   3.076
    1STR    H1O  198   0.717   0.317   3.206
    1STR    H1P  199   0.795   0.124   3.323
    1STR    H1Q  200   0.867   6.333   3.238
    1STR    H1R  201   1.055   0.283   3.178
    1STR    H1S  202   0.949   0.461   3.048
    1STR    H1T  203   0.802   0.378   3.034
    1STR    H1U  204   0.936   0.298   2.972
    1STR    H1V  205   0.851   0.431   3.321
    1STR    H1W  206   1.023   0.421   3.344
    1STR    H1X  207   0.861   0.136   3.607
    1STR    H1Y  208   1.027   6.336   3.781
    1STR    H1Z  209   1.080   6.099   3.825
    1STR    H20  210   0.986   5.821   3.635
    1STR    H21  211   1.149   5.866   3.580
    1STR    H22  212   1.109   5.876   3.752
    1STR    H23  213   0.896   5.891   3.452
    1STR    H27  214   0.908   6.226   3.387
    1STR    H28  215   0.705   0.026   3.660
    1STR    H29  216   0.603   0.250   3.718
    1STR    H2A  217   0.321   0.392   3.548
    1STR    H2B  218   0.474   0.469   3.496
    1STR    H2C  219   0.447   0.424   3.667
    1STR   BCK1  220   0.508   0.103   4.919
    1STR    O03  221   0.546   0.212   4.877
    1STR    N04  222   0.440   0.015   4.846
    1STR    C05  223   0.407   0.013   4.712
    1STR    C06  224   0.393   0.132   4.638
    1STR    C07  225   0.409   0.131   4.498
    1STR    N08  226   0.433   0.249   4.434
    1STR    C09  227   0.556   0.261   4.388
    1STR    O0A  228   0.608   0.195   4.298
    1STR    O0B  229   0.616   0.339   4.472
    1STR    C0C  230   0.739   0.299   4.529
    1STR    C0D  231   0.783   0.427   4.598
    1STR    C0E  232   0.726   0.186   4.631
    1STR    O0F  233   0.751   0.056   4.579
    1STR    C0G  234   0.722   6.293   4.672
    1STR    C0H  235   0.713   6.158   4.601
    1STR    C0I  236   0.796   6.289   4.804
    1STR    O0J  237   0.758   6.180   4.885
    1STR    C0K  238   0.868   6.123   4.954
    1STR    C0M  239   0.834   6.114   5.101
    1STR    C0N  240   0.896   5.989   4.885
    1STR    O0O  241   0.957   6.030   4.766
    1STR    C0P  242   0.961   5.957   4.657
    1STR    O0Q  243   0.933   5.839   4.651
    1STR    N0R  244   0.996   6.027   4.549
    1STR    C0S  245   1.016   6.166   4.538
    1STR    C0T  246   0.979   6.234   4.420
    1STR    C0U  247   0.983   0.035   4.417
    1STR    C0V  248   1.028   0.108   4.528
    1STR    C0W  249   1.046   0.256   4.528
    1STR    C0X  250   1.061   0.042   4.645
    1STR    N0Y  251   1.070   0.112   4.764
    1STR   BCK2  252   1.142   0.073   4.865
    1STR    O10  253   1.237   0.000   4.849
    1STR    C13  254   1.062   6.243   4.645
    1STR    C14  255   0.429   0.011   4.431
    1STR    C15  256   0.433   6.233   4.504
    1STR    C16  257   0.418   6.231   4.643
    1STR    C17  258   0.447   6.099   4.713
    1STR    H1B  259   0.402   6.277   4.901
    1STR    H1C  260   0.393   0.225   4.693
    1STR    H1D  261   0.412   0.328   4.493
    1STR    H1E  262   0.801   0.265   4.446
    1STR    H1F  263   0.699   0.469   4.653
    1STR    H1G  264   0.859   0.411   4.673
    1STR    H1H  265   0.818   0.498   4.524
    1STR    H1I  266   0.626   0.190   4.667
    1STR    H1J  267   0.790   0.203   4.717
    1STR    H1K  268   0.630   6.315   4.712
    1STR    H1M  269   0.644   6.154   4.521
    1STR    H1N  270   0.701   6.073   4.668
    1STR    H1O  271   0.792   6.137   4.538
    1STR    H1P  272   0.894   6.273   4.782
    1STR    H1Q  273   0.796   0.043   4.859
    1STR    H1R  274   0.958   6.184   4.951
    1STR    H1S  275   0.917   6.070   5.156
    1STR    H1T  276   0.745   6.054   5.119
    1STR    H1U  277   0.817   6.215   5.140
    1STR    H1V  278   0.804   5.935   4.863
    1STR    H1W  279   0.965   5.927   4.941
    1STR    H1X  280   0.992   5.972   4.465
    1STR    H1Y  281   0.942   6.179   4.336
    1STR    H1Z  282   0.951   0.087   4.328
    1STR    H20  283   0.995   0.303   4.445
    1STR    H21  284   1.018   0.302   4.621
    1STR    H22  285   1.151   0.275   4.518
    1STR    H23  286   1.002   0.184   4.782
    1STR    H27  287   1.095   6.195   4.735
    1STR    H28  288   0.450   0.009   4.325
    1STR    H29  289   0.453   6.142   4.452
    1STR    H2A  290   0.523   6.113   4.789
    1STR    H2B  291   0.484   6.025   4.642
    1STR    H2C  292   0.362   6.052   4.758
    1STR   BCK1  293   0.469   1.401   6.223
    1STR    O03  294   0.553   1.384   6.309
    1STR    N04  295   0.387   1.505   6.227
    1STR    C05  296   0.393   1.615   6.310
    1STR    C06  297   0.459   1.626   0.094
    1STR    C07  298   0.507   1.753   0.134
    1STR    N08  299   0.601   1.767   0.233
    1STR    C09  300   0.584   1.702   0.345
    1STR    O0A  301   0.512   1.744   0.432
    1STR    O0B  302   0.638   1.582   0.350
    1STR    C0C  303   0.761   1.551   0.292
    1STR    C0D  304   0.799   1.429   0.373
    1STR    C0E  305   0.761   1.517   0.143
    1STR    O0F  306   0.728   1.630   0.065
    1STR    C0G  307   0.741   1.616   6.266
    1STR    C0H  308   0.667   1.715   6.177
    1STR    C0I  309   0.882   1.643   6.245
    1STR    O0J  310   0.954   1.539   6.187
    1STR    C0K  311   0.909   1.491   6.062
    1STR    C0M  312   0.820   1.369   6.078
    1STR    C0N  313   0.874   1.582   5.941
    1STR    O0O  314   0.889   1.723   5.950
    1STR    C0P  315   1.008   1.776   5.963
    1STR    O0Q  316   1.112   1.717   5.946
    1STR    N0R  317   0.997   1.894   6.023
    1STR    C0S  318   1.053   1.917   6.147
    1STR    C0T  319   1.022   2.036   6.214
    1STR    C0U  320   1.050   2.048   0.011
    1STR    C0V  321   1.098   1.937   0.082
    1STR    C0W  322   1.139   1.959   0.222
    1STR    C0X  323   1.120   1.814   0.019
    1STR    N0Y  324   1.142   1.690   0.082
    1STR   BCK2  325   1.091   1.644   0.194
    1STR    O10  326   1.031   1.709   0.278
    1STR    C13  327   1.108   1.811   6.221
    1STR    C14  328   0.504   1.856   0.041
    1STR    C15  329   0.420   1.842   6.270
    1STR    C16  330   0.342   1.730   6.258
    1STR    C17  331   0.203   1.742   6.211
    1STR    H1B  332   0.323   1.515   6.151
    1STR    H1C  333   0.488   1.537   0.148
    1STR    H1D  334   0.685   1.736   0.183
    1STR    H1E  335   0.824   1.636   0.312
    1STR    H1F  336   0.713   1.365   0.389
    1STR    H1G  337   0.872   1.369   0.320
    1STR    H1H  338   0.839   1.462   0.469
    1STR    H1I  339   0.694   1.434   0.131
    1STR    H1J  340   0.856   1.479   0.108
    1STR    H1K  341   0.717   1.517   6.238
    1STR    H1M  342   0.677   1.817   6.214
    1STR    H1N  343   0.567   1.685   6.157
    1STR    H1O  344   0.704   1.721   6.076
    1STR    H1P  345   0.889   1.734   6.189
    1STR    H1Q  346   0.924   1.667   0.000
    1STR    H1R  347   1.002   1.449   6.035
    1STR    H1S  348   0.839   1.299   5.997
    1STR    H1T  349   0.715   1.393   6.075
    1STR    H1U  350   0.842   1.321   6.175
    1STR    H1V  351   0.768   1.567   5.919
    1STR    H1W  352   0.930   1.548   5.855
    1STR    H1X  353   0.910   1.939   6.003
    1STR    H1Y  354   0.976   2.118   6.161
    1STR    H1Z  355   1.033   2.140   0.063
    1STR    H20  356   1.058   1.947   0.293
    1STR    H21  357   1.213   1.882   0.235
    1STR    H22  358   1.187   2.056   0.231
    1STR    H23  359   1.185   1.617   0.028
    1STR    H27  360   1.115   1.714   6.175
    1STR    H28  361   0.563   1.945   0.055
    1STR    H29  362   0.407   1.916   6.194
    1STR    H2A  363   0.176   1.664   6.142
    1STR    H2B  364   0.189   1.840   6.165
    1STR    H2C  365   0.140   1.741   6.298
    1STR   BCK1  366   0.495   1.633   1.561
    1STR    O03  367   0.453   1.745   1.538
    1STR    N04  368   0.446   1.529   1.496
    1STR    C05  369   0.447   1.388   1.505
    1STR    C06  370   0.478   1.306   1.614
    1STR    C07  371   0.499   1.168   1.598
    1STR    N08  372   0.579   1.099   1.686
    1STR    C09  373   0.706   1.074   1.653
    1STR    O0A  374   0.784   1.017   1.728
    1STR    O0B  375   0.739   1.134   1.537
    1STR    C0C  376   0.814   1.254   1.539
    1STR    C0D  377   0.829   1.305   1.397
    1STR    C0E  378   0.775   1.365   1.637
    1STR    O0F  379   0.761   1.303   1.764
    1STR    C0G  380   0.703   1.367   1.875
    1STR    C0H  381   0.688   1.257   1.978
    1STR    C0I  382   0.793   1.475   1.922
    1STR    O0J  383   0.745   1.607   1.916
    1STR    C0K  384   0.845   1.701   1.892
    1STR    C0M  385   0.799   1.810   1.794
    1STR    C0N  386   0.888   1.753   2.029
    1STR    O0O  387   0.939   1.646   2.109
    1STR    C0P  388   1.058   1.600   2.079
    1STR    O0Q  389   1.150   1.672   2.044
    1STR    N0R  390   1.057   1.468   2.067
    1STR    C0S  391   1.079   1.401   1.947
    1STR    C0T  392   1.040   1.266   1.936
    1STR    C0U  393   1.053   1.200   1.812
    1STR    C0V  394   1.095   1.272   1.698
    1STR    C0W  395   1.135   1.202   1.570
    1STR    C0X  396   1.102   1.411   1.703
    1STR    N0Y  397   1.083   1.476   1.583
    1STR   BCK2  398   1.058   1.598   1.532
    1STR    O10  399   1.016   1.599   1.418
    1STR    C13  400   1.110   1.470   1.828
    1STR    C14  401   0.477   1.109   1.473
    1STR    C15  402   0.429   1.184   1.369
    1STR    C16  403   0.414   1.321   1.388
    1STR    C17  404   0.362   1.398   1.279
    1STR    H1B  405   0.399   1.561   1.413
    1STR    H1C  406   0.506   1.351   1.705
    1STR    H1D  407   0.554   1.086   1.783
    1STR    H1E  408   0.903   1.212   1.578
    1STR    H1F  409   0.730   1.329   1.357
    1STR    H1G  410   0.888   1.396   1.393
    1STR    H1H  411   0.875   1.230   1.335
    1STR    H1I  412   0.689   1.414   1.596
    1STR    H1J  413   0.848   1.446   1.640
    1STR    H1K  414   0.606   1.406   1.859
    1STR    H1M  415   0.603   1.195   1.950
    1STR    H1N  416   0.669   1.299   2.076
    1STR    H1O  417   0.777   1.196   1.980
    1STR    H1P  418   0.823   1.455   2.024
    1STR    H1Q  419   0.873   1.464   1.853
    1STR    H1R  420   0.925   1.652   1.837
    1STR    H1S  421   0.873   1.889   1.783
    1STR    H1T  422   0.706   1.856   1.822
    1STR    H1U  423   0.786   1.766   1.695
    1STR    H1V  424   0.799   1.793   2.078
    1STR    H1W  425   0.960   1.833   2.019
    1STR    H1X  426   0.997   1.421   2.132
    1STR    H1Y  427   1.009   1.210   2.022
    1STR    H1Z  428   1.035   1.093   1.806
    1STR    H20  429   1.240   1.220   1.552
    1STR    H21  430   1.116   1.095   1.578
    1STR    H22  431   1.084   1.240   1.481
    1STR    H23  432   1.080   1.411   1.507
    1STR    H27  433   1.134   1.571   1.829
    1STR    H28  434   0.507   1.009   1.452
    1STR    H29  435   0.409   1.136   1.276
    1STR    H2A  436   0.286   1.340   1.236
    1STR    H2B  437   0.443   1.422   1.210
    1STR    H2C  438   0.305   1.481   1.316
    1STR   BCK1  439   0.376   1.751   3.218
    1STR    O03  440   0.393   1.870   3.238
    1STR    N04  441   0.337   1.704   3.099
    1STR    C05  442   0.327   1.796   2.996
    1STR    C06  443   0.432   1.807   2.909
    1STR    C07  444   0.451   1.916   2.826
    1STR    N08  445   0.580   1.927   2.780
    1STR    C09  446   0.655   2.026   2.825
    1STR    O0A  447   0.620   2.142   2.839
    1STR    O0B  448   0.768   1.976   2.868
    1STR    C0C  449   0.777   1.928   3.002
    1STR    C0D  450   0.735   2.027   3.110
    1STR    C0E  451   0.720   1.789   3.032
    1STR    O0F  452   0.723   1.701   2.919
    1STR    C0G  453   0.661   1.573   2.941
    1STR    C0H  454   0.609   1.522   2.807
    1STR    C0I  455   0.755   1.474   2.994
    1STR    O0J  456   0.803   1.531   3.112
    1STR    C0K  457   0.838   1.453   3.223
    1STR    C0M  458   0.737   1.464   3.326
    1STR    C0N  459   0.902   1.316   3.214
    1STR    O0O  460   0.903   1.260   3.087
    1STR    C0P  461   0.990   1.295   2.993
    1STR    O0Q  462   1.012   1.223   2.897
    1STR    N0R  463   1.052   1.413   2.996
    1STR    C0S  464   1.064   1.539   3.051
    1STR    C0T  465   1.052   1.647   2.962
    1STR    C0U  466   1.064   1.777   3.008
    1STR    C0V  467   1.071   1.803   3.147
    1STR    C0W  468   1.066   1.942   3.201
    1STR    C0X  469   1.091   1.697   3.235
    1STR    N0Y  470   1.103   1.724   3.371
    1STR   BCK2  471   1.046   1.661   3.474
    1STR    O10  472   0.978   1.560   3.469
    1STR    C13  473   1.103   1.568   3.183
    1STR    C14  474   0.350   2.012   2.817
    1STR    C15  475   0.231   1.990   2.888
    1STR    C16  476   0.221   1.884   2.980
    1STR    C17  477   0.101   1.856   3.060
    1STR    H1B  478   0.361   1.608   3.083
    1STR    H1C  479   0.505   1.735   2.915
    1STR    H1D  480   0.634   1.841   2.783
    1STR    H1E  481   0.882   1.922   3.014
    1STR    H1F  482   0.629   2.049   3.104
    1STR    H1G  483   0.754   1.984   3.209
    1STR    H1H  484   0.793   2.118   3.101
    1STR    H1I  485   0.621   1.801   3.073
    1STR    H1J  486   0.777   1.751   3.117
    1STR    H1K  487   0.581   1.577   3.014
    1STR    H1M  488   0.679   1.545   2.727
    1STR    H1N  489   0.516   1.569   2.784
    1STR    H1O  490   0.593   1.414   2.810
    1STR    H1P  491   0.707   1.377   3.012
    1STR    H1Q  492   0.831   1.465   2.918
    1STR    H1R  493   0.903   1.521   3.269
    1STR    H1S  494   0.741   1.389   3.405
    1STR    H1T  495   0.661   1.451   3.255
    1STR    H1U  496   0.733   1.565   3.368
    1STR    H1V  497   0.852   1.245   3.278
    1STR    H1W  498   1.003   1.319   3.251
    1STR    H1X  499   1.112   1.416   2.912
    1STR    H1Y  500   1.035   1.628   2.857
    1STR    H1Z  501   1.061   1.857   2.936
    1STR    H20  502   0.977   1.954   3.262
    1STR    H21  503   1.153   1.956   3.264
    1STR    H22  504   1.068   2.016   3.121
    1STR    H23  505   1.156   1.805   3.396
    1STR    H27  506   1.122   1.490   3.250
    1STR    H28  507   0.365   2.102   2.759
    1STR    H29  508   0.151   2.060   2.875
    1STR    H2A  509   0.118   1.878   3.164
    1STR    H2B  510   0.092   1.750   3.061
    1STR    H2C  511   0.013   1.900   3.018
    1STR   BCK1  512   0.475   1.590   4.727
    1STR    O03  513   0.583   1.536   4.727
    1STR    N04  514   0.438   1.682   4.814
    1STR    C05  515   0.488   1.713   4.938
    1STR    C06  516   0.534   1.607   5.018
    1STR    C07  517   0.575   1.625   5.150
    1STR    N08  518   0.641   1.522   5.216
    1STR    C09  519   0.640   1.395   5.178
    1STR    O0A  520   0.546   1.333   5.129
    1STR    O0B  521   0.763   1.350   5.180
    1STR    C0C  522   0.833   1.336   5.057
    1STR    C0D  523   0.818   1.197   5.000
    1STR    C0E  524   0.797   1.439   4.949
    1STR    O0F  525   0.834   1.564   5.004
    1STR    C0G  526   0.799   1.676   4.927
    1STR    C0H  527   0.820   1.801   5.010
    1STR    C0I  528   0.865   1.687   4.799
    1STR    O0J  529   0.821   1.596   4.700
    1STR    C0K  530   0.843   1.631   4.566
    1STR    C0M  531   0.814   1.505   4.487
    1STR    C0N  532   0.761   1.752   4.519
    1STR    O0O  533   0.786   1.870   4.592
    1STR    C0P  534   0.822   1.984   4.535
    1STR    O0Q  535   0.770   2.033   4.436
    1STR    N0R  536   0.924   2.042   4.598
    1STR    C0S  537   1.007   1.973   4.683
    1STR    C0T  538   1.028   2.015   4.815
    1STR    C0U  539   1.108   1.935   4.898
    1STR    C0V  540   1.157   1.813   4.850
    1STR    C0W  541   1.231   1.729   4.942
    1STR    C0X  542   1.134   1.766   4.721
    1STR    N0Y  543   1.159   1.636   4.675
    1STR   BCK2  544   1.132   1.511   4.721
    1STR    O10  545   1.150   1.414   4.651
    1STR    C13  546   1.063   1.852   4.636
    1STR    C14  547   0.564   1.754   5.205
    1STR    C15  548   0.514   1.861   5.128
    1STR    C16  549   0.478   1.841   4.993
    1STR    C17  550   0.430   1.955   4.907
    1STR    H1B  551   0.346   1.719   4.800
    1STR    H1C  552   0.526   1.511   4.977
    1STR    H1D  553   0.730   1.553   5.252
    1STR    H1E  554   0.937   1.355   5.083
    1STR    H1F  555   0.714   1.176   4.975
    1STR    H1G  556   0.875   1.192   4.908
    1STR    H1H  557   0.854   1.124   5.072
    1STR    H1I  558   0.694   1.431   4.918
    1STR    H1J  559   0.846   1.418   4.855
    1STR    H1K  560   0.704   1.673   4.882
    1STR    H1M  561   0.785   1.788   5.111
    1STR    H1N  562   0.769   1.886   4.964
    1STR    H1O  563   0.925   1.821   5.021
    1STR    H1P  564   0.859   1.790   4.775
    1STR    H1Q  565   0.961   1.667   4.830
    1STR    H1R  566   0.948   1.646   4.553
    1STR    H1S  567   0.844   1.518   4.383
    1STR    H1T  568   0.708   1.481   4.492
    1STR    H1U  569   0.871   1.422   4.528
    1STR    H1V  570   0.654   1.731   4.526
    1STR    H1W  571   0.789   1.772   4.417
    1STR    H1X  572   0.939   2.140   4.579
    1STR    H1Y  573   0.982   2.104   4.854
    1STR    H1Z  574   1.125   1.963   5.001
    1STR    H20  575   1.161   1.695   5.017
    1STR    H21  576   1.266   1.644   4.895
    1STR    H22  577   1.323   1.775   4.975
    1STR    H23  578   1.197   1.633   4.583
    1STR    H27  579   1.046   1.823   4.534
    1STR    H28  580   0.595   1.771   5.307
    1STR    H29  581   0.505   1.959   5.171
    1STR    H2A  582   0.476   1.949   4.808
    1STR    H2B  583   0.454   2.050   4.953
    1STR    H2C  584   0.323   1.947   4.894
    1STR   BCK1  585   0.409   3.432   0.046
    1STR    O03  586   0.402   3.540   6.330
    1STR    N04  587   0.390   3.317   6.320
    1STR    C05  588   0.452   3.284   6.202
    1STR    C06  589   0.538   3.374   6.135
    1STR    C07  590   0.623   3.328   6.035
    1STR    N08  591   0.743   3.388   6.020
    1STR    C09  592   0.847   3.362   6.099
    1STR    O0A  593   0.949   3.424   6.079
    1STR    O0B  594   0.841   3.268   6.200
    1STR    C0C  595   0.755   3.158   6.239
    1STR    C0D  596   0.760   3.019   6.164
    1STR    C0E  597   0.761   3.123   0.045
    1STR    O0F  598   0.668   3.014   0.052
    1STR    C0G  599   0.672   2.906   0.142
    1STR    C0H  600   0.582   2.800   0.081
    1STR    C0I  601   0.806   2.845   0.155
    1STR    O0J  602   0.897   2.943   0.199
    1STR    C0K  603   0.960   2.934   0.322
    1STR    C0M  604   0.869   3.004   0.421
    1STR    C0N  605   1.010   2.792   0.351
    1STR    O0O  606   1.028   2.732   0.224
    1STR    C0P  607   1.145   2.702   0.179
    1STR    O0Q  608   1.239   2.670   0.249
    1STR    N0R  609   1.156   2.713   0.048
    1STR    C0S  610   1.088   2.799   6.302
    1STR    C0T  611   1.050   2.760   6.173
    1STR    C0U  612   1.022   2.858   6.075
    1STR    C0V  613   1.033   2.995   6.106
    1STR    C0W  614   1.022   3.101   5.996
    1STR    C0X  615   1.056   3.033   6.239
    1STR    N0Y  616   1.046   3.167   6.271
    1STR   BCK2  617   1.070   3.234   0.040
    1STR    O10  618   0.988   3.305   0.097
    1STR    C13  619   1.084   2.934   6.335
    1STR    C14  620   0.613   3.199   5.984
    1STR    C15  621   0.530   3.110   6.052
    1STR    C16  622   0.454   3.149   6.161
    1STR    C17  623   0.394   3.036   6.237
    1STR    H1B  624   0.350   3.239   0.033
    1STR    H1C  625   0.557   3.473   6.173
    1STR    H1D  626   0.758   3.462   5.954
    1STR    H1E  627   0.662   3.201   6.248
    1STR    H1F  628   0.825   2.949   6.214
    1STR    H1G  629   0.669   2.961   6.174
    1STR    H1H  630   0.779   3.021   6.058
    1STR    H1I  631   0.740   3.208   0.110
    1STR    H1J  632   0.862   3.096   0.061
    1STR    H1K  633   0.638   2.934   0.241
    1STR    H1M  634   0.616   2.774   6.320
    1STR    H1N  635   0.479   2.832   0.072
    1STR    H1O  636   0.581   2.710   0.142
    1STR    H1P  637   0.796   2.759   0.221
    1STR    H1Q  638   0.839   2.808   0.058
    1STR    H1R  639   1.046   2.998   0.305
    1STR    H1S  640   0.919   3.019   0.516
    1STR    H1T  641   0.777   2.948   0.435
    1STR    H1U  642   0.842   3.103   0.381
    1STR    H1V  643   0.933   2.735   0.402
    1STR    H1W  644   1.100   2.794   0.412
    1STR    H1X  645   1.257   2.713   0.030
    1STR    H1Y  646   1.053   2.656   6.146
    1STR    H1Z  647   1.000   2.828   5.974
    1STR    H20  648   1.084   3.188   6.019
    1STR    H21  649   1.059   3.059   5.902
    1STR    H22  650   0.922   3.139   5.978
    1STR    H23  651   0.968   3.213   6.221
    1STR    H27  652   1.107   2.957   0.096
    1STR    H28  653   0.679   3.162   5.907
    1STR    H29  654   0.528   3.007   6.021
    1STR    H2A  655   0.454   3.018   6.323
    1STR    H2B  656   0.385   2.945   6.178
    1STR    H2C  657   0.298   3.067   6.267
    1STR   BCK1  658   0.347   3.141   1.597
    1STR    O03  659   0.370   3.153   1.715
    1STR    N04  660   0.303   3.240   1.523
    1STR    C05  661   0.348   3.369   1.535
    1STR    C06  662   0.450   3.408   1.620
    1STR    C07  663   0.538   3.509   1.582
    1STR    N08  664   0.648   3.525   1.662
    1STR    C09  665   0.646   3.536   1.794
    1STR    O0A  666   0.586   3.622   1.858
    1STR    O0B  667   0.710   3.440   1.855
    1STR    C0C  668   0.789   3.343   1.789
    1STR    C0D  669   0.876   3.288   1.898
    1STR    C0E  670   0.715   3.226   1.719
    1STR    O0F  671   0.635   3.241   1.600
    1STR    C0G  672   0.679   3.253   1.464
    1STR    C0H  673   0.586   3.285   1.350
    1STR    C0I  674   0.796   3.344   1.460
    1STR    O0J  675   0.893   3.274   1.531
    1STR    C0K  676   0.930   3.151   1.482
    1STR    C0M  677   0.851   3.021   1.526
    1STR    C0N  678   0.978   3.161   1.336
    1STR    O0O  679   0.948   3.269   1.249
    1STR    C0P  680   1.038   3.361   1.212
    1STR    O0Q  681   1.068   3.380   1.095
    1STR    N0R  682   1.097   3.438   1.304
    1STR    C0S  683   1.076   3.459   1.439
    1STR    C0T  684   1.011   3.578   1.475
    1STR    C0U  685   1.009   3.620   1.609
    1STR    C0V  686   1.070   3.541   1.707
    1STR    C0W  687   1.082   3.593   1.849
    1STR    C0X  688   1.125   3.416   1.674
    1STR    N0Y  689   1.169   3.339   1.779
    1STR   BCK2  690   1.190   3.209   1.792
    1STR    O10  691   1.189   3.127   1.701
    1STR    C13  692   1.133   3.377   1.539
    1STR    C14  693   0.517   3.579   1.462
    1STR    C15  694   0.393   3.563   1.396
    1STR    C16  695   0.309   3.458   1.437
    1STR    C17  696   0.170   3.442   1.392
    1STR    H1B  697   0.233   3.217   1.454
    1STR    H1C  698   0.470   3.354   1.710
    1STR    H1D  699   0.703   3.444   1.640
    1STR    H1E  700   0.856   3.396   1.722
    1STR    H1F  701   0.832   3.214   1.965
    1STR    H1G  702   0.951   3.233   1.846
    1STR    H1H  703   0.919   3.365   1.961
    1STR    H1I  704   0.642   3.185   1.785
    1STR    H1J  705   0.790   3.149   1.714
    1STR    H1K  706   0.697   3.156   1.424
    1STR    H1M  707   0.573   3.390   1.334
    1STR    H1N  708   0.491   3.235   1.361
    1STR    H1O  709   0.630   3.250   1.257
    1STR    H1P  710   0.813   3.382   1.362
    1STR    H1Q  711   0.788   3.439   1.508
    1STR    H1R  712   1.021   3.139   1.539
    1STR    H1S  713   0.840   2.952   1.443
    1STR    H1T  714   0.750   3.027   1.563
    1STR    H1U  715   0.905   2.973   1.608
    1STR    H1V  716   0.943   3.075   1.281
    1STR    H1W  717   1.085   3.156   1.346
    1STR    H1X  718   1.166   3.497   1.260
    1STR    H1Y  719   0.966   3.640   1.399
    1STR    H1Z  720   0.961   3.713   1.636
    1STR    H20  721   1.030   3.530   1.919
    1STR    H21  722   1.187   3.595   1.878
    1STR    H22  723   1.042   3.694   1.857
    1STR    H23  724   1.177   3.389   1.867
    1STR    H27  725   1.181   3.284   1.514
    1STR    H28  726   0.586   3.656   1.431
    1STR    H29  727   0.362   3.631   1.318
    1STR    H2A  728   0.154   3.345   1.347
    1STR    H2B  729   0.141   3.525   1.329
    1STR    H2C  730   0.107   3.441   1.480
    1STR   BCK1  731   0.410   3.075   3.323
    1STR    O03  732   0.437   3.190   3.332
    1STR    N04  733   0.349   3.013   3.423
    1STR    C05  734   0.428   2.974   3.530
    1STR    C06  735   0.557   3.030   3.538
    1STR    C07  736   0.654   2.940   3.496
    1STR    N08  737   0.719   2.984   3.382
    1STR    C09  738   0.734   2.912   3.272
    1STR    O0A  739   0.734   2.789   3.267
    1STR    O0B  740   0.726   2.983   3.162
    1STR    C0C  741   0.790   3.108   3.144
    1STR    C0D  742   0.879   3.067   3.028
    1STR    C0E  743   0.699   3.215   3.089
    1STR    O0F  744   0.584   3.272   3.150
    1STR    C0G  745   0.593   3.405   3.200
    1STR    C0H  746   0.470   3.491   3.187
    1STR    C0I  747   0.615   3.401   3.351
    1STR    O0J  748   0.709   3.301   3.374
    1STR    C0K  749   0.834   3.360   3.386
    1STR    C0M  750   0.867   3.470   3.278
    1STR    C0N  751   0.852   3.399   3.532
    1STR    O0O  752   0.815   3.284   3.608
    1STR    C0P  753   0.913   3.206   3.647
    1STR    O0Q  754   1.020   3.250   3.684
    1STR    N0R  755   0.893   3.079   3.618
    1STR    C0S  756   0.973   3.007   3.528
    1STR    C0T  757   0.953   2.870   3.509
    1STR    C0U  758   1.004   2.806   3.394
    1STR    C0V  759   1.069   2.882   3.295
    1STR    C0W  760   1.126   2.812   3.174
    1STR    C0X  761   1.088   3.020   3.314
    1STR    N0Y  762   1.122   3.095   3.202
    1STR   BCK2  763   1.130   3.226   3.177
    1STR    O10  764   1.122   3.267   3.063
    1STR    C13  765   1.052   3.076   3.436
    1STR    C14  766   0.643   2.805   3.535
    1STR    C15  767   0.520   2.759   3.585
    1STR    C16  768   0.408   2.842   3.570
    1STR    C17  769   0.268   2.786   3.572
    1STR    H1B  770   0.274   2.955   3.387
    1STR    H1C  771   0.572   3.133   3.509
    1STR    H1D  772   0.723   3.085   3.366
    1STR    H1E  773   0.849   3.139   3.229
    1STR    H1F  774   0.822   3.027   2.944
    1STR    H1G  775   0.937   3.150   2.992
    1STR    H1H  776   0.943   2.988   3.062
    1STR    H1I  777   0.650   3.145   3.024
    1STR    H1J  778   0.752   3.288   3.029
    1STR    H1K  779   0.667   3.454   3.139
    1STR    H1M  780   0.385   3.430   3.210
    1STR    H1N  781   0.460   3.534   3.089
    1STR    H1O  782   0.470   3.574   3.256
    1STR    H1P  783   0.641   3.499   3.390
    1STR    H1Q  784   0.526   3.379   3.407
    1STR    H1R  785   0.897   3.273   3.373
    1STR    H1S  786   0.886   3.420   3.182
    1STR    H1T  787   0.953   3.529   3.304
    1STR    H1U  788   0.796   3.550   3.261
    1STR    H1V  789   0.788   3.483   3.558
    1STR    H1W  790   0.956   3.431   3.545
    1STR    H1X  791   0.797   3.052   3.613
    1STR    H1Y  792   0.899   2.813   3.583
    1STR    H1Z  793   0.990   2.700   3.381
    1STR    H20  794   1.228   2.845   3.161
    1STR    H21  795   1.126   2.705   3.190
    1STR    H22  796   1.071   2.833   3.084
    1STR    H23  797   1.135   3.038   3.121
    1STR    H27  798   1.079   3.176   3.462
    1STR    H28  799   0.719   2.733   3.511
    1STR    H29  800   0.509   2.655   3.611
    1STR    H2A  801   0.225   2.786   3.472
    1STR    H2B  802   0.207   2.849   3.636
    1STR    H2C  803   0.269   2.684   3.609
    1STR   BCK1  804   0.560   3.285   4.906
    1STR    O03  805   0.602   3.397   4.881
    1STR    N04  806   0.482   3.210   4.824
    1STR    C05  807   0.425   3.242   4.702
    1STR    C06  808   0.411   3.376   4.662
    1STR    C07  809   0.374   3.404   4.530
    1STR    N08  810   0.401   3.527   4.475
    1STR    C09  811   0.524   3.530   4.431
    1STR    O0A  812   0.559   3.495   4.318
    1STR    O0B  813   0.599   3.556   4.535
    1STR    C0C  814   0.721   3.489   4.549
    1STR    C0D  815   0.790   3.563   4.664
    1STR    C0E  816   0.715   3.340   4.584
    1STR    O0F  817   0.657   3.257   4.486
    1STR    C0G  818   0.651   3.120   4.525
    1STR    C0H  819   0.600   3.041   4.404
    1STR    C0I  820   0.780   3.061   4.561
    1STR    O0J  821   0.845   3.093   4.682
    1STR    C0K  822   0.870   2.990   4.776
    1STR    C0M  823   0.738   2.961   4.831
    1STR    C0N  824   0.940   2.857   4.740
    1STR    O0O  825   0.891   2.798   4.621
    1STR    C0P  826   0.969   2.765   4.518
    1STR    O0Q  827   0.992   2.649   4.492
    1STR    N0R  828   1.016   2.862   4.437
    1STR    C0S  829   1.030   2.999   4.448
    1STR    C0T  830   0.996   3.085   4.343
    1STR    C0U  831   0.999   3.225   4.364
    1STR    C0V  832   1.044   3.277   4.488
    1STR    C0W  833   1.038   3.423   4.512
    1STR    C0X  834   1.092   3.193   4.588
    1STR    N0Y  835   1.131   3.247   4.711
    1STR   BCK2  836   1.146   3.180   4.824
    1STR    O10  837   1.147   3.060   4.830
    1STR    C13  838   1.090   3.055   4.561
    1STR    C14  839   0.327   3.306   4.446
    1STR    C15  840   0.318   3.175   4.492
    1STR    C16  841   0.375   3.141   4.616
    1STR    C17  842   0.382   2.994   4.647
    1STR    H1B  843   0.445   3.124   4.861
    1STR    H1C  844   0.443   3.456   4.726
    1STR    H1D  845   0.390   3.594   4.551
    1STR    H1E  846   0.767   3.501   4.452
    1STR    H1F  847   0.719   3.577   4.746
    1STR    H1G  848   0.871   3.505   4.708
    1STR    H1H  849   0.826   3.660   4.631
    1STR    H1I  850   0.665   3.323   4.677
    1STR    H1J  851   0.817   3.309   4.606
    1STR    H1K  852   0.603   3.101   4.619
    1STR    H1M  853   0.665   3.059   4.319
    1STR    H1N  854   0.501   3.070   4.374
    1STR    H1O  855   0.598   2.934   4.425
    1STR    H1P  856   0.786   2.960   4.527
    1STR    H1Q  857   0.830   3.122   4.492
    1STR    H1R  858   0.920   3.040   4.858
    1STR    H1S  859   0.748   2.916   4.930
    1STR    H1T  860   0.677   2.900   4.765
    1STR    H1U  861   0.695   3.060   4.838
    1STR    H1V  862   0.920   2.786   4.820
    1STR    H1W  863   1.048   2.862   4.742
    1STR    H1X  864   1.067   2.825   4.358
    1STR    H1Y  865   0.956   3.045   4.251
    1STR    H1Z  866   0.961   3.292   4.289
    1STR    H20  867   0.955   3.468   4.464
    1STR    H21  868   1.049   3.456   4.615
    1STR    H22  869   1.117   3.461   4.455
    1STR    H23  870   1.143   3.347   4.722
    1STR    H27  871   1.139   2.986   4.625
    1STR    H28  872   0.307   3.340   4.346
    1STR    H29  873   0.278   3.096   4.432
    1STR    H2A  874   0.451   2.970   4.727
    1STR    H2B  875   0.414   2.939   4.559
    1STR    H2C  876   0.284   2.958   4.667
    1STR   BCK1  877   0.467   4.762   6.272
    1STR    O03  878   0.526   4.693   0.013
    1STR    N04  879   0.405   4.877   6.306
    1STR    C05  880   0.423   4.950   0.086
    1STR    C06  881   0.518   4.918   0.182
    1STR    C07  882   0.563   5.006   0.281
    1STR    N08  883   0.673   4.968   0.353
    1STR    C09  884   0.653   4.881   0.450
    1STR    O0A  885   0.570   4.901   0.536
    1STR    O0B  886   0.716   4.762   0.437
    1STR    C0C  887   0.818   4.727   0.344
    1STR    C0D  888   0.846   4.583   0.383
    1STR    C0E  889   0.783   4.727   0.195
    1STR    O0F  890   0.777   4.863   0.154
    1STR    C0G  891   0.758   4.888   0.017
    1STR    C0H  892   0.711   5.032   6.327
    1STR    C0I  893   0.892   4.865   6.309
    1STR    O0J  894   0.896   4.751   6.230
    1STR    C0K  895   0.896   4.770   6.090
    1STR    C0M  896   0.830   4.639   6.052
    1STR    C0N  897   0.828   4.891   6.018
    1STR    O0O  898   0.869   5.025   6.051
    1STR    C0P  899   0.997   5.055   6.047
    1STR    O0Q  900   1.074   4.992   5.978
    1STR    N0R  901   1.033   5.129   6.152
    1STR    C0S  902   1.117   5.077   6.251
    1STR    C0T  903   1.136   5.147   0.030
    1STR    C0U  904   1.218   5.088   0.128
    1STR    C0V  905   1.251   4.951   0.122
    1STR    C0W  906   1.366   4.896   0.198
    1STR    C0X  907   1.196   4.872   0.023
    1STR    N0Y  908   1.158   4.739   0.035
    1STR   BCK2  909   1.121   4.656   0.132
    1STR    O10  910   1.055   4.556   0.106
    1STR    C13  911   1.153   4.941   6.250
    1STR    C14  912   0.502   5.129   0.295
    1STR    C15  913   0.387   5.150   0.219
    1STR    C16  914   0.340   5.056   0.124
    1STR    C17  915   0.193   5.028   0.111
    1STR    H1B  916   0.340   4.919   6.240
    1STR    H1C  917   0.560   4.822   0.184
    1STR    H1D  918   0.742   4.934   0.285
    1STR    H1E  919   0.904   4.792   0.360
    1STR    H1F  920   0.757   4.522   0.373
    1STR    H1G  921   0.920   4.537   0.317
    1STR    H1H  922   0.882   4.578   0.485
    1STR    H1I  923   0.693   4.669   0.177
    1STR    H1J  924   0.857   4.675   0.137
    1STR    H1K  925   0.700   4.817   6.302
    1STR    H1M  926   0.731   5.098   0.071
    1STR    H1N  927   0.607   5.035   6.303
    1STR    H1O  928   0.752   5.076   6.238
    1STR    H1P  929   0.916   4.953   6.259
    1STR    H1Q  930   0.958   4.861   0.054
    1STR    H1R  931   0.999   4.769   6.060
    1STR    H1S  932   0.830   4.625   5.944
    1STR    H1T  933   0.729   4.636   6.090
    1STR    H1U  934   0.885   4.556   6.097
    1STR    H1V  935   0.721   4.885   6.033
    1STR    H1W  936   0.849   4.878   5.912
    1STR    H1X  937   0.962   5.193   6.182
    1STR    H1Y  938   1.104   5.249   0.041
    1STR    H1Z  939   1.260   5.152   0.201
    1STR    H20  940   1.324   4.852   0.282
    1STR    H21  941   1.417   4.813   0.153
    1STR    H22  942   1.439   4.974   0.220
    1STR    H23  943   1.126   4.693   6.290
    1STR    H27  944   1.115   4.882   6.172
    1STR    H28  945   0.533   5.197   0.373
    1STR    H29  946   0.331   5.232   0.256
    1STR    H2A  947   0.170   4.970   0.023
    1STR    H2B  948   0.126   5.111   0.117
    1STR    H2C  949   0.162   4.967   0.193
    1STR   BCK1  950   0.448   4.792   1.592
    1STR    O03  951   0.407   4.875   1.511
    1STR    N04  952   0.448   4.659   1.574
    1STR    C05  953   0.440   4.586   1.457
    1STR    C06  954   0.454   4.652   1.335
    1STR    C07  955   0.511   4.587   1.226
    1STR    N08  956   0.552   4.666   1.121
    1STR    C09  957   0.676   4.653   1.078
    1STR    O0A  958   0.708   4.571   0.993
    1STR    O0B  959   0.756   4.707   1.167
    1STR    C0C  960   0.809   4.619   1.264
    1STR    C0D  961   0.957   4.614   1.245
    1STR    C0E  962   0.767   4.663   1.403
    1STR    O0F  963   0.753   4.542   1.479
    1STR    C0G  964   0.741   4.565   1.617
    1STR    C0H  965   0.715   4.440   1.700
    1STR    C0I  966   0.864   4.633   1.659
    1STR    O0J  967   0.834   4.768   1.681
    1STR    C0K  968   0.854   4.816   1.812
    1STR    C0M  969   0.830   4.966   1.800
    1STR    C0N  970   0.786   4.740   1.926
    1STR    O0O  971   0.838   4.613   1.949
    1STR    C0P  972   0.875   4.568   2.067
    1STR    O0Q  973   0.823   4.597   2.174
    1STR    N0R  974   0.979   4.484   2.054
    1STR    C0S  975   1.051   4.480   1.936
    1STR    C0T  976   1.059   4.365   1.857
    1STR    C0U  977   1.103   4.380   1.724
    1STR    C0V  978   1.139   4.506   1.672
    1STR    C0W  979   1.162   4.520   1.525
    1STR    C0X  980   1.137   4.621   1.752
    1STR    N0Y  981   1.152   4.748   1.694
    1STR   BCK2  982   1.168   4.872   1.740
    1STR    O10  983   1.127   4.961   1.668
    1STR    C13  984   1.094   4.603   1.884
    1STR    C14  985   0.536   4.448   1.231
    1STR    C15  986   0.503   4.376   1.347
    1STR    C16  987   0.456   4.445   1.460
    1STR    C17  988   0.431   4.360   1.583
    1STR    H1B  989   0.474   4.602   1.653
    1STR    H1C  990   0.442   4.759   1.326
    1STR    H1D  991   0.522   4.761   1.133
    1STR    H1E  992   0.774   4.516   1.249
    1STR    H1F  993   0.996   4.714   1.255
    1STR    H1G  994   1.000   4.547   1.319
    1STR    H1H  995   0.982   4.578   1.146
    1STR    H1I  996   0.675   4.720   1.406
    1STR    H1J  997   0.839   4.736   1.437
    1STR    H1K  998   0.665   4.636   1.638
    1STR    H1M  999   0.741   4.349   1.646
    1STR    H1N 1000   0.611   4.438   1.730
    1STR    H1O 1001   0.765   4.437   1.797
    1STR    H1P 1002   0.902   4.579   1.742
    1STR    H1Q 1003   0.938   4.626   1.582
    1STR    H1R 1004   0.955   4.803   1.833
    1STR    H1S 1005   0.801   5.011   1.895
    1STR    H1T 1006   0.757   4.990   1.723
    1STR    H1U 1007   0.918   5.015   1.764
    1STR    H1V 1008   0.696   4.704   1.883
    1STR    H1W 1009   0.774   4.798   2.017
    1STR    H1X 1010   1.004   4.429   2.134
    1STR    H1Y 1011   1.023   4.270   1.891
    1STR    H1Z 1012   1.098   4.294   1.660
    1STR    H20 1013   1.122   4.613   1.487
    1STR    H21 1014   1.267   4.521   1.507
    1STR    H22 1015   1.116   4.439   1.469
    1STR    H23 1016   1.133   4.754   1.594
    1STR    H27 1017   1.076   4.686   1.948
    1STR    H28 1018   0.578   4.397   1.146
    1STR    H29 1019   0.518   4.270   1.351
    1STR    H2A 1020   0.391   4.417   1.667
    1STR    H2B 1021   0.520   4.304   1.608
    1STR    H2C 1022   0.363   4.282   1.556
    1STR   BCK1 1023   0.364   4.834   3.152
    1STR    O03 1024   0.444   4.882   3.231
    1STR    N04 1025   0.294   4.902   3.061
    1STR    C05 1026   0.320   5.029   3.010
    1STR    C06 1027   0.447   5.080   3.017
    1STR    C07 1028   0.487   5.198   2.960
    1STR    N08 1029   0.621   5.216   2.967
    1STR    C09 1030   0.687   5.318   3.016
    1STR    O0A 1031   0.649   5.434   3.008
    1STR    O0B 1032   0.801   5.277   3.071
    1STR    C0C 1033   0.808   5.175   3.171
    1STR    C0D 1034   0.762   5.225   3.307
    1STR    C0E 1035   0.750   5.034   3.149
    1STR    O0F 1036   0.751   4.995   3.010
    1STR    C0G 1037   0.680   4.875   2.974
    1STR    C0H 1038   0.643   4.884   2.827
    1STR    C0I 1039   0.758   4.753   2.998
    1STR    O0J 1040   0.793   4.765   3.134
    1STR    C0K 1041   0.800   4.657   3.223
    1STR    C0M 1042   0.745   4.709   3.356
    1STR    C0N 1043   0.774   4.517   3.162
    1STR    O0O 1044   0.855   4.496   3.046
    1STR    C0P 1045   0.982   4.512   3.066
    1STR    O0Q 1046   1.046   4.444   3.142
    1STR    N0R 1047   1.020   4.630   3.016
    1STR    C0S 1048   1.073   4.736   3.086
    1STR    C0T 1049   1.052   4.864   3.032
    1STR    C0U 1050   1.070   4.977   3.111
    1STR    C0V 1051   1.095   4.964   3.248
    1STR    C0W 1052   1.099   5.086   3.337
    1STR    C0X 1053   1.106   4.837   3.304
    1STR    N0Y 1054   1.103   4.827   3.442
    1STR   BCK2 1055   1.049   4.728   3.514
    1STR    O10 1056   1.003   4.624   3.469
    1STR    C13 1057   1.112   4.725   3.220
    1STR    C14 1058   0.393   5.283   2.901
    1STR    C15 1059   0.262   5.235   2.890
    1STR    C16 1060   0.230   5.106   2.938
    1STR    C17 1061   0.094   5.056   2.929
    1STR    H1B 1062   0.213   4.853   3.021
    1STR    H1C 1063   0.516   5.023   3.068
    1STR    H1D 1064   0.676   5.129   2.976
    1STR    H1E 1065   0.913   5.161   3.179
    1STR    H1F 1066   0.658   5.256   3.301
    1STR    H1G 1067   0.769   5.147   3.383
    1STR    H1H 1068   0.821   5.311   3.338
    1STR    H1I 1069   0.654   5.028   3.198
    1STR    H1J 1070   0.809   4.969   3.213
    1STR    H1K 1071   0.594   4.852   3.034
    1STR    H1M 1072   0.728   4.917   2.768
    1STR    H1N 1073   0.560   4.953   2.812
    1STR    H1O 1074   0.612   4.786   2.791
    1STR    H1P 1075   0.698   4.666   2.974
    1STR    H1Q 1076   0.841   4.758   2.929
    1STR    H1R 1077   0.900   4.645   3.257
    1STR    H1S 1078   0.724   4.628   3.426
    1STR    H1T 1079   0.660   4.777   3.347
    1STR    H1U 1080   0.818   4.775   3.401
    1STR    H1V 1081   0.674   4.507   3.124
    1STR    H1W 1082   0.795   4.439   3.235
    1STR    H1X 1083   0.968   4.657   2.935
    1STR    H1Y 1084   1.019   4.881   2.932
    1STR    H1Z 1085   1.055   5.072   3.063
    1STR    H20 1086   1.010   5.086   3.400
    1STR    H21 1087   1.186   5.083   3.400
    1STR    H22 1088   1.103   5.177   3.278
    1STR    H23 1089   1.139   4.904   3.494
    1STR    H27 1090   1.126   4.627   3.264
    1STR    H28 1091   0.421   5.380   2.864
    1STR    H29 1092   0.185   5.297   2.847
    1STR    H2A 1093   0.097   4.965   2.874
    1STR    H2B 1094   0.031   5.124   2.877
    1STR    H2C 1095   0.064   5.041   3.032
    1STR   BCK1 1096   0.474   4.787   4.681
    1STR    O03 1097   0.586   4.747   4.655
    1STR    N04 1098   0.439   4.863   4.786
    1STR    C05 1099   0.461   4.858   4.923
    1STR    C06 1100   0.494   4.737   4.983
    1STR    C07 1101   0.538   4.732   5.116
    1STR    N08 1102   0.611   4.622   5.155
    1STR    C09 1103   0.557   4.502   5.133
    1STR    O0A 1104   0.467   4.458   5.202
    1STR    O0B 1105   0.603   4.439   5.024
    1STR    C0C 1106   0.731   4.461   4.969
    1STR    C0D 1107   0.758   4.345   4.876
    1STR    C0E 1108   0.751   4.591   4.890
    1STR    O0F 1109   0.784   4.706   4.967
    1STR    C0G 1110   0.768   4.823   4.889
    1STR    C0H 1111   0.754   4.951   4.966
    1STR    C0I 1112   0.856   4.832   4.769
    1STR    O0J 1113   0.795   4.903   4.668
    1STR    C0K 1114   0.894   4.951   4.583
    1STR    C0M 1115   0.875   4.893   4.447
    1STR    C0N 1116   0.884   5.099   4.612
    1STR    O0O 1117   0.951   5.114   4.736
    1STR    C0P 1118   0.949   5.230   4.800
    1STR    O0Q 1119   0.905   5.333   4.751
    1STR    N0R 1120   0.998   5.229   4.925
    1STR    C0S 1121   1.031   5.119   5.005
    1STR    C0T 1122   0.976   5.113   5.135
    1STR    C0U 1123   0.971   4.989   5.203
    1STR    C0V 1124   1.018   4.872   5.143
    1STR    C0W 1125   0.998   4.741   5.217
    1STR    C0X 1126   1.078   4.879   5.016
    1STR    N0Y 1127   1.133   4.776   4.944
    1STR   BCK2 1128   1.069   4.681   4.879
    1STR    O10 1129   1.104   4.656   4.764
    1STR    C13 1130   1.088   5.003   4.952
    1STR    C14 1131   0.532   4.845   5.197
    1STR    C15 1132   0.482   4.965   5.143
    1STR    C16 1133   0.449   4.972   5.006
    1STR    C17 1134   0.400   5.103   4.953
    1STR    H1B 1135   0.361   4.924   4.765
    1STR    H1C 1136   0.491   4.649   4.923
    1STR    H1D 1137   0.700   4.637   5.106
    1STR    H1E 1138   0.801   4.457   5.054
    1STR    H1F 1139   0.685   4.344   4.795
    1STR    H1G 1140   0.857   4.352   4.832
    1STR    H1H 1141   0.751   4.251   4.931
    1STR    H1I 1142   0.670   4.616   4.828
    1STR    H1J 1143   0.826   4.572   4.814
    1STR    H1K 1144   0.675   4.820   4.843
    1STR    H1M 1145   0.746   4.936   5.073
    1STR    H1N 1146   0.672   5.010   4.928
    1STR    H1O 1147   0.833   5.016   4.941
    1STR    H1P 1148   0.945   4.881   4.802
    1STR    H1Q 1149   0.882   4.739   4.722
    1STR    H1R 1150   0.990   4.911   4.607
    1STR    H1S 1151   0.922   4.953   4.369
    1STR    H1T 1152   0.770   4.883   4.436
    1STR    H1U 1153   0.913   4.791   4.443
    1STR    H1V 1154   0.780   5.129   4.623
    1STR    H1W 1155   0.926   5.158   4.532
    1STR    H1X 1156   0.986   5.319   4.968
    1STR    H1Y 1157   0.926   5.197   5.178
    1STR    H1Z 1158   0.923   4.983   5.300
    1STR    H20 1159   0.908   4.693   5.180
    1STR    H21 1160   1.081   4.674   5.203
    1STR    H22 1161   0.988   4.757   5.324
    1STR    H23 1162   1.222   4.796   4.901
    1STR    H27 1163   1.128   4.999   4.853
    1STR    H28 1164   0.565   4.841   5.299
    1STR    H29 1165   0.471   5.052   5.206
    1STR    H2A 1166   0.446   5.124   4.857
    1STR    H2B 1167   0.423   5.184   5.021
    1STR    H2C 1168   0.292   5.092   4.946
    1STR   BCK1 1169   2.057   0.189   0.104
    1STR    O03 1170   2.096   0.292   0.051
    1STR    N04 1171   2.007   0.084   0.037
    1STR    C05 1172   2.023   0.046   6.245
    1STR    C06 1173   2.084   0.130   6.152
    1STR    C07 1174   2.133   0.077   6.034
    1STR    N08 1175   2.222   0.153   5.965
    1STR    C09 1176   2.342   0.099   5.953
    1STR    O0A 1177   2.373   0.014   5.871
    1STR    O0B 1178   2.422   0.147   6.044
    1STR    C0C 1179   2.376   0.177   6.176
    1STR    C0D 1180   2.343   0.323   6.204
    1STR    C0E 1181   2.340   0.064   6.277
    1STR    O0F 1182   2.330   6.276   6.217
    1STR    C0G 1183   2.268   6.174   6.294
    1STR    C0H 1184   2.249   6.054   6.201
    1STR    C0I 1185   2.320   6.119   0.084
    1STR    O0J 1186   2.400   6.203   0.161
    1STR    C0K 1187   2.448   6.146   0.282
    1STR    C0M 1188   2.368   6.215   0.390
    1STR    C0N 1189   2.454   5.991   0.301
    1STR    O0O 1190   2.492   5.909   0.190
    1STR    C0P 1191   2.612   5.924   0.139
    1STR    O0Q 1192   2.716   5.924   0.205
    1STR    N0R 1193   2.600   5.967   0.013
    1STR    C0S 1194   2.618   6.101   6.322
    1STR    C0T 1195   2.571   6.156   6.202
    1STR    C0U 1196   2.594   6.293   6.174
    1STR    C0V 1197   2.643   0.038   6.274
    1STR    C0W 1198   2.682   0.181   6.251
    1STR    C0X 1199   2.672   6.324   0.057
    1STR    N0Y 1200   2.699   0.062   0.165
    1STR   BCK2 1201   2.616   0.140   0.231
    1STR    O10 1202   2.508   0.182   0.189
    1STR    C13 1203   2.674   6.188   0.075
    1STR    C14 1204   2.107   6.285   6.000
    1STR    C15 1205   2.014   6.212   6.071
    1STR    C16 1206   1.984   6.258   6.199
    1STR    C17 1207   1.946   6.150   6.288
    1STR    H1B 1208   1.953   0.019   0.094
    1STR    H1C 1209   2.098   0.232   6.176
    1STR    H1D 1210   2.225   0.246   6.003
    1STR    H1E 1211   2.469   0.190   6.213
    1STR    H1F 1212   2.248   0.357   6.165
    1STR    H1G 1213   2.344   0.338   6.312
    1STR    H1H 1214   2.419   0.385   6.159
    1STR    H1I 1215   2.253   0.090   6.332
    1STR    H1J 1216   2.411   0.057   0.018
    1STR    H1K 1217   2.181   6.222   6.330
    1STR    H1M 1218   2.213   6.080   6.103
    1STR    H1N 1219   2.184   5.979   6.247
    1STR    H1O 1220   2.343   6.004   6.181
    1STR    H1P 1221   2.239   6.078   0.143
    1STR    H1Q 1222   2.376   6.034   0.054
    1STR    H1R 1223   2.548   6.187   0.294
    1STR    H1S 1224   2.409   6.192   0.488
    1STR    H1T 1225   2.264   6.183   0.387
    1STR    H1U 1226   2.371   6.323   0.375
    1STR    H1V 1227   2.355   5.956   0.331
    1STR    H1W 1228   2.522   5.969   0.383
    1STR    H1X 1229   2.525   5.923   6.302
    1STR    H1Y 1230   2.526   6.098   6.124
    1STR    H1Z 1231   2.574   6.327   6.074
    1STR    H20 1232   2.628   0.252   6.314
    1STR    H21 1233   2.782   0.187   6.286
    1STR    H22 1234   2.675   0.208   6.146
    1STR    H23 1235   2.781   0.033   0.216
    1STR    H27 1236   2.709   6.150   0.168
    1STR    H28 1237   2.155   6.236   5.918
    1STR    H29 1238   1.988   6.113   6.038
    1STR    H2A 1239   2.003   6.152   0.037
    1STR    H2B 1240   1.992   6.065   6.245
    1STR    H2C 1241   1.841   6.133   6.299
    1STR   BCK1 1242   1.934   0.008   1.557
    1STR    O03 1243   1.965   0.004   1.676
    1STR    N04 1244   1.950   0.111   1.475
    1STR    C05 1245   2.049   0.207   1.478
    1STR    C06 1246   2.140   0.209   1.584
    1STR    C07 1247   2.257   0.282   1.582
    1STR    N08 1248   2.340   0.276   1.692
    1STR    C09 1249   2.284   0.278   1.813
    1STR    O0A 1250   2.217   0.372   1.851
    1STR    O0B 1251   2.290   0.164   1.883
    1STR    C0C 1252   2.360   0.048   1.846
    1STR    C0D 1253   2.398   6.329   1.981
    1STR    C0E 1254   2.285   6.278   1.765
    1STR    O0F 1255   2.233   6.310   1.638
    1STR    C0G 1256   2.303   6.270   1.523
    1STR    C0H 1257   2.224   6.300   1.397
    1STR    C0I 1258   2.423   0.014   1.506
    1STR    O0J 1259   2.523   6.280   1.446
    1STR    C0K 1260   2.517   6.230   1.316
    1STR    C0M 1261   2.465   6.086   1.319
    1STR    C0N 1262   2.480   6.320   1.196
    1STR    O0O 1263   2.461   0.113   1.239
    1STR    C0P 1264   2.497   0.215   1.163
    1STR    O0Q 1265   2.487   0.218   1.041
    1STR    N0R 1266   2.547   0.316   1.234
    1STR    C0S 1267   2.586   0.310   1.367
    1STR    C0T 1268   2.577   0.422   1.452
    1STR    C0U 1269   2.602   0.408   1.589
    1STR    C0V 1270   2.651   0.286   1.638
    1STR    C0W 1271   2.696   0.277   1.778
    1STR    C0X 1272   2.674   0.179   1.552
    1STR    N0Y 1273   2.756   0.075   1.585
    1STR   BCK2 1274   2.718   6.295   1.620
    1STR    O10 1275   2.755   6.203   1.554
    1STR    C13 1276   2.644   0.194   1.417
    1STR    C14 1277   2.282   0.362   1.471
    1STR    C15 1278   2.193   0.367   1.364
    1STR    C16 1279   2.074   0.294   1.371
    1STR    C17 1280   1.969   0.332   1.273
    1STR    H1B 1281   1.894   0.097   1.389
    1STR    H1C 1282   2.118   0.157   1.675
    1STR    H1D 1283   2.423   0.221   1.677
    1STR    H1E 1284   2.450   0.084   1.799
    1STR    H1F 1285   2.307   6.307   2.037
    1STR    H1G 1286   2.455   6.238   1.970
    1STR    H1H 1287   2.457   0.061   2.037
    1STR    H1I 1288   2.197   6.249   1.822
    1STR    H1J 1289   2.348   6.190   1.755
    1STR    H1K 1290   2.326   6.164   1.532
    1STR    H1M 1291   2.218   0.065   1.374
    1STR    H1N 1292   2.127   6.261   1.406
    1STR    H1O 1293   2.261   6.256   1.307
    1STR    H1P 1294   2.405   0.110   1.459
    1STR    H1Q 1295   2.462   0.042   1.601
    1STR    H1R 1296   2.625   6.226   1.314
    1STR    H1S 1297   2.493   6.033   1.229
    1STR    H1T 1298   2.357   6.078   1.326
    1STR    H1U 1299   2.506   6.034   1.406
    1STR    H1V 1300   2.391   6.286   1.143
    1STR    H1W 1301   2.560   6.320   1.122
    1STR    H1X 1302   2.553   0.402   1.182
    1STR    H1Y 1303   2.537   0.515   1.415
    1STR    H1Z 1304   2.584   0.489   1.657
    1STR    H20 1305   2.615   0.249   1.845
    1STR    H21 1306   2.777   0.204   1.788
    1STR    H22 1307   2.737   0.374   1.804
    1STR    H23 1308   2.838   0.076   1.527
    1STR    H27 1309   2.666   0.113   1.351
    1STR    H28 1310   2.354   0.439   1.479
    1STR    H29 1311   2.207   0.442   1.287
    1STR    H2A 1312   2.006   0.305   1.176
    1STR    H2B 1313   1.959   0.440   1.273
    1STR    H2C 1314   1.872   0.293   1.300
    1STR   BCK1 1315   2.143   6.255   2.890
    1STR    O03 1316   2.218   6.299   2.804
    1STR    N04 1317   2.117   6.125   2.883
    1STR    C05 1318   2.083   6.023   2.970
    1STR    C06 1319   2.091   6.035   3.108
    1STR    C07 1320   2.071   5.928   3.197
    1STR    N08 1321   2.120   5.938   3.326
    1STR    C09 1322   2.248   5.967   3.345
    1STR    O0A 1323   2.299   5.987   3.455
    1STR    O0B 1324   2.311   5.970   3.228
    1STR    C0C 1325   2.391   6.077   3.186
    1STR    C0D 1326   2.421   6.059   3.037
    1STR    C0E 1327   2.356   6.221   3.215
    1STR    O0F 1328   2.267   6.238   3.322
    1STR    C0G 1329   2.280   0.024   3.385
    1STR    C0H 1330   2.166   0.057   3.475
    1STR    C0I 1331   2.388   0.001   3.480
    1STR    O0J 1332   2.480   0.105   3.458
    1STR    C0K 1333   2.479   0.218   3.540
    1STR    C0M 1334   2.381   0.319   3.480
    1STR    C0N 1335   2.470   0.186   3.692
    1STR    O0O 1336   2.515   0.055   3.731
    1STR    C0P 1337   2.616   0.002   3.665
    1STR    O0Q 1338   2.704   0.068   3.613
    1STR    N0R 1339   2.598   6.212   3.642
    1STR    C0S 1340   2.634   6.147   3.525
    1STR    C0T 1341   2.625   6.007   3.520
    1STR    C0U 1342   2.654   5.939   3.401
    1STR    C0V 1343   2.688   6.011   3.284
    1STR    C0W 1344   2.714   5.937   3.156
    1STR    C0X 1345   2.678   6.151   3.282
    1STR    N0Y 1346   2.670   6.213   3.158
    1STR   BCK2 1347   2.644   6.335   3.106
    1STR    O10 1348   2.614   6.339   2.988
    1STR    C13 1349   2.661   6.216   3.404
    1STR    C14 1350   2.039   5.804   3.145
    1STR    C15 1351   2.039   5.787   3.006
    1STR    C16 1352   2.064   5.894   2.919
    1STR    C17 1353   2.090   5.861   2.774
    1STR    H1B 1354   2.139   6.096   2.789
    1STR    H1C 1355   2.132   6.125   3.148
    1STR    H1D 1356   2.065   5.916   3.408
    1STR    H1E 1357   2.468   6.053   3.253
    1STR    H1F 1358   2.336   6.089   2.979
    1STR    H1G 1359   2.500   6.122   3.001
    1STR    H1H 1360   2.441   5.955   3.013
    1STR    H1I 1361   2.333   6.278   3.127
    1STR    H1J 1362   2.448   6.267   3.245
    1STR    H1K 1363   2.299   0.103   3.312
    1STR    H1M 1364   2.118   6.304   3.504
    1STR    H1N 1365   2.103   0.128   3.425
    1STR    H1O 1366   2.194   0.108   3.567
    1STR    H1P 1367   2.357   6.321   3.582
    1STR    H1Q 1368   2.429   6.245   3.456
    1STR    H1R 1369   2.578   0.260   3.521
    1STR    H1S 1370   2.400   0.419   3.519
    1STR    H1T 1371   2.278   0.294   3.498
    1STR    H1U 1372   2.395   0.322   3.372
    1STR    H1V 1373   2.366   0.191   3.722
    1STR    H1W 1374   2.526   0.260   3.747
    1STR    H1X 1375   2.529   6.167   3.700
    1STR    H1Y 1376   2.601   5.951   3.609
    1STR    H1Z 1377   2.654   5.831   3.400
    1STR    H20 1378   2.638   5.957   3.083
    1STR    H21 1379   2.807   5.969   3.113
    1STR    H22 1380   2.715   5.830   3.174
    1STR    H23 1381   2.684   6.149   3.082
    1STR    H27 1382   2.655   6.322   3.401
    1STR    H28 1383   2.031   5.721   3.213
    1STR    H29 1384   2.032   5.690   2.962
    1STR    H2A 1385   2.007   5.802   2.737
    1STR    H2B 1386   2.181   5.803   2.769
    1STR    H2C 1387   2.105   5.949   2.712
    1STR   BCK1 1388   2.034   0.048   4.781
    1STR    O03 1389   2.080   0.119   4.869
    1STR    N04 1390   1.976   0.093   4.669
    1STR    C05 1391   1.990   0.215   4.604
    1STR    C06 1392   2.089   0.304   4.641
    1STR    C07 1393   2.135   0.404   4.553
    1STR    N08 1394   2.255   0.460   4.584
    1STR    C09 1395   2.362   0.415   4.521
    1STR    O0A 1396   2.379   0.416   4.399
    1STR    O0B 1397   2.452   0.368   4.608
    1STR    C0C 1398   2.414   0.294   4.726
    1STR    C0D 1399   2.358   0.373   4.845
    1STR    C0E 1400   2.364   0.152   4.698
    1STR    O0F 1401   2.346   0.122   4.559
    1STR    C0G 1402   2.265   0.007   4.537
    1STR    C0H 1403   2.201   0.010   4.401
    1STR    C0I 1404   2.325   6.212   4.566
    1STR    O0J 1405   2.365   6.217   4.701
    1STR    C0K 1406   2.411   6.104   4.772
    1STR    C0M 1407   2.339   6.098   4.899
    1STR    C0N 1408   2.419   5.970   4.695
    1STR    O0O 1409   2.507   5.984   4.585
    1STR    C0P 1410   2.614   6.048   4.618
    1STR    O0Q 1411   2.674   6.024   4.722
    1STR    N0R 1412   2.624   6.157   4.545
    1STR    C0S 1413   2.650   6.286   4.586
    1STR    C0T 1414   2.646   0.050   4.491
    1STR    C0U 1415   2.678   0.182   4.528
    1STR    C0V 1416   2.704   0.211   4.663
    1STR    C0W 1417   2.730   0.352   4.710
    1STR    C0X 1418   2.693   0.111   4.760
    1STR    N0Y 1419   2.691   0.145   4.893
    1STR   BCK2 1420   2.611   0.090   4.985
    1STR    O10 1421   2.529   0.002   4.961
    1STR    C13 1422   2.677   6.318   4.720
    1STR    C14 1423   2.070   0.427   4.431
    1STR    C15 1424   1.961   0.347   4.397
    1STR    C16 1425   1.924   0.242   4.482
    1STR    C17 1426   1.819   0.153   4.435
    1STR    H1B 1427   1.927   0.022   4.617
    1STR    H1C 1428   2.141   0.284   4.731
    1STR    H1D 1429   2.272   0.462   4.682
    1STR    H1E 1430   2.503   0.269   4.775
    1STR    H1F 1431   2.254   0.402   4.841
    1STR    H1G 1432   2.369   0.313   4.935
    1STR    H1H 1433   2.417   0.464   4.856
    1STR    H1I 1434   2.280   0.130   4.760
    1STR    H1J 1435   2.438   0.085   4.738
    1STR    H1K 1436   2.186   0.012   4.605
    1STR    H1M 1437   2.276   0.021   4.324
    1STR    H1N 1438   2.132   0.094   4.396
    1STR    H1O 1439   2.144   6.259   4.385
    1STR    H1P 1440   2.252   6.133   4.555
    1STR    H1Q 1441   2.403   6.196   4.493
    1STR    H1R 1442   2.504   6.138   4.815
    1STR    H1S 1443   2.256   6.032   4.884
    1STR    H1T 1444   2.314   6.202   4.918
    1STR    H1U 1445   2.399   6.064   4.983
    1STR    H1V 1446   2.321   5.938   4.659
    1STR    H1W 1447   2.460   5.894   4.761
    1STR    H1X 1448   2.592   6.149   4.450
    1STR    H1Y 1449   2.623   0.031   4.387
    1STR    H1Z 1450   2.676   0.259   4.454
    1STR    H20 1451   2.660   0.390   4.784
    1STR    H21 1452   2.825   0.352   4.761
    1STR    H22 1453   2.728   0.420   4.626
    1STR    H23 1454   2.757   0.212   4.927
    1STR    H27 1455   2.679   6.242   4.796
    1STR    H28 1456   2.109   0.500   4.362
    1STR    H29 1457   1.909   0.361   4.304
    1STR    H2A 1458   1.795   0.087   4.516
    1STR    H2B 1459   1.856   0.097   4.351
    1STR    H2C 1460   1.731   0.210   4.407
    1STR   BCK1 1461   2.022   1.578   6.313
    1STR    O03 1462   2.140   1.561   6.308
    1STR    N04 1463   1.960   1.647   0.069
    1STR    C05 1464   2.022   1.689   0.188
    1STR    C06 1465   2.106   1.602   0.259
    1STR    C07 1466   2.184   1.648   0.368
    1STR    N08 1467   2.291   1.575   0.409
    1STR    C09 1468   2.277   1.449   0.444
    1STR    O0A 1469   2.216   1.416   0.545
    1STR    O0B 1470   2.325   1.362   0.355
    1STR    C0C 1471   2.421   1.395   0.254
    1STR    C0D 1472   2.471   1.262   0.209
    1STR    C0E 1473   2.369   1.465   0.130
    1STR    O0F 1474   2.352   1.600   0.165
    1STR    C0G 1475   2.359   1.700   0.067
    1STR    C0H 1476   2.313   1.835   0.118
    1STR    C0I 1477   2.500   1.698   0.039
    1STR    O0J 1478   2.524   1.616   6.264
    1STR    C0K 1479   2.499   1.652   6.129
    1STR    C0M 1480   2.432   1.526   6.077
    1STR    C0N 1481   2.420   1.780   6.094
    1STR    O0O 1482   2.460   1.883   6.180
    1STR    C0P 1483   2.494   2.003   6.140
    1STR    O0Q 1484   2.445   2.062   6.045
    1STR    N0R 1485   2.590   2.054   6.216
    1STR    C0S 1486   2.668   1.980   6.304
    1STR    C0T 1487   2.690   2.026   0.094
    1STR    C0U 1488   2.771   1.951   0.179
    1STR    C0V 1489   2.815   1.823   0.140
    1STR    C0W 1490   2.928   1.756   0.207
    1STR    C0X 1491   2.774   1.766   0.021
    1STR    N0Y 1492   2.780   1.629   6.330
    1STR   BCK2 1493   2.754   1.518   0.060
    1STR    O10 1494   2.733   1.410   0.006
    1STR    C13 1495   2.718   1.853   6.266
    1STR    C14 1496   2.169   1.778   0.417
    1STR    C15 1497   2.078   1.863   0.354
    1STR    C16 1498   2.009   1.819   0.240
    1STR    C17 1499   1.941   1.922   0.162
    1STR    H1B 1500   1.860   1.659   0.058
    1STR    H1C 1501   2.119   1.501   0.223
    1STR    H1D 1502   2.356   1.585   0.331
    1STR    H1E 1503   2.503   1.452   0.298
    1STR    H1F 1504   2.393   1.202   0.164
    1STR    H1G 1505   2.551   1.276   0.136
    1STR    H1H 1506   2.510   1.211   0.297
    1STR    H1I 1507   2.278   1.419   0.097
    1STR    H1J 1508   2.440   1.450   0.049
    1STR    H1K 1509   2.314   1.684   6.312
    1STR    H1M 1510   2.340   1.850   0.222
    1STR    H1N 1511   2.207   1.842   0.102
    1STR    H1O 1512   2.353   1.918   0.060
    1STR    H1P 1513   2.527   1.800   0.038
    1STR    H1Q 1514   2.555   1.663   0.126
    1STR    H1R 1515   2.598   1.657   6.082
    1STR    H1S 1516   2.429   1.526   5.968
    1STR    H1T 1517   2.332   1.517   6.118
    1STR    H1U 1518   2.488   1.439   6.110
    1STR    H1V 1519   2.313   1.768   6.107
    1STR    H1W 1520   2.439   1.808   5.990
    1STR    H1X 1521   2.619   2.146   6.190
    1STR    H1Y 1522   2.653   2.122   0.127
    1STR    H1Z 1523   2.805   1.996   0.270
    1STR    H20 1524   2.900   1.701   0.292
    1STR    H21 1525   2.964   1.682   0.139
    1STR    H22 1526   3.011   1.820   0.231
    1STR    H23 1527   2.772   1.611   6.232
    1STR    H27 1528   2.698   1.817   6.167
    1STR    H28 1529   2.231   1.812   0.499
    1STR    H29 1530   2.070   1.965   0.388
    1STR    H2A 1531   1.837   1.894   0.157
    1STR    H2B 1532   1.993   1.929   0.066
    1STR    H2C 1533   1.955   2.019   0.208
    1STR   BCK1 1534   2.168   1.702   1.676
    1STR    O03 1535   2.262   1.757   1.619
    1STR    N04 1536   2.093   1.606   1.620
    1STR    C05 1537   2.088   1.566   1.488
    1STR    C06 1538   2.137   1.645   1.383
    1STR    C07 1539   2.139   1.593   1.253
    1STR    N08 1540   2.225   1.644   1.161
    1STR    C09 1541   2.357   1.622   1.164
    1STR    O0A 1542   2.431   1.686   1.092
    1STR    O0B 1543   2.404   1.537   1.258
    1STR    C0C 1544   2.368   1.402   1.283
    1STR    C0D 1545   2.454   1.306   1.205
    1STR    C0E 1546   2.362   1.377   1.434
    1STR    O0F 1547   2.314   1.245   1.460
    1STR    C0G 1548   2.294   1.218   1.598
    1STR    C0H 1549   2.208   1.095   1.615
    1STR    C0I 1550   2.423   1.201   1.674
    1STR    O0J 1551   2.476   1.327   1.702
    1STR    C0K 1552   2.458   1.385   1.829
    1STR    C0M 1553   2.355   1.490   1.815
    1STR    C0N 1554   2.464   1.298   1.955
    1STR    O0O 1555   2.577   1.212   1.947
    1STR    C0P 1556   2.696   1.268   1.926
    1STR    O0Q 1557   2.741   1.363   1.990
    1STR    N0R 1558   2.739   1.226   1.808
    1STR    C0S 1559   2.742   1.308   1.695
    1STR    C0T 1560   2.730   1.245   1.570
    1STR    C0U 1561   2.698   1.322   1.459
    1STR    C0V 1562   2.678   1.461   1.469
    1STR    C0W 1563   2.658   1.546   1.348
    1STR    C0X 1564   2.678   1.523   1.593
    1STR    N0Y 1565   2.641   1.658   1.597
    1STR   BCK2 1566   2.600   1.744   1.690
    1STR    O10 1567   2.599   1.864   1.667
    1STR    C13 1568   2.727   1.447   1.702
    1STR    C14 1569   2.076   1.472   1.222
    1STR    C15 1570   2.028   1.392   1.324
    1STR    C16 1571   2.040   1.437   1.455
    1STR    C17 1572   2.009   1.335   1.555
    1STR    H1B 1573   2.017   1.568   1.676
    1STR    H1C 1574   2.184   1.741   1.401
    1STR    H1D 1575   2.194   1.714   1.096
    1STR    H1E 1576   2.275   1.372   1.243
    1STR    H1F 1577   2.558   1.314   1.230
    1STR    H1G 1578   2.422   1.204   1.223
    1STR    H1H 1579   2.446   1.329   1.099
    1STR    H1I 1580   2.305   1.453   1.484
    1STR    H1J 1581   2.457   1.391   1.479
    1STR    H1K 1582   2.243   1.302   1.640
    1STR    H1M 1583   2.170   1.062   1.519
    1STR    H1N 1584   2.124   1.118   1.681
    1STR    H1O 1585   2.262   1.012   1.660
    1STR    H1P 1586   2.410   1.142   1.764
    1STR    H1Q 1587   2.492   1.147   1.609
    1STR    H1R 1588   2.542   1.448   1.845
    1STR    H1S 1589   2.329   1.532   1.911
    1STR    H1T 1590   2.274   1.459   1.754
    1STR    H1U 1591   2.392   1.569   1.749
    1STR    H1V 1592   2.372   1.240   1.966
    1STR    H1W 1593   2.474   1.363   2.041
    1STR    H1X 1594   2.712   1.132   1.790
    1STR    H1Y 1595   2.738   1.139   1.560
    1STR    H1Z 1596   2.691   1.273   1.365
    1STR    H20 1597   2.746   1.604   1.342
    1STR    H21 1598   2.649   1.495   1.253
    1STR    H22 1599   2.579   1.620   1.362
    1STR    H23 1600   2.663   1.708   1.511
    1STR    H27 1601   2.741   1.496   1.795
    1STR    H28 1602   2.080   1.434   1.121
    1STR    H29 1603   1.991   1.293   1.301
    1STR    H2A 1604   2.052   1.353   1.651
    1STR    H2B 1605   2.035   1.238   1.516
    1STR    H2C 1606   1.905   1.336   1.561
    1STR   BCK1 1607   1.971   1.625   3.197
    1STR    O03 1608   2.000   1.640   3.314
    1STR    N04 1609   1.936   1.721   3.105
    1STR    C05 1610   1.967   1.858   3.103
    1STR    C06 1611   2.035   1.911   3.212
    1STR    C07 1612   2.121   2.018   3.211
    1STR    N08 1613   2.207   2.019   3.319
    1STR    C09 1614   2.337   2.030   3.307
    1STR    O0A 1615   2.388   2.107   3.227
    1STR    O0B 1616   2.410   1.944   3.383
    1STR    C0C 1617   2.369   1.828   3.460
    1STR    C0D 1618   2.329   1.868   3.601
    1STR    C0E 1619   2.270   1.723   3.405
    1STR    O0F 1620   2.235   1.756   3.274
    1STR    C0G 1621   2.289   1.691   3.165
    1STR    C0H 1622   2.263   1.780   3.042
    1STR    C0I 1623   2.432   1.679   3.194
    1STR    O0J 1624   2.473   1.559   3.254
    1STR    C0K 1625   2.477   1.445   3.169
    1STR    C0M 1626   2.363   1.355   3.204
    1STR    C0N 1627   2.499   1.462   3.017
    1STR    O0O 1628   2.418   1.547   2.938
    1STR    C0P 1629   2.470   1.626   2.839
    1STR    O0Q 1630   2.429   1.616   2.725
    1STR    N0R 1631   2.566   1.719   2.864
    1STR    C0S 1632   2.622   1.782   2.975
    1STR    C0T 1633   2.583   1.915   2.997
    1STR    C0U 1634   2.620   1.980   3.115
    1STR    C0V 1635   2.684   1.911   3.219
    1STR    C0W 1636   2.704   1.977   3.353
    1STR    C0X 1637   2.723   1.777   3.200
    1STR    N0Y 1638   2.757   1.708   3.315
    1STR   BCK2 1639   2.765   1.576   3.333
    1STR    O10 1640   2.770   1.497   3.241
    1STR    C13 1641   2.702   1.718   3.074
    1STR    C14 1642   2.133   2.090   3.091
    1STR    C15 1643   2.049   2.056   2.984
    1STR    C16 1644   1.968   1.941   2.988
    1STR    C17 1645   1.902   1.904   2.860
    1STR    H1B 1646   1.887   1.684   3.025
    1STR    H1C 1647   2.045   1.851   3.296
    1STR    H1D 1648   2.188   1.952   3.392
    1STR    H1E 1649   2.462   1.773   3.467
    1STR    H1F 1650   2.237   1.925   3.602
    1STR    H1G 1651   2.316   1.778   3.661
    1STR    H1H 1652   2.409   1.927   3.645
    1STR    H1I 1653   2.178   1.725   3.461
    1STR    H1J 1654   2.306   1.620   3.414
    1STR    H1K 1655   2.247   1.593   3.149
    1STR    H1M 1656   2.292   1.883   3.060
    1STR    H1N 1657   2.163   1.773   3.010
    1STR    H1O 1658   2.312   1.752   2.952
    1STR    H1P 1659   2.469   1.685   3.100
    1STR    H1Q 1660   2.471   1.768   3.241
    1STR    H1R 1661   2.564   1.392   3.206
    1STR    H1S 1662   2.386   1.254   3.173
    1STR    H1T 1663   2.273   1.386   3.153
    1STR    H1U 1664   2.348   1.357   3.312
    1STR    H1V 1665   2.501   1.364   2.971
    1STR    H1W 1666   2.595   1.504   3.009
    1STR    H1X 1667   2.605   1.746   2.774
    1STR    H1Y 1668   2.521   1.966   2.925
    1STR    H1Z 1669   2.592   2.083   3.129
    1STR    H20 1670   2.645   1.926   3.428
    1STR    H21 1671   2.808   1.973   3.383
    1STR    H22 1672   2.672   2.081   3.349
    1STR    H23 1673   2.746   1.763   3.398
    1STR    H27 1674   2.743   1.621   3.056
    1STR    H28 1675   2.204   2.170   3.083
    1STR    H29 1676   2.054   2.115   2.894
    1STR    H2A 1677   1.803   1.870   2.877
    1STR    H2B 1678   1.959   1.828   2.808
    1STR    H2C 1679   1.890   1.991   2.797
    1STR   BCK1 1680   1.969   1.682   4.761
    1STR    O03 1681   1.925   1.778   4.701
    1STR    N04 1682   1.984   1.698   4.891
    1STR    C05 1683   2.055   1.633   4.989
    1STR    C06 1684   2.107   1.506   4.971
    1STR    C07 1685   2.194   1.446   5.061
    1STR    N08 1686   2.275   1.347   5.009
    1STR    C09 1687   2.225   1.249   4.933
    1STR    O0A 1688   2.127   1.184   4.967
    1STR    O0B 1689   2.283   1.233   4.811
    1STR    C0C 1690   2.386   1.314   4.754
    1STR    C0D 1691   2.455   1.221   4.657
    1STR    C0E 1692   2.349   1.444   4.684
    1STR    O0F 1693   2.314   1.535   4.785
    1STR    C0G 1694   2.368   1.666   4.781
    1STR    C0H 1695   2.285   1.777   4.720
    1STR    C0I 1696   2.374   1.703   4.925
    1STR    O0J 1697   2.484   1.786   4.935
    1STR    C0K 1698   2.481   1.916   4.988
    1STR    C0M 1699   2.459   2.016   4.876
    1STR    C0N 1700   2.395   1.930   5.114
    1STR    O0O 1701   2.394   1.813   5.194
    1STR    C0P 1702   2.508   1.754   5.222
    1STR    O0Q 1703   2.615   1.812   5.229
    1STR    N0R 1704   2.490   1.623   5.216
    1STR    C0S 1705   2.560   1.537   5.133
    1STR    C0T 1706   2.527   1.400   5.133
    1STR    C0U 1707   2.580   1.313   5.036
    1STR    C0V 1708   2.661   1.365   4.933
    1STR    C0W 1709   2.728   1.275   4.833
    1STR    C0X 1710   2.677   1.504   4.923
    1STR    N0Y 1711   2.712   1.549   4.798
    1STR   BCK2 1712   2.731   1.668   4.741
    1STR    O10 1713   2.695   1.666   4.625
    1STR    C13 1714   2.642   1.586   5.030
    1STR    C14 1715   2.218   1.508   5.184
    1STR    C15 1716   2.160   1.634   5.209
    1STR    C16 1717   2.081   1.698   5.112
    1STR    C17 1718   2.027   1.837   5.138
    1STR    H1B 1719   1.914   1.763   4.927
    1STR    H1C 1720   2.089   1.454   4.880
    1STR    H1D 1721   2.363   1.384   4.978
    1STR    H1E 1722   2.453   1.344   4.830
    1STR    H1F 1723   2.382   1.179   4.588
    1STR    H1G 1724   2.531   1.273   4.599
    1STR    H1H 1725   2.502   1.139   4.714
    1STR    H1I 1726   2.269   1.425   4.613
    1STR    H1J 1727   2.432   1.482   4.625
    1STR    H1K 1728   2.467   1.664   4.736
    1STR    H1M 1729   2.197   1.801   4.780
    1STR    H1N 1730   2.251   1.742   4.627
    1STR    H1O 1731   2.338   1.869   4.703
    1STR    H1P 1732   2.283   1.746   4.965
    1STR    H1Q 1733   2.391   1.612   4.978
    1STR    H1R 1734   2.584   1.931   5.019
    1STR    H1S 1735   2.510   2.109   4.898
    1STR    H1T 1736   2.353   2.034   4.858
    1STR    H1U 1737   2.502   1.978   4.783
    1STR    H1V 1738   2.294   1.949   5.079
    1STR    H1W 1739   2.429   2.015   5.172
    1STR    H1X 1740   2.393   1.601   5.227
    1STR    H1Y 1741   2.464   1.358   5.210
    1STR    H1Z 1742   2.563   1.207   5.042
    1STR    H20 1743   2.835   1.294   4.835
    1STR    H21 1744   2.712   1.170   4.859
    1STR    H22 1745   2.695   1.293   4.732
    1STR    H23 1746   2.720   1.472   4.735
    1STR    H27 1747   2.668   1.690   5.026
    1STR    H28 1748   2.281   1.461   5.257
    1STR    H29 1749   2.178   1.685   5.303
    1STR    H2A 1750   1.949   1.867   5.069
    1STR    H2B 1751   2.105   1.911   5.129
    1STR    H2C 1752   1.987   1.841   5.239
    1STR   BCK1 1753   2.095   3.388   0.196
    1STR    O03 1754   2.152   3.489   0.159
    1STR    N04 1755   2.027   3.306   0.113
    1STR    C05 1756   2.008   3.315   6.317
    1STR    C06 1757   2.030   3.438   6.251
    1STR    C07 1758   2.077   3.435   6.120
    1STR    N08 1759   2.159   3.538   6.081
    1STR    C09 1760   2.283   3.496   6.085
    1STR    O0A 1761   2.345   3.448   5.990
    1STR    O0B 1762   2.316   3.498   6.211
    1STR    C0C 1763   2.395   3.398   6.268
    1STR    C0D 1764   2.453   3.471   0.047
    1STR    C0E 1765   2.329   3.264   6.306
    1STR    O0F 1766   2.308   3.177   6.194
    1STR    C0G 1767   2.265   3.046   6.232
    1STR    C0H 1768   2.232   2.955   6.113
    1STR    C0I 1769   2.369   2.976   6.311
    1STR    O0J 1770   2.338   2.964   0.106
    1STR    C0K 1771   2.447   2.908   0.175
    1STR    C0M 1772   2.414   2.949   0.317
    1STR    C0N 1773   2.453   2.754   0.156
    1STR    O0O 1774   2.496   2.710   0.027
    1STR    C0P 1775   2.616   2.746   6.325
    1STR    O0Q 1776   2.711   2.766   0.058
    1STR    N0R 1777   2.606   2.780   6.196
    1STR    C0S 1778   2.625   2.910   6.151
    1STR    C0T 1779   2.569   2.946   6.027
    1STR    C0U 1780   2.566   3.080   5.987
    1STR    C0V 1781   2.605   3.181   6.076
    1STR    C0W 1782   2.625   3.319   6.021
    1STR    C0X 1783   2.641   3.146   6.207
    1STR    N0Y 1784   2.639   3.239   6.309
    1STR   BCK2 1785   2.720   3.245   0.071
    1STR    O10 1786   2.832   3.202   0.062
    1STR    C13 1787   2.670   3.012   6.237
    1STR    C14 1788   2.080   3.314   6.053
    1STR    C15 1789   2.021   3.204   6.107
    1STR    C16 1790   1.988   3.199   6.240
    1STR    C17 1791   1.954   3.062   6.288
    1STR    H1B 1792   1.969   3.233   0.157
    1STR    H1C 1793   2.037   3.529   6.307
    1STR    H1D 1794   2.148   3.611   6.148
    1STR    H1E 1795   2.468   3.372   6.196
    1STR    H1F 1796   2.378   3.538   0.090
    1STR    H1G 1797   2.478   3.405   0.128
    1STR    H1H 1798   2.539   3.531   0.018
    1STR    H1I 1799   2.240   3.281   0.020
    1STR    H1J 1800   2.390   3.217   0.042
    1STR    H1K 1801   2.187   3.055   6.304
    1STR    H1M 1802   2.300   2.976   6.031
    1STR    H1N 1803   2.132   2.963   6.075
    1STR    H1O 1804   2.236   2.849   6.138
    1STR    H1P 1805   2.391   2.881   6.267
    1STR    H1Q 1806   2.454   3.038   6.305
    1STR    H1R 1807   2.541   2.956   0.148
    1STR    H1S 1808   2.478   2.898   0.389
    1STR    H1T 1809   2.310   2.925   0.339
    1STR    H1U 1810   2.427   3.057   0.328
    1STR    H1V 1811   2.354   2.714   0.174
    1STR    H1W 1812   2.521   2.711   0.230
    1STR    H1X 1813   2.534   2.729   6.149
    1STR    H1Y 1814   2.532   2.872   5.959
    1STR    H1Z 1815   2.537   3.108   5.886
    1STR    H20 1816   2.543   3.346   5.957
    1STR    H21 1817   2.637   3.394   6.099
    1STR    H22 1818   2.713   3.323   5.959
    1STR    H23 1819   2.559   3.300   6.315
    1STR    H27 1820   2.710   2.991   6.335
    1STR    H28 1821   2.140   3.299   5.965
    1STR    H29 1822   2.027   3.117   6.051
    1STR    H2A 1823   2.007   3.035   0.037
    1STR    H2B 1824   1.984   2.986   6.219
    1STR    H2C 1825   1.849   3.046   6.298
    1STR   BCK1 1826   1.991   3.122   1.579
    1STR    O03 1827   2.012   3.097   1.696
    1STR    N04 1828   1.938   3.240   1.543
    1STR    C05 1829   1.955   3.340   1.637
    1STR    C06 1830   2.086   3.379   1.659
    1STR    C07 1831   2.135   3.428   1.777
    1STR    N08 1832   2.253   3.372   1.819
    1STR    C09 1833   2.260   3.320   1.941
    1STR    O0A 1834   2.227   3.381   2.042
    1STR    O0B 1835   2.290   3.189   1.944
    1STR    C0C 1836   2.365   3.119   1.846
    1STR    C0D 1837   2.409   2.995   1.920
    1STR    C0E 1838   2.294   3.070   1.721
    1STR    O0F 1839   2.251   3.174   1.636
    1STR    C0G 1840   2.307   3.192   1.508
    1STR    C0H 1841   2.247   3.287   1.402
    1STR    C0I 1842   2.439   3.249   1.546
    1STR    O0J 1843   2.526   3.143   1.564
    1STR    C0K 1844   2.551   3.063   1.451
    1STR    C0M 1845   2.492   2.923   1.477
    1STR    C0N 1846   2.533   3.122   1.311
    1STR    O0O 1847   2.607   3.242   1.315
    1STR    C0P 1848   2.582   3.341   1.234
    1STR    O0Q 1849   2.534   3.328   1.122
    1STR    N0R 1850   2.614   3.460   1.283
    1STR    C0S 1851   2.633   3.497   1.416
    1STR    C0T 1852   2.587   3.624   1.454
    1STR    C0U 1853   2.581   3.660   1.589
    1STR    C0V 1854   2.614   3.567   1.688
    1STR    C0W 1855   2.586   3.605   1.831
    1STR    C0X 1856   2.666   3.442   1.652
    1STR    N0Y 1857   2.674   3.343   1.748
    1STR   BCK2 1858   2.724   3.220   1.740
    1STR    O10 1859   2.817   3.189   1.668
    1STR    C13 1860   2.684   3.412   1.516
    1STR    C14 1861   2.046   3.498   1.856
    1STR    C15 1862   1.912   3.488   1.817
    1STR    C16 1863   1.863   3.392   1.728
    1STR    C17 1864   1.714   3.369   1.722
    1STR    H1B 1865   1.901   3.254   1.450
    1STR    H1C 1866   2.153   3.354   1.588
    1STR    H1D 1867   2.281   3.303   1.749
    1STR    H1E 1868   2.446   3.184   1.816
    1STR    H1F 1869   2.323   2.935   1.949
    1STR    H1G 1870   2.475   2.935   1.857
    1STR    H1H 1871   2.463   3.024   2.011
    1STR    H1I 1872   2.212   3.008   1.753
    1STR    H1J 1873   2.359   3.002   1.668
    1STR    H1K 1874   2.305   3.097   1.458
    1STR    H1M 1875   2.260   3.393   1.428
    1STR    H1N 1876   2.141   3.266   1.391
    1STR    H1O 1877   2.292   3.281   1.304
    1STR    H1P 1878   2.468   3.320   1.472
    1STR    H1Q 1879   2.434   3.310   1.637
    1STR    H1R 1880   2.656   3.067   1.462
    1STR    H1S 1881   2.526   2.846   1.410
    1STR    H1T 1882   2.384   2.916   1.468
    1STR    H1U 1883   2.520   2.891   1.578
    1STR    H1V 1884   2.430   3.138   1.283
    1STR    H1W 1885   2.568   3.057   1.233
    1STR    H1X 1886   2.602   3.532   1.214
    1STR    H1Y 1887   2.550   3.693   1.380
    1STR    H1Z 1888   2.542   3.756   1.618
    1STR    H20 1889   2.610   3.527   1.903
    1STR    H21 1890   2.642   3.694   1.856
    1STR    H22 1891   2.480   3.628   1.843
    1STR    H23 1892   2.642   3.369   1.840
    1STR    H27 1893   2.722   3.314   1.492
    1STR    H28 1894   2.080   3.552   1.942
    1STR    H29 1895   1.840   3.552   1.856
    1STR    H2A 1896   1.681   3.342   1.625
    1STR    H2B 1897   1.655   3.454   1.751
    1STR    H2C 1898   1.685   3.295   1.793
    1STR   BCK1 1899   2.083   3.253   3.074
    1STR    O03 1900   2.047   3.369   3.090
    1STR    N04 1901   2.032   3.180   2.974
    1STR    C05 1902   2.039   3.044   2.947
    1STR    C06 1903   2.027   2.940   3.043
    1STR    C07 1904   2.065   2.809   3.009
    1STR    N08 1905   2.092   2.714   3.106
    1STR    C09 1906   2.214   2.661   3.120
    1STR    O0A 1907   2.242   2.584   3.211
    1STR    O0B 1908   2.302   2.705   3.031
    1STR    C0C 1909   2.390   2.810   3.067
    1STR    C0D 1910   2.459   2.854   2.938
    1STR    C0E 1911   2.323   2.934   3.125
    1STR    O0F 1912   2.241   2.906   3.240
    1STR    C0G 1913   2.298   2.916   3.370
    1STR    C0H 1914   2.268   2.799   3.461
    1STR    C0I 1915   2.430   2.978   3.372
    1STR    O0J 1916   2.402   3.116   3.344
    1STR    C0K 1917   2.459   3.222   3.415
    1STR    C0M 1918   2.425   3.349   3.338
    1STR    C0N 1919   2.436   3.225   3.566
    1STR    O0O 1920   2.488   3.104   3.615
    1STR    C0P 1921   2.581   3.092   3.707
    1STR    O0Q 1922   2.601   3.172   3.797
    1STR    N0R 1923   2.653   2.981   3.689
    1STR    C0S 1924   2.677   2.920   3.566
    1STR    C0T 1925   2.670   2.780   3.547
    1STR    C0U 1926   2.694   2.726   3.419
    1STR    C0V 1927   2.719   2.811   3.308
    1STR    C0W 1928   2.734   2.756   3.169
    1STR    C0X 1929   2.722   2.949   3.325
    1STR    N0Y 1930   2.706   3.024   3.210
    1STR   BCK2 1931   2.653   3.142   3.183
    1STR    O10 1932   2.596   3.148   3.076
    1STR    C13 1933   2.705   3.000   3.454
    1STR    C14 1934   2.092   2.777   2.875
    1STR    C15 1935   2.096   2.877   2.778
    1STR    C16 1936   2.072   3.010   2.815
    1STR    C17 1937   2.089   3.118   2.712
    1STR    H1B 1938   2.014   3.236   2.891
    1STR    H1C 1939   2.008   2.964   3.147
    1STR    H1D 1940   2.037   2.705   3.190
    1STR    H1E 1941   2.457   2.769   3.143
    1STR    H1F 1942   2.384   2.893   2.868
    1STR    H1G 1943   2.530   2.935   2.956
    1STR    H1H 1944   2.510   2.771   2.891
    1STR    H1I 1945   2.264   2.979   3.047
    1STR    H1J 1946   2.394   3.016   3.136
    1STR    H1K 1947   2.258   2.995   3.430
    1STR    H1M 1948   2.283   2.704   3.412
    1STR    H1N 1949   2.165   2.806   3.494
    1STR    H1O 1950   2.330   2.802   3.551
    1STR    H1P 1951   2.465   2.951   3.468
    1STR    H1Q 1952   2.491   2.927   3.300
    1STR    H1R 1953   2.561   3.209   3.396
    1STR    H1S 1954   2.490   3.432   3.366
    1STR    H1T 1955   2.322   3.381   3.352
    1STR    H1U 1956   2.438   3.331   3.231
    1STR    H1V 1957   2.330   3.227   3.589
    1STR    H1W 1958   2.485   3.310   3.612
    1STR    H1X 1959   2.698   2.944   3.770
    1STR    H1Y 1960   2.651   2.715   3.630
    1STR    H1Z 1961   2.694   2.619   3.405
    1STR    H20 1962   2.654   2.786   3.104
    1STR    H21 1963   2.824   2.798   3.125
    1STR    H22 1964   2.738   2.647   3.172
    1STR    H23 1965   2.709   2.967   3.127
    1STR    H27 1966   2.698   3.104   3.468
    1STR    H28 1967   2.119   2.675   2.850
    1STR    H29 1968   2.123   2.852   2.677
    1STR    H2A 1969   2.111   3.076   2.614
    1STR    H2B 1970   2.171   3.184   2.742
    1STR    H2C 1971   1.998   3.176   2.703
    1STR   BCK1 1972   1.975   3.291   4.792
    1STR    O03 1973   1.988   3.342   4.901
    1STR    N04 1974   1.903   3.347   4.696
    1STR    C05 1975   1.922   3.475   4.644
    1STR    C06 1976   2.019   3.559   4.694
    1STR    C07 1977   2.091   3.640   4.605
    1STR    N08 1978   2.215   3.679   4.649
    1STR    C09 1979   2.321   3.632   4.588
    1STR    O0A 1980   2.343   3.645   4.468
    1STR    O0B 1981   2.402   3.564   4.672
    1STR    C0C 1982   2.368   3.502   4.798
    1STR    C0D 1983   2.353   3.602   4.911
    1STR    C0E 1984   2.267   3.389   4.798
    1STR    O0F 1985   2.207   3.394   4.669
    1STR    C0G 1986   2.197   3.289   4.578
    1STR    C0H 1987   2.171   3.344   4.439
    1STR    C0I 1988   2.322   3.217   4.589
    1STR    O0J 1989   2.301   3.115   4.683
    1STR    C0K 1990   2.370   2.993   4.671
    1STR    C0M 1991   2.334   2.929   4.799
    1STR    C0N 1992   2.325   2.915   4.548
    1STR    O0O 1993   2.359   2.990   4.435
    1STR    C0P 1994   2.482   2.987   4.393
    1STR    O0Q 1995   2.534   2.884   4.354
    1STR    N0R 1996   2.549   3.103   4.395
    1STR    C0S 1997   2.578   3.204   4.489
    1STR    C0T 1998   2.577   3.338   4.446
    1STR    C0U 1999   2.605   3.441   4.537
    1STR    C0V 2000   2.639   3.414   4.672
    1STR    C0W 2001   2.674   3.527   4.770
    1STR    C0X 2002   2.643   3.282   4.716
    1STR    N0Y 2003   2.652   3.260   4.852
    1STR   BCK2 2004   2.620   3.152   4.923
    1STR    O10 2005   2.609   3.039   4.879
    1STR    C13 2006   2.622   3.181   4.622
    1STR    C14 2007   2.038   3.672   4.480
    1STR    C15 2008   1.915   3.615   4.444
    1STR    C16 2009   1.861   3.514   4.525
    1STR    C17 2010   1.734   3.452   4.486
    1STR    H1B 2011   1.849   3.281   4.641
    1STR    H1C 2012   2.060   3.541   4.791
    1STR    H1D 2013   2.223   3.671   4.749
    1STR    H1E 2014   2.451   3.441   4.826
    1STR    H1F 2015   2.256   3.650   4.911
    1STR    H1G 2016   2.362   3.550   5.007
    1STR    H1H 2017   2.430   3.678   4.904
    1STR    H1I 2018   2.199   3.410   4.879
    1STR    H1J 2019   2.311   3.294   4.826
    1STR    H1K 2020   2.118   3.218   4.592
    1STR    H1M 2021   2.245   3.419   4.412
    1STR    H1N 2022   2.073   3.389   4.437
    1STR    H1O 2023   2.175   3.265   4.366
    1STR    H1P 2024   2.341   3.194   4.487
    1STR    H1Q 2025   2.397   3.288   4.621
    1STR    H1R 2026   2.476   2.997   4.673
    1STR    H1S 2027   2.365   2.825   4.807
    1STR    H1T 2028   2.229   2.938   4.792
    1STR    H1U 2029   2.370   2.986   4.885
    1STR    H1V 2030   2.217   2.903   4.549
    1STR    H1W 2031   2.373   2.817   4.545
    1STR    H1X 2032   2.638   3.088   4.344
    1STR    H1Y 2033   2.552   3.361   4.344
    1STR    H1Z 2034   2.602   3.543   4.504
    1STR    H20 2035   2.632   3.516   4.870
    1STR    H21 2036   2.781   3.531   4.783
    1STR    H22 2037   2.641   3.622   4.728
    1STR    H23 2038   2.669   3.342   4.908
    1STR    H27 2039   2.642   3.084   4.659
    1STR    H28 2040   2.090   3.739   4.414
    1STR    H29 2041   1.866   3.642   4.351
    1STR    H2A 2042   1.720   3.369   4.551
    1STR    H2B 2043   1.733   3.423   4.383
    1STR    H2C 2044   1.653   3.516   4.511
    1STR   BCK1 2045   2.097   4.784   6.232
    1STR    O03 2046   2.208   4.767   6.188
    1STR    N04 2047   2.070   4.876   6.325
    1STR    C05 2048   2.044   4.866   0.122
    1STR    C06 2049   2.087   4.754   0.194
    1STR    C07 2050   2.116   4.762   0.331
    1STR    N08 2051   2.206   4.672   0.383
    1STR    C09 2052   2.179   4.543   0.369
    1STR    O0A 2053   2.108   4.483   0.448
    1STR    O0B 2054   2.231   4.486   0.259
    1STR    C0C 2055   2.361   4.517   0.212
    1STR    C0D 2056   2.408   4.394   0.138
    1STR    C0E 2057   2.376   4.642   0.123
    1STR    O0F 2058   2.385   4.755   0.209
    1STR    C0G 2059   2.359   4.878   0.147
    1STR    C0H 2060   2.327   4.980   0.253
    1STR    C0I 2061   2.451   4.932   0.044
    1STR    O0J 2062   2.416   4.901   6.255
    1STR    C0K 2063   2.510   4.948   6.161
    1STR    C0M 2064   2.456   4.882   6.038
    1STR    C0N 2065   2.510   5.102   6.151
    1STR    O0O 2066   2.578   5.159   6.262
    1STR    C0P 2067   2.541   5.277   6.311
    1STR    O0Q 2068   2.484   5.364   6.247
    1STR    N0R 2069   2.565   5.295   0.102
    1STR    C0S 2070   2.602   5.206   0.203
    1STR    C0T 2071   2.556   5.224   0.334
    1STR    C0U 2072   2.559   5.115   0.423
    1STR    C0V 2073   2.612   4.990   0.384
    1STR    C0W 2074   2.602   4.878   0.482
    1STR    C0X 2075   2.679   4.978   0.261
    1STR    N0Y 2076   2.746   4.868   0.209
    1STR   BCK2 2077   2.688   4.754   0.174
    1STR    O10 2078   2.698   4.709   0.060
    1STR    C13 2079   2.669   5.086   0.174
    1STR    C14 2080   2.082   4.877   0.403
    1STR    C15 2081   2.018   4.983   0.337
    1STR    C16 2082   2.006   4.979   0.196
    1STR    C17 2083   1.963   5.104   0.129
    1STR    H1B 2084   2.076   4.970   6.291
    1STR    H1C 2085   2.114   4.667   0.140
    1STR    H1D 2086   2.292   4.699   0.334
    1STR    H1E 2087   2.419   4.525   0.304
    1STR    H1F 2088   2.342   4.374   0.054
    1STR    H1G 2089   2.510   4.408   0.101
    1STR    H1H 2090   2.407   4.308   0.205
    1STR    H1I 2091   2.297   4.651   0.051
    1STR    H1J 2092   2.466   4.639   0.062
    1STR    H1K 2093   2.275   4.865   0.085
    1STR    H1M 2094   2.323   4.938   0.353
    1STR    H1N 2095   2.239   5.037   0.228
    1STR    H1O 2096   2.400   5.056   0.253
    1STR    H1P 2097   2.444   5.039   0.052
    1STR    H1Q 2098   2.551   4.900   0.056
    1STR    H1R 2099   2.609   4.908   6.183
    1STR    H1S 2100   2.523   4.901   5.956
    1STR    H1T 2101   2.356   4.918   6.013
    1STR    H1U 2102   2.448   4.775   6.053
    1STR    H1V 2103   2.407   5.137   6.147
    1STR    H1W 2104   2.561   5.135   6.060
    1STR    H1X 2105   2.528   5.384   0.131
    1STR    H1Y 2106   2.504   5.313   0.362
    1STR    H1Z 2107   2.514   5.124   0.521
    1STR    H20 2108   2.515   4.817   0.460
    1STR    H21 2109   2.692   4.819   0.470
    1STR    H22 2110   2.599   4.911   0.585
    1STR    H23 2111   2.801   4.889   0.124
    1STR    H27 2112   2.697   5.068   0.075
    1STR    H28 2113   2.107   4.885   0.507
    1STR    H29 2114   1.990   5.072   0.391
    1STR    H2A 2115   1.991   5.112   0.024
    1STR    H2B 2116   1.997   5.193   0.182
    1STR    H2C 2117   1.856   5.095   0.139
    1STR   BCK1 2118   2.066   4.943   1.620
    1STR    O03 2119   2.094   5.044   1.557
    1STR    N04 2120   2.038   4.826   1.560
    1STR    C05 2121   2.059   4.783   1.429
    1STR    C06 2122   2.129   4.856   1.334
    1STR    C07 2123   2.188   4.789   1.225
    1STR    N08 2124   2.283   4.858   1.156
    1STR    C09 2125   2.393   4.828   1.221
    1STR    O0A 2126   2.450   4.720   1.209
    1STR    O0B 2127   2.407   4.921   1.313
    1STR    C0C 2128   2.447   4.891   1.445
    1STR    C0D 2129   2.483   5.027   1.501
    1STR    C0E 2130   2.359   4.817   1.541
    1STR    O0F 2131   2.309   4.688   1.506
    1STR    C0G 2132   2.295   4.608   1.622
    1STR    C0H 2133   2.193   4.499   1.613
    1STR    C0I 2134   2.421   4.535   1.638
    1STR    O0J 2135   2.485   4.574   1.756
    1STR    C0K 2136   2.473   4.504   1.878
    1STR    C0M 2137   2.381   4.586   1.967
    1STR    C0N 2138   2.447   4.352   1.875
    1STR    O0O 2139   2.512   4.282   1.769
    1STR    C0P 2140   2.637   4.308   1.740
    1STR    O0Q 2141   2.725   4.335   1.822
    1STR    N0R 2142   2.647   4.318   1.608
    1STR    C0S 2143   2.680   4.436   1.542
    1STR    C0T 2144   2.640   4.447   1.409
    1STR    C0U 2145   2.653   4.569   1.342
    1STR    C0V 2146   2.700   4.684   1.410
    1STR    C0W 2147   2.721   4.815   1.336
    1STR    C0X 2148   2.718   4.680   1.549
    1STR    N0Y 2149   2.726   4.804   1.613
    1STR   BCK2 2150   2.690   4.852   1.733
    1STR    O10 2151   2.681   4.971   1.755
    1STR    C13 2152   2.715   4.555   1.610
    1STR    C14 2153   2.172   4.651   1.203
    1STR    C15 2154   2.090   4.580   1.289
    1STR    C16 2155   2.031   4.650   1.395
    1STR    C17 2156   1.932   4.577   1.468
    1STR    H1B 2157   2.012   4.750   1.620
    1STR    H1C 2158   2.153   4.959   1.353
    1STR    H1D 2159   2.263   4.956   1.163
    1STR    H1E 2160   2.523   4.821   1.449
    1STR    H1F 2161   2.395   5.091   1.499
    1STR    H1G 2162   2.512   5.019   1.605
    1STR    H1H 2163   2.563   5.072   1.443
    1STR    H1I 2164   2.279   4.885   1.547
    1STR    H1J 2165   2.411   4.816   1.638
    1STR    H1K 2166   2.277   4.669   1.710
    1STR    H1M 2167   2.194   4.454   1.514
    1STR    H1N 2168   2.102   4.549   1.634
    1STR    H1O 2169   2.204   4.422   1.689
    1STR    H1P 2170   2.414   4.429   1.620
    1STR    H1Q 2171   2.479   4.574   1.555
    1STR    H1R 2172   2.572   4.515   1.921
    1STR    H1S 2173   2.411   4.576   2.071
    1STR    H1T 2174   2.279   4.552   1.958
    1STR    H1U 2175   2.387   4.692   1.941
    1STR    H1V 2176   2.341   4.334   1.866
    1STR    H1W 2177   2.481   4.310   1.970
    1STR    H1X 2178   2.574   4.265   1.565
    1STR    H1Y 2179   2.597   4.365   1.354
    1STR    H1Z 2180   2.624   4.572   1.239
    1STR    H20 2181   2.708   4.903   1.396
    1STR    H21 2182   2.815   4.829   1.285
    1STR    H22 2183   2.644   4.823   1.264
    1STR    H23 2184   2.747   4.878   1.547
    1STR    H27 2185   2.724   4.553   1.715
    1STR    H28 2186   2.224   4.600   1.122
    1STR    H29 2187   2.068   4.476   1.271
    1STR    H2A 2188   1.908   4.623   1.560
    1STR    H2B 2189   1.984   4.486   1.485
    1STR    H2C 2190   1.844   4.562   1.407
    1STR   BCK1 2191   1.905   4.782   3.173
    1STR    O03 2192   1.934   4.789   3.293
    1STR    N04 2193   1.909   4.882   3.086
    1STR    C05 2194   2.001   4.986   3.082
    1STR    C06 2195   2.105   4.989   3.176
    1STR    C07 2196   2.215   5.073   3.163
    1STR    N08 2197   2.306   5.071   3.267
    1STR    C09 2198   2.272   5.058   3.394
    1STR    O0A 2199   2.178   5.115   3.446
    1STR    O0B 2200   2.347   4.974   3.464
    1STR    C0C 2201   2.387   4.843   3.425
    1STR    C0D 2202   2.446   4.792   3.552
    1STR    C0E 2203   2.293   4.729   3.372
    1STR    O0F 2204   2.211   4.750   3.259
    1STR    C0G 2205   2.271   4.714   3.138
    1STR    C0H 2206   2.186   4.716   3.015
    1STR    C0I 2207   2.378   4.811   3.106
    1STR    O0J 2208   2.501   4.748   3.093
    1STR    C0K 2209   2.526   4.694   2.968
    1STR    C0M 2210   2.466   4.552   2.977
    1STR    C0N 2211   2.490   4.785   2.844
    1STR    O0O 2212   2.456   4.924   2.855
    1STR    C0P 2213   2.549   5.016   2.883
    1STR    O0Q 2214   2.664   5.018   2.839
    1STR    N0R 2215   2.508   5.091   2.983
    1STR    C0S 2216   2.572   5.091   3.105
    1STR    C0T 2217   2.555   5.194   3.198
    1STR    C0U 2218   2.604   5.177   3.328
    1STR    C0V 2219   2.662   5.055   3.368
    1STR    C0W 2220   2.733   5.055   3.496
    1STR    C0X 2221   2.673   4.947   3.278
    1STR    N0Y 2222   2.701   4.813   3.298
    1STR   BCK2 2223   2.725   4.724   3.393
    1STR    O10 2224   2.699   4.610   3.362
    1STR    C13 2225   2.635   4.972   3.146
    1STR    C14 2226   2.227   5.154   3.049
    1STR    C15 2227   2.121   5.158   2.957
    1STR    C16 2228   2.006   5.079   2.978
    1STR    C17 2229   1.880   5.119   2.909
    1STR    H1B 2230   1.851   4.858   3.005
    1STR    H1C 2231   2.096   4.935   3.266
    1STR    H1D 2232   2.405   5.064   3.248
    1STR    H1E 2233   2.470   4.854   3.359
    1STR    H1F 2234   2.371   4.778   3.629
    1STR    H1G 2235   2.494   4.696   3.534
    1STR    H1H 2236   2.517   4.864   3.589
    1STR    H1I 2237   2.225   4.694   3.450
    1STR    H1J 2238   2.357   4.642   3.354
    1STR    H1K 2239   2.303   4.612   3.151
    1STR    H1M 2240   2.138   4.811   3.000
    1STR    H1N 2241   2.115   4.637   3.021
    1STR    H1O 2242   2.240   4.702   2.922
    1STR    H1P 2243   2.345   4.883   3.033
    1STR    H1Q 2244   2.395   4.879   3.184
    1STR    H1R 2245   2.634   4.684   2.975
    1STR    H1S 2246   2.520   4.471   2.931
    1STR    H1T 2247   2.365   4.543   2.939
    1STR    H1U 2248   2.469   4.518   3.081
    1STR    H1V 2249   2.417   4.737   2.780
    1STR    H1W 2250   2.579   4.794   2.789
    1STR    H1X 2251   2.408   5.101   2.987
    1STR    H1Y 2252   2.503   5.285   3.172
    1STR    H1Z 2253   2.596   5.257   3.400
    1STR    H20 2254   2.677   5.008   3.576
    1STR    H21 2255   2.822   4.999   3.468
    1STR    H22 2256   2.767   5.154   3.527
    1STR    H23 2257   2.673   4.758   3.218
    1STR    H27 2258   2.658   4.897   3.074
    1STR    H28 2259   2.305   5.229   3.044
    1STR    H29 2260   2.118   5.235   2.882
    1STR    H2A 2261   1.797   5.061   2.947
    1STR    H2B 2262   1.888   5.121   2.803
    1STR    H2C 2263   1.859   5.221   2.935
    1STR   BCK1 2264   2.170   4.463   4.576
    1STR    O03 2265   2.228   4.448   4.469
    1STR    N04 2266   2.183   4.373   4.672
    1STR    C05 2267   2.149   4.370   4.808
    1STR    C06 2268   2.141   4.480   4.893
    1STR    C07 2269   2.137   4.468   5.033
    1STR    N08 2270   2.169   4.576   5.114
    1STR    C09 2271   2.256   4.672   5.082
    1STR    O0A 2272   2.284   4.757   5.164
    1STR    O0B 2273   2.313   4.647   4.964
    1STR    C0C 2274   2.381   4.727   4.870
    1STR    C0D 2275   2.421   4.624   4.766
    1STR    C0E 2276   2.313   4.837   4.792
    1STR    O0F 2277   2.204   4.895   4.859
    1STR    C0G 2278   2.232   5.030   4.886
    1STR    C0H 2279   2.103   5.105   4.875
    1STR    C0I 2280   2.293   5.034   5.025
    1STR    O0J 2281   2.417   4.972   5.014
    1STR    C0K 2282   2.525   5.048   5.052
    1STR    C0M 2283   2.529   5.174   4.970
    1STR    C0N 2284   2.533   5.062   5.205
    1STR    O0O 2285   2.515   4.932   5.260
    1STR    C0P 2286   2.604   4.842   5.226
    1STR    O0Q 2287   2.721   4.869   5.209
    1STR    N0R 2288   2.548   4.730   5.186
    1STR    C0S 2289   2.598   4.646   5.088
    1STR    C0T 2290   2.552   4.514   5.080
    1STR    C0U 2291   2.593   4.432   4.974
    1STR    C0V 2292   2.669   4.486   4.868
    1STR    C0W 2293   2.711   4.401   4.752
    1STR    C0X 2294   2.695   4.624   4.865
    1STR    N0Y 2295   2.719   4.681   4.739
    1STR   BCK2 2296   2.729   4.806   4.690
    1STR    O10 2297   2.731   4.823   4.569
    1STR    C13 2298   2.676   4.697   4.982
    1STR    C14 2299   2.110   4.343   5.089
    1STR    C15 2300   2.091   4.233   5.003
    1STR    C16 2301   2.113   4.249   4.865
    1STR    C17 2302   2.078   4.138   4.774
    1STR    H1B 2303   2.223   4.288   4.638
    1STR    H1C 2304   2.146   4.579   4.852
    1STR    H1D 2305   2.138   4.579   5.209
    1STR    H1E 2306   2.464   4.773   4.920
    1STR    H1F 2307   2.343   4.593   4.703
    1STR    H1G 2308   2.493   4.661   4.696
    1STR    H1H 2309   2.444   4.529   4.809
    1STR    H1I 2310   2.277   4.806   4.695
    1STR    H1J 2311   2.395   4.904   4.766
    1STR    H1K 2312   2.299   5.076   4.814
    1STR    H1M 2313   2.054   5.098   4.969
    1STR    H1N 2314   2.040   5.061   4.798
    1STR    H1O 2315   2.120   5.210   4.856
    1STR    H1P 2316   2.291   5.132   5.071
    1STR    H1Q 2317   2.242   4.967   5.091
    1STR    H1R 2318   2.610   4.989   5.021
    1STR    H1S 2319   2.626   5.213   4.992
    1STR    H1T 2320   2.454   5.248   4.996
    1STR    H1U 2321   2.521   5.151   4.863
    1STR    H1V 2322   2.457   5.128   5.244
    1STR    H1W 2323   2.631   5.101   5.232
    1STR    H1X 2324   2.447   4.734   5.197
    1STR    H1Y 2325   2.491   4.475   5.160
    1STR    H1Z 2326   2.567   4.327   4.974
    1STR    H20 2327   2.815   4.423   4.728
    1STR    H21 2328   2.704   4.295   4.779
    1STR    H22 2329   2.648   4.422   4.666
    1STR    H23 2330   2.731   4.612   4.669
    1STR    H27 2331   2.707   4.799   4.984
    1STR    H28 2332   2.103   4.329   5.196
    1STR    H29 2333   2.060   4.138   5.044
    1STR    H2A 2334   1.978   4.115   4.808
    1STR    H2B 2335   2.151   4.059   4.791
    1STR    H2C 2336   2.071   4.161   4.668
    1STR   BCK1 2337   3.751   6.278   0.211
    1STR    O03 2338   3.833   0.029   0.208
    1STR    N04 2339   3.649   6.261   0.126
    1STR    C05 2340   3.608   0.003   0.025
    1STR    C06 2341   3.613   0.142   0.042
    1STR    C07 2342   3.586   0.227   6.275
    1STR    N08 2343   3.627   0.357   6.286
    1STR    C09 2344   3.735   0.389   6.216
    1STR    O0A 2345   3.749   0.382   6.094
    1STR    O0B 2346   3.832   0.410   6.302
    1STR    C0C 2347   3.952   0.337   6.285
    1STR    C0D 2348   4.049   0.383   0.051
    1STR    C0E 2349   3.929   0.188   6.303
    1STR    O0F 2350   3.907   0.123   6.178
    1STR    C0G 2351   3.875   6.327   6.199
    1STR    C0H 2352   3.822   6.259   6.076
    1STR    C0I 2353   3.982   6.245   6.255
    1STR    O0J 2354   3.938   6.158   0.015
    1STR    C0K 2355   4.029   6.054   0.033
    1STR    C0M 2356   4.015   6.013   0.177
    1STR    C0N 2357   3.983   5.948   6.274
    1STR    O0O 2358   4.026   5.978   6.142
    1STR    C0P 2359   4.142   5.931   6.110
    1STR    O0Q 2360   4.156   5.813   6.082
    1STR    N0R 2361   4.243   6.016   6.124
    1STR    C0S 2362   4.244   6.153   6.118
    1STR    C0T 2363   4.195   6.215   6.003
    1STR    C0U 2364   4.183   0.015   6.000
    1STR    C0V 2365   4.219   0.091   6.112
    1STR    C0W 2366   4.203   0.238   6.097
    1STR    C0X 2367   4.269   0.029   6.228
    1STR    N0Y 2368   4.294   0.101   0.003
    1STR   BCK2 2369   4.251   0.070   0.125
    1STR    O10 2370   4.187   6.310   0.151
    1STR    C13 2371   4.284   6.229   6.230
    1STR    C14 2372   3.542   0.172   6.156
    1STR    C15 2373   3.530   0.034   6.140
    1STR    C16 2374   3.564   6.287   6.244
    1STR    C17 2375   3.546   6.139   6.224
    1STR    H1B 2376   3.591   6.180   0.136
    1STR    H1C 2377   3.650   0.181   0.135
    1STR    H1D 2378   3.641   0.384   0.041
    1STR    H1E 2379   3.988   0.356   6.185
    1STR    H1F 2380   4.002   0.376   0.150
    1STR    H1G 2381   4.138   0.320   0.054
    1STR    H1H 2382   4.079   0.485   0.031
    1STR    H1I 2383   3.847   0.175   0.031
    1STR    H1J 2384   4.011   0.145   0.019
    1STR    H1K 2385   3.808   6.319   6.278
    1STR    H1M 2386   3.739   6.317   6.041
    1STR    H1N 2387   3.787   6.158   6.097
    1STR    H1O 2388   3.898   6.254   5.998
    1STR    H1P 2389   4.021   6.195   6.170
    1STR    H1Q 2390   4.057   6.305   6.297
    1STR    H1R 2391   4.133   6.083   0.021
    1STR    H1S 2392   4.085   5.934   0.204
    1STR    H1T 2393   3.913   5.978   0.193
    1STR    H1U 2394   4.034   6.100   0.240
    1STR    H1V 2395   3.874   5.945   6.273
    1STR    H1W 2396   4.020   5.850   6.305
    1STR    H1X 2397   4.335   5.976   6.150
    1STR    H1Y 2398   4.163   6.158   5.918
    1STR    H1Z 2399   4.146   0.063   5.911
    1STR    H20 2400   4.105   0.256   6.055
    1STR    H21 2401   4.215   0.291   6.192
    1STR    H22 2402   4.273   0.275   6.024
    1STR    H23 2403   4.353   0.184   6.332
    1STR    H27 2404   4.322   6.180   6.318
    1STR    H28 2405   3.522   0.237   6.075
    1STR    H29 2406   3.498   6.335   6.047
    1STR    H2A 2407   3.626   6.084   6.275
    1STR    H2B 2408   3.552   6.114   6.119
    1STR    H2C 2409   3.449   6.107   6.260
    1STR   BCK1 2410   3.583   0.099   1.555
    1STR    O03 2411   3.646   0.097   1.451
    1STR    N04 2412   3.534   0.213   1.604
    1STR    C05 2413   3.556   0.263   1.732
    1STR    C06 2414   3.668   0.227   1.804
    1STR    C07 2415   3.720   0.291   1.915
    1STR    N08 2416   3.831   0.229   1.972
    1STR    C09 2417   3.834   0.161   2.087
    1STR    O0A 2418   3.793   0.207   2.193
    1STR    O0B 2419   3.877   0.031   2.080
    1STR    C0C 2420   3.954   6.309   1.977
    1STR    C0D 2421   3.968   6.161   2.011
    1STR    C0E 2422   3.893   6.314   1.839
    1STR    O0F 2423   3.941   0.096   1.787
    1STR    C0G 2424   3.909   0.118   1.653
    1STR    C0H 2425   3.909   0.270   1.633
    1STR    C0I 2426   4.004   0.039   1.575
    1STR    O0J 2427   3.939   6.312   1.471
    1STR    C0K 2428   4.012   6.321   1.353
    1STR    C0M 2429   3.997   6.187   1.287
    1STR    C0N 2430   3.968   0.108   1.275
    1STR    O0O 2431   4.033   0.212   1.342
    1STR    C0P 2432   4.042   0.339   1.303
    1STR    O0Q 2433   3.984   0.388   1.208
    1STR    N0R 2434   4.122   0.411   1.384
    1STR    C0S 2435   4.200   0.360   1.488
    1STR    C0T 2436   4.219   0.427   1.611
    1STR    C0U 2437   4.299   0.366   1.710
    1STR    C0V 2438   4.342   0.234   1.691
    1STR    C0W 2439   4.454   0.178   1.768
    1STR    C0X 2440   4.305   0.162   1.579
    1STR    N0Y 2441   4.306   0.024   1.566
    1STR   BCK2 2442   4.288   6.259   1.646
    1STR    O10 2443   4.266   6.152   1.594
    1STR    C13 2444   4.259   0.234   1.471
    1STR    C14 2445   3.652   0.406   1.959
    1STR    C15 2446   3.525   0.433   1.903
    1STR    C16 2447   3.474   0.357   1.794
    1STR    C17 2448   3.329   0.361   1.755
    1STR    H1B 2449   3.515   0.280   1.530
    1STR    H1C 2450   3.712   0.137   1.775
    1STR    H1D 2451   3.885   0.180   1.899
    1STR    H1E 2452   4.052   0.016   1.975
    1STR    H1F 2453   3.870   6.113   2.007
    1STR    H1G 2454   4.033   6.111   1.940
    1STR    H1H 2455   4.009   6.150   2.111
    1STR    H1I 2456   3.784   6.306   1.847
    1STR    H1J 2457   3.925   6.230   1.777
    1STR    H1K 2458   3.815   0.076   1.623
    1STR    H1M 2459   3.952   0.322   1.718
    1STR    H1N 2460   3.808   0.308   1.616
    1STR    H1O 2461   3.962   0.300   1.546
    1STR    H1P 2462   4.074   0.111   1.545
    1STR    H1Q 2463   4.055   6.306   1.635
    1STR    H1R 2464   4.117   6.327   1.377
    1STR    H1S 2465   4.035   6.187   1.186
    1STR    H1T 2466   3.894   6.155   1.289
    1STR    H1U 2467   4.050   6.112   1.346
    1STR    H1V 2468   3.861   0.125   1.281
    1STR    H1W 2469   4.001   0.107   1.171
    1STR    H1X 2470   4.113   0.510   1.371
    1STR    H1Y 2471   4.177   0.524   1.629
    1STR    H1Z 2472   4.329   0.420   1.798
    1STR    H20 2473   4.410   0.135   1.854
    1STR    H21 2474   4.502   0.102   1.708
    1STR    H22 2475   4.528   0.253   1.790
    1STR    H23 2476   4.307   6.328   1.472
    1STR    H27 2477   4.251   0.187   1.376
    1STR    H28 2478   3.688   0.458   2.046
    1STR    H29 2479   3.463   0.508   1.950
    1STR    H2A 2480   3.302   0.277   1.691
    1STR    H2B 2481   3.296   0.455   1.715
    1STR    H2C 2482   3.276   0.343   1.846
    1STR   BCK1 2483   3.715   0.126   3.256
    1STR    O03 2484   3.784   0.190   3.176
    1STR    N04 2485   3.649   0.015   3.225
    1STR    C05 2486   3.650   6.279   3.110
    1STR    C06 2487   3.690   6.332   2.988
    1STR    C07 2488   3.725   6.247   2.883
    1STR    N08 2489   3.792   6.303   2.778
    1STR    C09 2490   3.880   6.242   2.702
    1STR    O0A 2491   3.872   6.129   2.656
    1STR    O0B 2492   3.985   6.314   2.708
    1STR    C0C 2493   4.077   6.282   2.810
    1STR    C0D 2494   4.185   0.039   2.783
    1STR    C0E 2495   4.032   6.297   2.957
    1STR    O0F 2496   4.025   6.164   3.006
    1STR    C0G 2497   3.959   6.154   3.129
    1STR    C0H 2498   3.944   6.005   3.160
    1STR    C0I 2499   4.020   6.230   3.241
    1STR    O0J 2500   3.950   6.336   3.299
    1STR    C0K 2501   4.025   0.053   3.405
    1STR    C0M 2502   4.043   0.203   3.387
    1STR    C0N 2503   3.975   0.005   3.542
    1STR    O0O 2504   3.982   6.204   3.544
    1STR    C0P 2505   4.016   6.139   3.655
    1STR    O0Q 2506   3.984   6.174   3.767
    1STR    N0R 2507   4.094   6.033   3.631
    1STR    C0S 2508   4.161   6.011   3.512
    1STR    C0T 2509   4.161   5.888   3.445
    1STR    C0U 2510   4.213   5.882   3.314
    1STR    C0V 2511   4.261   5.999   3.252
    1STR    C0W 2512   4.287   6.001   3.106
    1STR    C0X 2513   4.274   6.119   3.323
    1STR    N0Y 2514   4.329   6.229   3.258
    1STR   BCK2 2515   4.369   0.009   3.299
    1STR    O10 2516   4.416   0.090   3.222
    1STR    C13 2517   4.224   6.121   3.454
    1STR    C14 2518   3.703   6.109   2.891
    1STR    C15 2519   3.665   6.057   3.012
    1STR    C16 2520   3.645   6.140   3.123
    1STR    C17 2521   3.672   6.086   3.259
    1STR    H1B 2522   3.582   6.321   3.295
    1STR    H1C 2523   3.703   0.099   2.979
    1STR    H1D 2524   3.807   0.063   2.786
    1STR    H1E 2525   4.110   6.179   2.795
    1STR    H1F 2526   4.150   0.141   2.779
    1STR    H1G 2527   4.242   0.030   2.872
    1STR    H1H 2528   4.244   0.011   2.696
    1STR    H1I 2529   3.941   0.014   2.970
    1STR    H1J 2530   4.101   0.015   3.017
    1STR    H1K 2531   3.868   6.204   3.118
    1STR    H1M 2532   3.877   5.956   3.092
    1STR    H1N 2533   3.912   5.986   3.263
    1STR    H1O 2534   4.037   5.954   3.146
    1STR    H1P 2535   4.033   6.159   3.319
    1STR    H1Q 2536   4.111   6.272   3.204
    1STR    H1R 2537   4.126   0.019   3.398
    1STR    H1S 2538   4.089   0.248   3.475
    1STR    H1T 2539   3.951   0.256   3.365
    1STR    H1U 2540   4.108   0.222   3.301
    1STR    H1V 2541   3.872   0.032   3.560
    1STR    H1W 2542   4.035   0.048   3.621
    1STR    H1X 2543   4.109   5.971   3.709
    1STR    H1Y 2544   4.114   5.802   3.489
    1STR    H1Z 2545   4.206   5.791   3.257
    1STR    H20 2546   4.240   6.088   3.058
    1STR    H21 2547   4.393   6.010   3.095
    1STR    H22 2548   4.245   5.913   3.058
    1STR    H23 2549   4.343   6.217   3.159
    1STR    H27 2550   4.222   6.210   3.512
    1STR    H28 2551   3.727   6.041   2.811
    1STR    H29 2552   3.677   5.950   3.017
    1STR    H2A 2553   3.754   6.138   3.306
    1STR    H2B 2554   3.697   5.980   3.255
    1STR    H2C 2555   3.584   6.103   3.316
    1STR   BCK1 2556   3.532   0.061   4.756
    1STR    O03 2557   3.603   0.114   4.840
    1STR    N04 2558   3.477   0.131   4.656
    1STR    C05 2559   3.508   0.259   4.608
    1STR    C06 2560   3.627   0.321   4.641
    1STR    C07 2561   3.679   0.426   4.567
    1STR    N08 2562   3.811   0.446   4.586
    1STR    C09 2563   3.863   0.546   4.651
    1STR    O0A 2564   3.815   0.658   4.650
    1STR    O0B 2565   3.971   0.510   4.715
    1STR    C0C 2566   3.974   0.400   4.807
    1STR    C0D 2567   3.912   0.429   4.941
    1STR    C0E 2568   3.940   0.255   4.764
    1STR    O0F 2569   3.942   0.233   4.623
    1STR    C0G 2570   3.857   0.129   4.573
    1STR    C0H 2571   3.841   0.154   4.424
    1STR    C0I 2572   3.900   6.330   4.604
    1STR    O0J 2573   3.923   6.331   4.744
    1STR    C0K 2574   3.950   6.214   4.817
    1STR    C0M 2575   3.857   6.213   4.931
    1STR    C0N 2576   3.957   6.083   4.734
    1STR    O0O 2577   4.058   6.097   4.636
    1STR    C0P 2578   4.168   6.146   4.687
    1STR    O0Q 2579   4.221   6.098   4.785
    1STR    N0R 2580   4.190   6.266   4.635
    1STR    C0S 2581   4.233   0.038   4.700
    1STR    C0T 2582   4.218   0.160   4.633
    1STR    C0U 2583   4.245   0.279   4.701
    1STR    C0V 2584   4.282   0.277   4.837
    1STR    C0W 2585   4.304   0.406   4.912
    1STR    C0X 2586   4.283   0.157   4.906
    1STR    N0Y 2587   4.293   0.158   5.043
    1STR   BCK2 2588   4.214   0.088   5.124
    1STR    O10 2589   4.130   0.006   5.086
    1STR    C13 2590   4.265   0.038   4.836
    1STR    C14 2591   3.603   0.492   4.471
    1STR    C15 2592   3.474   0.445   4.448
    1STR    C16 2593   3.430   0.329   4.514
    1STR    C17 2594   3.291   0.294   4.495
    1STR    H1B 2595   3.398   0.083   4.611
    1STR    H1C 2596   3.684   0.285   4.723
    1STR    H1D 2597   3.866   0.360   4.597
    1STR    H1E 2598   4.077   0.402   4.829
    1STR    H1F 2599   3.805   0.415   4.934
    1STR    H1G 2600   3.947   0.358   5.015
    1STR    H1H 2601   3.936   0.530   4.974
    1STR    H1I 2602   3.848   0.222   4.811
    1STR    H1J 2603   4.013   0.191   4.814
    1STR    H1K 2604   3.760   0.127   4.620
    1STR    H1M 2605   3.935   0.188   4.381
    1STR    H1N 2606   3.765   0.230   4.406
    1STR    H1O 2607   3.811   0.065   4.372
    1STR    H1P 2608   3.823   6.258   4.579
    1STR    H1Q 2609   3.984   6.310   4.540
    1STR    H1R 2610   4.043   6.234   4.871
    1STR    H1S 2611   3.859   6.120   4.987
    1STR    H1T 2612   3.757   6.232   4.897
    1STR    H1U 2613   3.884   6.296   4.996
    1STR    H1V 2614   3.862   6.060   4.687
    1STR    H1W 2615   3.985   6.001   4.800
    1STR    H1X 2616   4.143   6.284   4.550
    1STR    H1Y 2617   4.181   0.167   4.533
    1STR    H1Z 2618   4.231   0.372   4.649
    1STR    H20 2619   4.234   0.411   4.996
    1STR    H21 2620   4.406   0.408   4.950
    1STR    H22 2621   4.287   0.491   4.847
    1STR    H23 2622   4.360   0.219   5.086
    1STR    H27 2623   4.267   6.288   4.892
    1STR    H28 2624   3.643   0.578   4.420
    1STR    H29 2625   3.407   0.499   4.383
    1STR    H2A 2626   3.275   0.205   4.552
    1STR    H2B 2627   3.267   0.287   4.391
    1STR    H2C 2628   3.227   0.363   4.543
    1STR   BCK1 2629   3.643   1.601   6.246
    1STR    O03 2630   3.676   1.648   6.138
    1STR    N04 2631   3.612   1.679   0.011
    1STR    C05 2632   3.648   1.653   0.144
    1STR    C06 2633   3.700   1.529   0.178
    1STR    C07 2634   3.774   1.507   0.292
    1STR    N08 2635   3.873   1.414   0.277
    1STR    C09 2636   3.854   1.289   0.237
    1STR    O0A 2637   3.807   1.204   0.310
    1STR    O0B 2638   3.894   1.262   0.110
    1STR    C0C 2639   3.990   1.336   0.036
    1STR    C0D 2640   4.058   1.225   6.298
    1STR    C0E 2641   3.948   1.444   6.275
    1STR    O0F 2642   3.892   1.559   6.335
    1STR    C0G 2643   3.939   1.682   6.281
    1STR    C0H 2644   3.860   1.806   6.325
    1STR    C0I 2645   4.069   1.695   0.009
    1STR    O0J 2646   4.177   1.750   6.277
    1STR    C0K 2647   4.163   1.881   6.225
    1STR    C0M 2648   4.084   1.881   6.096
    1STR    C0N 2649   4.140   1.992   6.331
    1STR    O0O 2650   4.153   1.933   0.118
    1STR    C0P 2651   4.162   2.000   0.230
    1STR    O0Q 2652   4.178   2.122   0.235
    1STR    N0R 2653   4.159   1.923   0.338
    1STR    C0S 2654   4.149   1.785   0.347
    1STR    C0T 2655   4.078   1.726   0.451
    1STR    C0U 2656   4.075   1.586   0.463
    1STR    C0V 2657   4.135   1.501   0.367
    1STR    C0W 2658   4.120   1.354   0.393
    1STR    C0X 2659   4.210   1.559   0.262
    1STR    N0Y 2660   4.272   1.498   0.154
    1STR   BCK2 2661   4.312   1.380   0.107
    1STR    O10 2662   4.330   1.371   6.328
    1STR    C13 2663   4.213   1.699   0.257
    1STR    C14 2664   3.777   1.604   0.393
    1STR    C15 2665   3.713   1.726   0.370
    1STR    C16 2666   3.654   1.752   0.244
    1STR    C17 2667   3.597   1.887   0.222
    1STR    H1B 2668   3.616   1.777   6.331
    1STR    H1C 2669   3.698   1.451   0.108
    1STR    H1D 2670   3.957   1.459   0.243
    1STR    H1E 2671   4.060   1.381   0.105
    1STR    H1F 2672   3.987   1.175   6.233
    1STR    H1G 2673   4.137   1.267   6.237
    1STR    H1H 2674   4.102   1.153   0.026
    1STR    H1I 2675   3.891   1.412   6.189
    1STR    H1J 2676   4.041   1.473   6.231
    1STR    H1K 2677   3.947   1.674   6.173
    1STR    H1M 2678   3.839   1.802   0.092
    1STR    H1N 2679   3.773   1.829   6.266
    1STR    H1O 2680   3.914   1.896   6.317
    1STR    H1P 2681   4.045   1.740   0.104
    1STR    H1Q 2682   4.103   1.599   0.038
    1STR    H1R 2683   4.259   1.902   6.185
    1STR    H1S 2684   4.120   1.960   6.030
    1STR    H1T 2685   3.977   1.892   6.109
    1STR    H1U 2686   4.102   1.785   6.044
    1STR    H1V 2687   4.044   2.042   6.325
    1STR    H1W 2688   4.210   2.073   6.319
    1STR    H1X 2689   4.157   1.976   0.423
    1STR    H1Y 2690   4.030   1.787   0.526
    1STR    H1Z 2691   4.028   1.541   0.548
    1STR    H20 2692   4.107   1.298   0.301
    1STR    H21 2693   4.202   1.315   0.452
    1STR    H22 2694   4.032   1.334   0.453
    1STR    H23 2695   4.295   1.565   0.081
    1STR    H27 2696   4.267   1.744   0.177
    1STR    H28 2697   3.830   1.587   0.484
    1STR    H29 2698   3.711   1.801   0.447
    1STR    H2A 2699   3.533   1.883   0.136
    1STR    H2B 2700   3.675   1.960   0.205
    1STR    H2C 2701   3.538   1.914   0.310
    1STR   BCK1 2702   3.714   1.759   1.725
    1STR    O03 2703   3.773   1.845   1.662
    1STR    N04 2704   3.650   1.657   1.666
    1STR    C05 2705   3.630   1.632   1.531
    1STR    C06 2706   3.638   1.731   1.431
    1STR    C07 2707   3.629   1.692   1.296
    1STR    N08 2708   3.671   1.775   1.196
    1STR    C09 2709   3.800   1.755   1.176
    1STR    O0A 2710   3.850   1.669   1.104
    1STR    O0B 2711   3.859   1.829   1.264
    1STR    C0C 2712   3.969   1.784   1.338
    1STR    C0D 2713   3.989   1.910   1.424
    1STR    C0E 2714   3.953   1.660   1.428
    1STR    O0F 2715   3.953   1.539   1.352
    1STR    C0G 2716   3.888   1.431   1.416
    1STR    C0H 2717   3.840   1.333   1.312
    1STR    C0I 2718   3.949   1.353   1.528
    1STR    O0J 2719   4.023   1.436   1.614
    1STR    C0K 2720   4.040   1.391   1.746
    1STR    C0M 2721   3.941   1.474   1.819
    1STR    C0N 2722   4.030   1.239   1.778
    1STR    O0O 2723   4.095   1.158   1.682
    1STR    C0P 2724   4.222   1.184   1.662
    1STR    O0Q 2725   4.307   1.189   1.749
    1STR    N0R 2726   4.234   1.229   1.537
    1STR    C0S 2727   4.262   1.360   1.504
    1STR    C0T 2728   4.218   1.412   1.382
    1STR    C0U 2729   4.230   1.549   1.355
    1STR    C0V 2730   4.274   1.637   1.454
    1STR    C0W 2731   4.284   1.781   1.423
    1STR    C0X 2732   4.307   1.588   1.580
    1STR    N0Y 2733   4.328   1.664   1.692
    1STR   BCK2 2734   4.230   1.732   1.750
    1STR    O10 2735   4.135   1.777   1.689
    1STR    C13 2736   4.309   1.450   1.599
    1STR    C14 2737   3.603   1.560   1.263
    1STR    C15 2738   3.570   1.468   1.360
    1STR    C16 2739   3.590   1.502   1.493
    1STR    C17 2740   3.600   1.388   1.584
    1STR    H1B 2741   3.599   1.595   1.728
    1STR    H1C 2742   3.664   1.832   1.456
    1STR    H1D 2743   3.656   1.870   1.225
    1STR    H1E 2744   4.045   1.763   1.264
    1STR    H1F 2745   3.896   1.938   1.474
    1STR    H1G 2746   4.060   1.895   1.503
    1STR    H1H 2747   4.022   1.993   1.362
    1STR    H1I 2748   3.869   1.673   1.494
    1STR    H1J 2749   4.033   1.653   1.500
    1STR    H1K 2750   3.811   1.476   1.470
    1STR    H1M 2751   3.785   1.383   1.233
    1STR    H1N 2752   3.774   1.262   1.360
    1STR    H1O 2753   3.923   1.279   1.268
    1STR    H1P 2754   3.871   1.301   1.582
    1STR    H1Q 2755   4.010   1.277   1.483
    1STR    H1R 2756   4.135   1.428   1.779
    1STR    H1S 2757   3.936   1.447   1.924
    1STR    H1T 2758   3.847   1.464   1.766
    1STR    H1U 2759   3.969   1.578   1.809
    1STR    H1V 2760   3.925   1.208   1.783
    1STR    H1W 2761   4.074   1.221   1.876
    1STR    H1X 2762   4.164   1.189   1.477
    1STR    H1Y 2763   4.172   1.351   1.306
    1STR    H1Z 2764   4.194   1.584   1.260
    1STR    H20 2765   4.203   1.823   1.371
    1STR    H21 2766   4.311   1.844   1.507
    1STR    H22 2767   4.358   1.783   1.347
    1STR    H23 2768   4.401   1.630   1.752
    1STR    H27 2769   4.330   1.413   1.695
    1STR    H28 2770   3.617   1.530   1.161
    1STR    H29 2771   3.546   1.367   1.332
    1STR    H2A 2772   3.665   1.406   1.668
    1STR    H2B 2773   3.642   1.303   1.533
    1STR    H2C 2774   3.499   1.364   1.612
    1STR   BCK1 2775   3.531   1.508   3.160
    1STR    O03 2776   3.578   1.504   3.272
    1STR    N04 2777   3.495   1.618   3.093
    1STR    C05 2778   3.554   1.743   3.098
    1STR    C06 2779   3.650   1.769   3.193
    1STR    C07 2780   3.761   1.851   3.166
    1STR    N08 2781   3.862   1.845   3.257
    1STR    C09 2782   3.830   1.867   3.384
    1STR    O0A 2783   3.783   1.973   3.422
    1STR    O0B 2784   3.821   1.755   3.459
    1STR    C0C 2785   3.901   1.639   3.446
    1STR    C0D 2786   3.906   1.585   3.588
    1STR    C0E 2787   3.862   1.527   3.350
    1STR    O0F 2788   3.823   1.584   3.229
    1STR    C0G 2789   3.891   1.553   3.113
    1STR    C0H 2790   3.829   1.621   2.993
    1STR    C0I 2791   4.030   1.607   3.131
    1STR    O0J 2792   4.124   1.506   3.147
    1STR    C0K 2793   4.143   1.422   3.037
    1STR    C0M 2794   4.072   1.291   3.067
    1STR    C0N 2795   4.116   1.481   2.897
    1STR    O0O 2796   4.190   1.599   2.883
    1STR    C0P 2797   4.147   1.702   2.811
    1STR    O0Q 2798   4.072   1.695   2.715
    1STR    N0R 2799   4.187   1.820   2.858
    1STR    C0S 2800   4.220   1.854   2.989
    1STR    C0T 2801   4.179   1.981   3.033
    1STR    C0U 2802   4.195   2.016   3.167
    1STR    C0V 2803   4.247   1.924   3.259
    1STR    C0W 2804   4.278   1.974   3.395
    1STR    C0X 2805   4.277   1.792   3.220
    1STR    N0Y 2806   4.285   1.680   3.302
    1STR   BCK2 2807   4.233   1.655   3.422
    1STR    O10 2808   4.193   1.735   3.504
    1STR    C13 2809   4.273   1.764   3.083
    1STR    C14 2810   3.769   1.919   3.043
    1STR    C15 2811   3.658   1.913   2.957
    1STR    C16 2812   3.549   1.831   2.988
    1STR    C17 2813   3.421   1.852   2.916
    1STR    H1B 2814   3.450   1.590   3.005
    1STR    H1C 2815   3.646   1.716   3.286
    1STR    H1D 2816   3.894   1.750   3.249
    1STR    H1E 2817   3.993   1.681   3.414
    1STR    H1F 2818   3.805   1.566   3.623
    1STR    H1G 2819   3.961   1.491   3.592
    1STR    H1H 2820   3.954   1.658   3.653
    1STR    H1I 2821   3.778   1.471   3.389
    1STR    H1J 2822   3.942   1.455   3.335
    1STR    H1K 2823   3.876   1.448   3.102
    1STR    H1M 2824   3.865   1.721   2.975
    1STR    H1N 2825   3.723   1.613   2.996
    1STR    H1O 2826   3.852   1.581   2.898
    1STR    H1P 2827   4.051   1.676   3.051
    1STR    H1Q 2828   4.040   1.673   3.215
    1STR    H1R 2829   4.251   1.411   3.046
    1STR    H1S 2830   4.103   1.212   3.000
    1STR    H1T 2831   3.965   1.287   3.054
    1STR    H1U 2832   4.094   1.263   3.170
    1STR    H1V 2833   4.014   1.497   2.880
    1STR    H1W 2834   4.129   1.414   2.815
    1STR    H1X 2835   4.161   1.892   2.794
    1STR    H1Y 2836   4.134   2.051   2.966
    1STR    H1Z 2837   4.167   2.114   3.202
    1STR    H20 2838   4.190   1.979   3.457
    1STR    H21 2839   4.346   1.900   3.434
    1STR    H22 2840   4.330   2.069   3.391
    1STR    H23 2841   4.305   1.592   3.256
    1STR    H27 2842   4.296   1.663   3.058
    1STR    H28 2843   3.853   1.983   3.024
    1STR    H29 2844   3.652   1.980   2.873
    1STR    H2A 2845   3.346   1.785   2.957
    1STR    H2B 2846   3.432   1.845   2.809
    1STR    H2C 2847   3.388   1.953   2.935
    1STR   BCK1 2848   3.640   1.626   4.700
    1STR    O03 2849   3.634   1.737   4.651
    1STR    N04 2850   3.608   1.517   4.629
    1STR    C05 2851   3.620   1.379   4.646
    1STR    C06 2852   3.626   1.308   4.767
    1STR    C07 2853   3.661   1.172   4.766
    1STR    N08 2854   3.719   1.115   4.877
    1STR    C09 2855   3.847   1.074   4.875
    1STR    O0A 2856   3.903   1.025   4.972
    1STR    O0B 2857   3.909   1.111   4.761
    1STR    C0C 2858   3.969   1.239   4.749
    1STR    C0D 2859   3.992   1.277   4.603
    1STR    C0E 2860   3.920   1.357   4.830
    1STR    O0F 2861   3.901   1.309   4.962
    1STR    C0G 2862   3.833   1.390   5.052
    1STR    C0H 2863   3.793   1.305   5.170
    1STR    C0I 2864   3.928   1.494   5.095
    1STR    O0J 2865   3.884   1.625   5.077
    1STR    C0K 2866   3.988   1.718   5.073
    1STR    C0M 2867   3.957   1.829   4.972
    1STR    C0N 2868   4.010   1.763   5.218
    1STR    O0O 2869   4.061   1.657   5.299
    1STR    C0P 2870   4.184   1.618   5.276
    1STR    O0Q 2871   4.274   1.696   5.247
    1STR    N0R 2872   4.190   1.486   5.262
    1STR    C0S 2873   4.214   1.419   5.142
    1STR    C0T 2874   4.191   1.280   5.131
    1STR    C0U 2875   4.212   1.215   5.008
    1STR    C0V 2876   4.249   1.288   4.893
    1STR    C0W 2877   4.287   1.219   4.764
    1STR    C0X 2878   4.245   1.428   4.899
    1STR    N0Y 2879   4.221   1.496   4.782
    1STR   BCK2 2880   4.158   1.610   4.756
    1STR    O10 2881   4.098   1.608   4.650
    1STR    C13 2882   4.246   1.488   5.024
    1STR    C14 2883   3.673   1.105   4.644
    1STR    C15 2884   3.654   1.168   4.524
    1STR    C16 2885   3.635   1.305   4.528
    1STR    C17 2886   3.645   1.374   4.400
    1STR    H1B 2887   3.575   1.544   4.538
    1STR    H1C 2888   3.627   1.359   4.860
    1STR    H1D 2889   3.679   1.119   4.970
    1STR    H1E 2890   4.056   1.210   4.800
    1STR    H1F 2891   3.897   1.295   4.553
    1STR    H1G 2892   4.048   1.370   4.594
    1STR    H1H 2893   4.045   1.198   4.552
    1STR    H1I 2894   3.837   1.400   4.779
    1STR    H1J 2895   3.988   1.440   4.828
    1STR    H1K 2896   3.747   1.429   5.004
    1STR    H1M 2897   3.714   1.236   5.141
    1STR    H1N 2898   3.757   1.368   5.252
    1STR    H1O 2899   3.880   1.249   5.204
    1STR    H1P 2900   3.956   1.477   5.198
    1STR    H1Q 2901   4.012   1.478   5.031
    1STR    H1R 2902   4.071   1.668   5.028
    1STR    H1S 2903   4.031   1.909   4.975
    1STR    H1T 2904   3.859   1.873   4.987
    1STR    H1U 2905   3.960   1.789   4.870
    1STR    H1V 2906   3.914   1.792   5.259
    1STR    H1W 2907   4.076   1.850   5.221
    1STR    H1X 2908   4.135   1.434   5.328
    1STR    H1Y 2909   4.166   1.222   5.218
    1STR    H1Z 2910   4.206   1.107   5.003
    1STR    H20 2911   4.387   1.242   4.732
    1STR    H21 2912   4.275   1.111   4.775
    1STR    H22 2913   4.227   1.253   4.680
    1STR    H23 2914   4.225   1.436   4.701
    1STR    H27 2915   4.261   1.591   5.026
    1STR    H28 2916   3.718   1.009   4.635
    1STR    H29 2917   3.671   1.114   4.432
    1STR    H2A 2918   3.672   1.307   4.319
    1STR    H2B 2919   3.718   1.455   4.407
    1STR    H2C 2920   3.542   1.407   4.392
    1STR   BCK1 2921   3.648   3.208   0.126
    1STR    O03 2922   3.658   3.269   0.231
    1STR    N04 2923   3.576   3.245   0.021
    1STR    C05 2924   3.529   3.369   6.327
    1STR    C06 2925   3.579   3.485   0.047
    1STR    C07 2926   3.576   3.602   6.312
    1STR    N08 2927   3.685   3.683   6.322
    1STR    C09 2928   3.756   3.696   6.210
    1STR    O0A 2929   3.717   3.758   6.111
    1STR    O0B 2930   3.869   3.628   6.209
    1STR    C0C 2931   3.912   3.537   6.308
    1STR    C0D 2932   3.940   3.592   0.109
    1STR    C0E 2933   3.861   3.396   6.316
    1STR    O0F 2934   3.790   3.345   6.203
    1STR    C0G 2935   3.813   3.205   6.198
    1STR    C0H 2936   3.717   3.112   6.130
    1STR    C0I 2937   3.943   3.193   6.136
    1STR    O0J 2938   4.018   3.115   6.227
    1STR    C0K 2939   4.027   2.974   6.233
    1STR    C0M 2940   3.940   2.923   0.005
    1STR    C0N 2941   4.009   2.902   6.099
    1STR    O0O 2942   4.036   2.991   5.995
    1STR    C0P 2943   4.147   2.990   5.931
    1STR    O0Q 2944   4.181   2.895   5.862
    1STR    N0R 2945   4.223   3.100   5.945
    1STR    C0S 2946   4.218   3.209   6.032
    1STR    C0T 2947   4.189   3.335   5.978
    1STR    C0U 2948   4.189   3.449   6.061
    1STR    C0V 2949   4.220   3.437   6.198
    1STR    C0W 2950   4.227   3.559   6.288
    1STR    C0X 2951   4.244   3.312   6.253
    1STR    N0Y 2952   4.277   3.306   0.047
    1STR   BCK2 2953   4.202   3.261   0.147
    1STR    O10 2954   4.098   3.198   0.133
    1STR    C13 2955   4.249   3.199   6.169
    1STR    C14 2956   3.487   3.616   6.205
    1STR    C15 2957   3.420   3.504   6.160
    1STR    C16 2958   3.451   3.381   6.212
    1STR    C17 2959   3.415   3.269   6.124
    1STR    H1B 2960   3.572   3.178   6.287
    1STR    H1C 2961   3.642   3.478   0.134
    1STR    H1D 2962   3.740   3.664   0.064
    1STR    H1E 2963   4.002   3.516   6.257
    1STR    H1F 2964   3.849   3.604   0.168
    1STR    H1G 2965   4.000   3.521   0.165
    1STR    H1H 2966   3.993   3.687   0.103
    1STR    H1I 2967   3.807   3.381   0.068
    1STR    H1J 2968   3.949   3.337   0.000
    1STR    H1K 2969   3.824   3.168   6.299
    1STR    H1M 2970   3.634   3.169   6.099
    1STR    H1N 2971   3.687   3.034   6.196
    1STR    H1O 2972   3.757   3.063   6.041
    1STR    H1P 2973   3.936   3.175   6.029
    1STR    H1Q 2974   3.991   3.289   6.134
    1STR    H1R 2975   4.127   2.961   6.271
    1STR    H1S 2976   3.979   2.830   0.046
    1STR    H1T 2977   3.839   2.907   6.310
    1STR    H1U 2978   3.940   2.996   0.086
    1STR    H1V 2979   3.905   2.872   6.087
    1STR    H1W 2980   4.068   2.811   6.096
    1STR    H1X 2981   4.311   3.086   5.896
    1STR    H1Y 2982   4.163   3.343   5.874
    1STR    H1Z 2983   4.164   3.545   6.019
    1STR    H20 2984   4.178   3.539   0.042
    1STR    H21 2985   4.328   3.578   6.320
    1STR    H22 2986   4.185   3.648   6.241
    1STR    H23 2987   4.365   3.351   0.071
    1STR    H27 2988   4.273   3.105   6.216
    1STR    H28 2989   3.476   3.709   6.151
    1STR    H29 2990   3.356   3.509   6.075
    1STR    H2A 2991   3.479   3.267   6.041
    1STR    H2B 2992   3.316   3.285   6.090
    1STR    H2C 2993   3.423   3.173   6.163
    1STR   BCK1 2994   3.698   3.167   1.526
    1STR    O03 2995   3.736   3.209   1.420
    1STR    N04 2996   3.631   3.256   1.599
    1STR    C05 2997   3.636   3.278   1.734
    1STR    C06 2998   3.682   3.177   1.817
    1STR    C07 2999   3.719   3.200   1.950
    1STR    N08 3000   3.792   3.105   2.018
    1STR    C09 3001   3.807   2.978   1.981
    1STR    O0A 3002   3.722   2.907   1.927
    1STR    O0B 3003   3.933   2.946   1.993
    1STR    C0C 3004   4.014   2.944   1.877
    1STR    C0D 3005   4.013   2.806   1.814
    1STR    C0E 3006   3.980   3.047   1.770
    1STR    O0F 3007   3.994   3.175   1.829
    1STR    C0G 3008   3.954   3.280   1.744
    1STR    C0H 3009   3.953   3.413   1.815
    1STR    C0I 3010   4.037   3.286   1.624
    1STR    O0J 3011   3.988   3.203   1.521
    1STR    C0K 3012   4.043   3.229   1.394
    1STR    C0M 3013   4.034   3.096   1.324
    1STR    C0N 3014   3.984   3.355   1.326
    1STR    O0O 3015   3.989   3.467   1.411
    1STR    C0P 3016   4.023   3.588   1.373
    1STR    O0Q 3017   3.980   3.645   1.274
    1STR    N0R 3018   4.113   3.643   1.456
    1STR    C0S 3019   4.194   3.568   1.539
    1STR    C0T 3020   4.220   3.601   1.673
    1STR    C0U 3021   4.308   3.520   1.747
    1STR    C0V 3022   4.360   3.400   1.692
    1STR    C0W 3023   4.480   3.329   1.744
    1STR    C0X 3024   4.319   3.359   1.566
    1STR    N0Y 3025   4.338   3.230   1.518
    1STR   BCK2 3026   4.309   3.110   1.569
    1STR    O10 3027   4.294   3.013   1.497
    1STR    C13 3028   4.251   3.450   1.486
    1STR    C14 3029   3.701   3.329   2.002
    1STR    C15 3030   3.642   3.430   1.924
    1STR    C16 3031   3.613   3.406   1.788
    1STR    C17 3032   3.556   3.514   1.702
    1STR    H1B 3033   3.600   3.337   1.546
    1STR    H1C 3034   3.700   3.083   1.773
    1STR    H1D 3035   3.874   3.142   2.063
    1STR    H1E 3036   4.114   2.968   1.913
    1STR    H1F 3037   3.914   2.777   1.781
    1STR    H1G 3038   4.077   2.806   1.726
    1STR    H1H 3039   4.051   2.733   1.886
    1STR    H1I 3040   3.883   3.030   1.725
    1STR    H1J 3041   4.044   3.034   1.683
    1STR    H1K 3042   3.862   3.262   1.695
    1STR    H1M 3043   3.913   3.404   1.915
    1STR    H1N 3044   3.891   3.483   1.758
    1STR    H1O 3045   4.053   3.453   1.825
    1STR    H1P 3046   4.040   3.389   1.602
    1STR    H1Q 3047   4.131   3.258   1.660
    1STR    H1R 3048   4.147   3.243   1.398
    1STR    H1S 3049   4.079   3.101   1.225
    1STR    H1T 3050   3.931   3.061   1.321
    1STR    H1U 3051   4.089   3.020   1.378
    1STR    H1V 3052   3.881   3.339   1.314
    1STR    H1W 3053   4.031   3.376   1.230
    1STR    H1X 3054   4.121   3.743   1.452
    1STR    H1Y 3055   4.178   3.690   1.719
    1STR    H1Z 3056   4.337   3.556   1.843
    1STR    H20 3057   4.458   3.255   1.818
    1STR    H21 3058   4.534   3.281   1.664
    1STR    H22 3059   4.551   3.399   1.784
    1STR    H23 3060   4.351   3.226   1.419
    1STR    H27 3061   4.235   3.427   1.382
    1STR    H28 3062   3.729   3.349   2.104
    1STR    H29 3063   3.624   3.527   1.967
    1STR    H2A 3064   3.615   3.528   1.612
    1STR    H2B 3065   3.554   3.608   1.757
    1STR    H2C 3066   3.454   3.486   1.676
    1STR   BCK1 3067   3.758   3.300   3.268
    1STR    O03 3068   3.852   3.359   3.217
    1STR    N04 3069   3.675   3.219   3.201
    1STR    C05 3070   3.662   3.205   3.063
    1STR    C06 3071   3.708   3.304   2.977
    1STR    C07 3072   3.726   3.273   2.841
    1STR    N08 3073   3.819   3.341   2.771
    1STR    C09 3074   3.950   3.334   2.795
    1STR    O0A 3075   4.023   3.411   2.736
    1STR    O0B 3076   3.997   3.246   2.889
    1STR    C0C 3077   3.963   3.108   2.907
    1STR    C0D 3078   4.022   3.013   2.805
    1STR    C0E 3079   3.951   3.066   3.053
    1STR    O0F 3080   3.875   2.945   3.062
    1STR    C0G 3081   3.859   2.898   3.195
    1STR    C0H 3082   3.771   2.772   3.200
    1STR    C0I 3083   3.995   2.859   3.243
    1STR    O0J 3084   4.047   2.967   3.315
    1STR    C0K 3085   4.052   2.966   3.456
    1STR    C0M 3086   3.974   3.084   3.501
    1STR    C0N 3087   4.035   2.832   3.531
    1STR    O0O 3088   4.123   2.732   3.478
    1STR    C0P 3089   4.251   2.763   3.463
    1STR    O0Q 3090   4.317   2.820   3.549
    1STR    N0R 3091   4.284   2.748   3.335
    1STR    C0S 3092   4.307   2.854   3.247
    1STR    C0T 3093   4.292   2.831   3.111
    1STR    C0U 3094   4.278   2.940   3.025
    1STR    C0V 3095   4.279   3.073   3.072
    1STR    C0W 3096   4.256   3.188   2.981
    1STR    C0X 3097   4.294   3.099   3.207
    1STR    N0Y 3098   4.279   3.231   3.249
    1STR   BCK2 3099   4.263   3.293   3.365
    1STR    O10 3100   4.233   3.412   3.366
    1STR    C13 3101   4.310   2.988   3.290
    1STR    C14 3102   3.684   3.151   2.788
    1STR    C15 3103   3.627   3.056   2.871
    1STR    C16 3104   3.616   3.084   3.007
    1STR    C17 3105   3.564   2.972   3.086
    1STR    H1B 3106   3.600   3.172   3.254
    1STR    H1C 3107   3.745   3.398   3.014
    1STR    H1D 3108   3.789   3.410   2.704
    1STR    H1E 3109   3.865   3.086   2.888
    1STR    H1F 3110   4.120   2.984   2.829
    1STR    H1G 3111   3.963   2.921   2.798
    1STR    H1H 3112   4.027   3.061   2.707
    1STR    H1I 3113   3.904   3.145   3.110
    1STR    H1J 3114   4.047   3.060   3.099
    1STR    H1K 3115   3.819   2.978   3.258
    1STR    H1M 3116   3.769   2.724   3.102
    1STR    H1N 3117   3.670   2.793   3.233
    1STR    H1O 3118   3.804   2.700   3.273
    1STR    H1P 3119   3.998   2.764   3.294
    1STR    H1Q 3120   4.053   2.841   3.154
    1STR    H1R 3121   4.147   3.000   3.488
    1STR    H1S 3122   3.993   3.114   3.603
    1STR    H1T 3123   3.871   3.061   3.491
    1STR    H1U 3124   3.997   3.168   3.435
    1STR    H1V 3125   3.932   2.799   3.523
    1STR    H1W 3126   4.059   2.849   3.636
    1STR    H1X 3127   4.234   2.671   3.294
    1STR    H1Y 3128   4.283   2.731   3.072
    1STR    H1Z 3129   4.271   2.920   2.921
    1STR    H20 3130   4.182   3.257   3.019
    1STR    H21 3131   4.348   3.243   2.975
    1STR    H22 3132   4.226   3.154   2.883
    1STR    H23 3133   4.264   3.294   3.171
    1STR    H27 3134   4.309   3.008   3.391
    1STR    H28 3135   3.708   3.127   2.686
    1STR    H29 3136   3.602   2.958   2.834
    1STR    H2A 3137   3.611   2.979   3.182
    1STR    H2B 3138   3.590   2.876   3.041
    1STR    H2C 3139   3.457   2.981   3.091
    1STR   BCK1 3140   3.521   3.210   4.777
    1STR    O03 3141   3.590   3.205   4.876
    1STR    N04 3142   3.474   3.322   4.721
    1STR    C05 3143   3.526   3.449   4.724
    1STR    C06 3144   3.624   3.477   4.816
    1STR    C07 3145   3.721   3.569   4.788
    1STR    N08 3146   3.821   3.558   4.875
    1STR    C09 3147   3.930   3.620   4.897
    1STR    O0A 3148   3.958   3.732   4.854
    1STR    O0B 3149   4.012   3.537   4.958
    1STR    C0C 3150   3.996   3.397   4.994
    1STR    C0D 3151   4.001   3.396   5.146
    1STR    C0E 3152   3.905   3.286   4.929
    1STR    O0F 3153   3.817   3.306   4.817
    1STR    C0G 3154   3.853   3.297   4.680
    1STR    C0H 3155   3.772   3.352   4.567
    1STR    C0I 3156   3.984   3.359   4.674
    1STR    O0J 3157   4.070   3.268   4.736
    1STR    C0K 3158   4.076   3.138   4.690
    1STR    C0M 3159   3.972   3.034   4.746
    1STR    C0N 3160   4.113   3.135   4.543
    1STR    O0O 3161   4.082   3.240   4.452
    1STR    C0P 3162   4.178   3.317   4.395
    1STR    O0Q 3163   4.192   3.326   4.274
    1STR    N0R 3164   4.259   3.390   4.471
    1STR    C0S 3165   4.254   3.434   4.602
    1STR    C0T 3166   4.202   3.563   4.624
    1STR    C0U 3167   4.212   3.621   4.751
    1STR    C0V 3168   4.264   3.549   4.859
    1STR    C0W 3169   4.275   3.612   4.997
    1STR    C0X 3170   4.303   3.416   4.842
    1STR    N0Y 3171   4.330   3.345   4.957
    1STR   BCK2 3172   4.328   3.216   4.982
    1STR    O10 3173   4.339   3.129   4.899
    1STR    C13 3174   4.304   3.361   4.713
    1STR    C14 3175   3.717   3.651   4.675
    1STR    C15 3176   3.602   3.645   4.596
    1STR    C16 3177   3.506   3.546   4.623
    1STR    C17 3178   3.378   3.557   4.553
    1STR    H1B 3179   3.408   3.296   4.648
    1STR    H1C 3180   3.633   3.420   4.907
    1STR    H1D 3181   3.820   3.464   4.914
    1STR    H1E 3182   4.090   3.357   4.964
    1STR    H1F 3183   3.930   3.469   5.185
    1STR    H1G 3184   3.980   3.297   5.185
    1STR    H1H 3185   4.099   3.426   5.182
    1STR    H1I 3186   3.838   3.243   4.997
    1STR    H1J 3187   3.967   3.197   4.923
    1STR    H1K 3188   3.845   3.197   4.644
    1STR    H1M 3189   3.778   3.459   4.557
    1STR    H1N 3190   3.670   3.319   4.576
    1STR    H1O 3191   3.815   3.315   4.475
    1STR    H1P 3192   4.006   3.397   4.576
    1STR    H1Q 3193   3.989   3.451   4.729
    1STR    H1R 3194   4.166   3.108   4.741
    1STR    H1S 3195   3.943   2.965   4.667
    1STR    H1T 3196   3.879   3.068   4.789
    1STR    H1U 3197   4.018   2.980   4.829
    1STR    H1V 3198   4.077   3.044   4.497
    1STR    H1W 3199   4.219   3.128   4.549
    1STR    H1X 3200   4.329   3.436   4.415
    1STR    H1Y 3201   4.160   3.619   4.542
    1STR    H1Z 3202   4.177   3.722   4.766
    1STR    H20 3203   4.214   3.559   5.069
    1STR    H21 3204   4.377   3.606   5.036
    1STR    H22 3205   4.241   3.715   4.994
    1STR    H23 3206   4.341   3.403   5.039
    1STR    H27 3207   4.334   3.259   4.706
    1STR    H28 3208   3.799   3.717   4.655
    1STR    H29 3209   3.586   3.715   4.515
    1STR    H2A 3210   3.335   3.460   4.562
    1STR    H2B 3211   3.387   3.586   4.450
    1STR    H2C 3212   3.315   3.625   4.609
    1STR   BCK1 3213   3.649   4.689   0.043
    1STR    O03 3214   3.661   4.810   0.051
    1STR    N04 3215   3.601   4.625   0.149
    1STR    C05 3216   3.678   4.583   0.255
    1STR    C06 3217   3.812   4.610   0.245
    1STR    C07 3218   3.899   4.505   0.260
    1STR    N08 3219   3.990   4.503   0.159
    1STR    C09 3220   3.942   4.465   0.041
    1STR    O0A 3221   3.922   4.347   0.012
    1STR    O0B 3222   3.897   4.567   6.306
    1STR    C0C 3223   3.983   4.666   6.256
    1STR    C0D 3224   4.000   4.629   6.111
    1STR    C0E 3225   3.934   4.810   6.262
    1STR    O0F 3226   3.915   4.849   0.055
    1STR    C0G 3227   3.893   4.987   0.081
    1STR    C0H 3228   3.805   5.061   6.320
    1STR    C0I 3229   3.835   5.001   0.223
    1STR    O0J 3230   3.850   4.887   0.309
    1STR    C0K 3231   3.973   4.857   0.374
    1STR    C0M 3232   4.080   4.920   0.296
    1STR    C0N 3233   3.995   4.881   0.525
    1STR    O0O 3234   4.074   4.779   0.584
    1STR    C0P 3235   4.192   4.752   0.531
    1STR    O0Q 3236   4.284   4.831   0.522
    1STR    N0R 3237   4.181   4.636   0.469
    1STR    C0S 3238   4.231   4.590   0.350
    1STR    C0T 3239   4.228   4.451   0.330
    1STR    C0U 3240   4.251   4.400   0.202
    1STR    C0V 3241   4.273   4.488   0.096
    1STR    C0W 3242   4.269   4.434   6.297
    1STR    C0X 3243   4.288   4.626   0.116
    1STR    N0Y 3244   4.301   4.702   0.001
    1STR   BCK2 3245   4.283   4.827   6.299
    1STR    O10 3246   4.260   4.840   6.180
    1STR    C13 3247   4.269   4.675   0.245
    1STR    C14 3248   3.864   4.394   0.338
    1STR    C15 3249   3.732   4.388   0.389
    1STR    C16 3250   3.637   4.480   0.341
    1STR    C17 3251   3.493   4.461   0.371
    1STR    H1B 3252   3.510   4.581   0.134
    1STR    H1C 3253   3.842   4.691   0.183
    1STR    H1D 3254   4.041   4.591   0.157
    1STR    H1E 3255   4.074   4.662   6.311
    1STR    H1F 3256   3.906   4.635   6.058
    1STR    H1G 3257   4.071   4.698   6.064
    1STR    H1H 3258   4.036   4.527   6.103
    1STR    H1I 3259   3.841   4.820   6.207
    1STR    H1J 3260   4.008   4.876   6.217
    1STR    H1K 3261   3.990   5.034   0.074
    1STR    H1M 3262   3.702   5.029   6.326
    1STR    H1N 3263   3.840   5.048   6.218
    1STR    H1O 3264   3.807   5.167   0.003
    1STR    H1P 3265   3.867   5.093   0.271
    1STR    H1Q 3266   3.728   5.012   0.211
    1STR    H1R 3267   3.982   4.750   0.360
    1STR    H1S 3268   4.171   4.917   0.347
    1STR    H1T 3269   4.072   5.025   0.273
    1STR    H1U 3270   4.086   4.856   0.209
    1STR    H1V 3271   3.903   4.876   0.580
    1STR    H1W 3272   4.042   4.978   0.542
    1STR    H1X 3273   4.125   4.572   0.523
    1STR    H1Y 3274   4.203   4.382   0.410
    1STR    H1Z 3275   4.242   4.293   0.186
    1STR    H20 3276   4.187   4.476   6.243
    1STR    H21 3277   4.363   4.462   6.250
    1STR    H22 3278   4.258   4.326   6.299
    1STR    H23 3279   4.313   4.643   6.261
    1STR    H27 3280   4.282   4.779   0.261
    1STR    H28 3281   3.933   4.312   0.351
    1STR    H29 3282   3.701   4.306   0.451
    1STR    H2A 3283   3.445   4.559   0.377
    1STR    H2B 3284   3.479   4.411   0.467
    1STR    H2C 3285   3.450   4.400   0.292
    1STR   BCK1 3286   3.730   4.820   1.726
    1STR    O03 3287   3.785   4.929   1.722
    1STR    N04 3288   3.645   4.776   1.633
    1STR    C05 3289   3.600   4.828   1.513
    1STR    C06 3290   3.607   4.965   1.486
    1STR    C07 3291   3.574   5.014   1.359
    1STR    N08 3292   3.621   5.137   1.322
    1STR    C09 3293   3.745   5.121   1.280
    1STR    O0A 3294   3.778   5.088   1.166
    1STR    O0B 3295   3.820   5.121   1.389
    1STR    C0C 3296   3.935   5.042   1.398
    1STR    C0D 3297   4.005   5.108   1.516
    1STR    C0E 3298   3.917   4.893   1.428
    1STR    O0F 3299   3.892   4.811   1.314
    1STR    C0G 3300   3.839   4.683   1.343
    1STR    C0H 3301   3.782   4.624   1.216
    1STR    C0I 3302   3.903   4.576   1.429
    1STR    O0J 3303   3.987   4.635   1.526
    1STR    C0K 3304   4.041   4.556   1.632
    1STR    C0M 3305   3.969   4.610   1.746
    1STR    C0N 3306   4.045   4.403   1.625
    1STR    O0O 3307   4.031   4.346   1.497
    1STR    C0P 3308   4.136   4.323   1.421
    1STR    O0Q 3309   4.170   4.209   1.391
    1STR    N0R 3310   4.204   4.426   1.374
    1STR    C0S 3311   4.196   4.564   1.381
    1STR    C0T 3312   4.144   4.633   1.271
    1STR    C0U 3313   4.151   4.772   1.268
    1STR    C0V 3314   4.223   4.842   1.365
    1STR    C0W 3315   4.246   4.988   1.349
    1STR    C0X 3316   4.277   4.776   1.474
    1STR    N0Y 3317   4.339   4.847   1.574
    1STR   BCK2 3318   4.286   4.859   1.694
    1STR    O10 3319   4.181   4.807   1.726
    1STR    C13 3320   4.269   4.636   1.477
    1STR    C14 3321   3.519   4.931   1.261
    1STR    C15 3322   3.504   4.796   1.291
    1STR    C16 3323   3.547   4.744   1.413
    1STR    C17 3324   3.538   4.594   1.427
    1STR    H1B 3325   3.578   4.704   1.666
    1STR    H1C 3326   3.650   5.032   1.560
    1STR    H1D 3327   3.618   5.196   1.403
    1STR    H1E 3328   3.983   5.052   1.302
    1STR    H1F 3329   3.934   5.119   1.598
    1STR    H1G 3330   4.085   5.046   1.557
    1STR    H1H 3331   4.044   5.205   1.488
    1STR    H1I 3332   3.841   4.881   1.502
    1STR    H1J 3333   4.004   4.856   1.481
    1STR    H1K 3334   3.767   4.704   1.414
    1STR    H1M 3335   3.713   4.695   1.171
    1STR    H1N 3336   3.730   4.531   1.237
    1STR    H1O 3337   3.862   4.604   1.145
    1STR    H1P 3338   3.830   4.514   1.479
    1STR    H1Q 3339   3.952   4.509   1.361
    1STR    H1R 3340   4.139   4.587   1.660
    1STR    H1S 3341   3.998   4.563   1.839
    1STR    H1T 3342   3.870   4.594   1.713
    1STR    H1U 3343   3.975   4.719   1.755
    1STR    H1V 3344   3.965   4.361   1.685
    1STR    H1W 3345   4.140   4.371   1.668
    1STR    H1X 3346   4.279   4.403   1.310
    1STR    H1Y 3347   4.093   4.581   1.192
    1STR    H1Z 3348   4.095   4.827   1.193
    1STR    H20 3349   4.173   5.039   1.290
    1STR    H21 3350   4.259   5.041   1.443
    1STR    H22 3351   4.334   4.987   1.290
    1STR    H23 3352   4.409   4.916   1.550
    1STR    H27 3353   4.318   4.584   1.556
    1STR    H28 3354   3.499   4.972   1.164
    1STR    H29 3355   3.464   4.728   1.220
    1STR    H2A 3356   3.624   4.551   1.474
    1STR    H2B 3357   3.523   4.544   1.331
    1STR    H2C 3358   3.453   4.570   1.486
    1STR   BCK1 3359   3.476   4.681   3.190
    1STR    O03 3360   3.549   4.658   3.286
    1STR    N04 3361   3.426   4.803   3.161
    1STR    C05 3362   3.473   4.916   3.228
    1STR    C06 3363   3.608   4.922   3.248
    1STR    C07 3364   3.678   5.009   3.328
    1STR    N08 3365   3.796   4.956   3.379
    1STR    C09 3366   3.790   4.903   3.501
    1STR    O0A 3367   3.753   4.965   3.600
    1STR    O0B 3368   3.810   4.769   3.508
    1STR    C0C 3369   3.910   4.697   3.437
    1STR    C0D 3370   3.948   4.582   3.530
    1STR    C0E 3371   3.866   4.635   3.304
    1STR    O0F 3372   3.824   4.741   3.227
    1STR    C0G 3373   3.844   4.733   3.089
    1STR    C0H 3374   3.757   4.828   3.008
    1STR    C0I 3375   3.977   4.795   3.083
    1STR    O0J 3376   4.062   4.721   3.002
    1STR    C0K 3377   4.051   4.733   2.863
    1STR    C0M 3378   3.984   4.605   2.816
    1STR    C0N 3379   4.013   4.860   2.783
    1STR    O0O 3380   4.008   4.984   2.853
    1STR    C0P 3381   4.119   5.051   2.872
    1STR    O0Q 3382   4.222   5.037   2.808
    1STR    N0R 3383   4.111   5.119   2.987
    1STR    C0S 3384   4.172   5.070   3.100
    1STR    C0T 3385   4.194   5.153   3.211
    1STR    C0U 3386   4.271   5.100   3.315
    1STR    C0V 3387   4.302   4.963   3.319
    1STR    C0W 3388   4.437   4.914   3.354
    1STR    C0X 3389   4.246   4.878   3.227
    1STR    N0Y 3390   4.239   4.741   3.242
    1STR   BCK2 3391   4.214   4.661   3.346
    1STR    O10 3392   4.176   4.548   3.324
    1STR    C13 3393   4.216   4.937   3.106
    1STR    C14 3394   3.609   5.124   3.368
    1STR    C15 3395   3.469   5.128   3.344
    1STR    C16 3396   3.400   5.018   3.286
    1STR    C17 3397   3.251   5.005   3.286
    1STR    H1B 3398   3.386   4.813   3.069
    1STR    H1C 3399   3.652   4.840   3.210
    1STR    H1D 3400   3.831   4.885   3.315
    1STR    H1E 3401   3.993   4.766   3.421
    1STR    H1F 3402   3.867   4.512   3.542
    1STR    H1G 3403   4.025   4.519   3.488
    1STR    H1H 3404   3.983   4.620   3.625
    1STR    H1I 3405   3.784   4.565   3.315
    1STR    H1J 3406   3.949   4.583   3.256
    1STR    H1K 3407   3.841   4.631   3.052
    1STR    H1M 3408   3.760   4.929   3.048
    1STR    H1N 3409   3.653   4.796   3.001
    1STR    H1O 3410   3.798   4.837   2.910
    1STR    H1P 3411   3.973   4.901   3.062
    1STR    H1Q 3412   4.019   4.795   3.181
    1STR    H1R 3413   4.155   4.727   2.845
    1STR    H1S 3414   4.012   4.583   2.713
    1STR    H1T 3415   3.876   4.616   2.822
    1STR    H1U 3416   4.013   4.522   2.880
    1STR    H1V 3417   3.917   4.847   2.736
    1STR    H1W 3418   4.083   4.869   2.699
    1STR    H1X 3419   4.021   5.162   3.002
    1STR    H1Y 3420   4.169   5.257   3.210
    1STR    H1Z 3421   4.314   5.171   3.382
    1STR    H20 3422   4.440   4.844   3.434
    1STR    H21 3423   4.469   4.860   3.266
    1STR    H22 3424   4.510   4.992   3.367
    1STR    H23 3425   4.242   4.680   3.159
    1STR    H27 3426   4.215   4.873   3.020
    1STR    H28 3427   3.658   5.195   3.432
    1STR    H29 3428   3.413   5.210   3.384
    1STR    H2A 3429   3.225   4.979   3.187
    1STR    H2B 3430   3.198   5.094   3.315
    1STR    H2C 3431   3.219   4.923   3.348
    1STR   BCK1 3432   3.708   4.909   4.819
    1STR    O03 3433   3.740   5.021   4.856
    1STR    N04 3434   3.681   4.883   4.691
    1STR    C05 3435   3.657   4.765   4.618
    1STR    C06 3436   3.633   4.638   4.673
    1STR    C07 3437   3.633   4.521   4.595
    1STR    N08 3438   3.638   4.400   4.660
    1STR    C09 3439   3.739   4.314   4.648
    1STR    O0A 3440   3.757   4.225   4.729
    1STR    O0B 3441   3.823   4.342   4.551
    1STR    C0C 3442   3.946   4.406   4.583
    1STR    C0D 3443   4.010   4.436   4.449
    1STR    C0E 3444   3.929   4.539   4.656
    1STR    O0F 3445   3.849   4.528   4.775
    1STR    C0G 3446   3.900   4.497   4.901
    1STR    C0H 3447   3.861   4.363   4.960
    1STR    C0I 3448   4.040   4.527   4.906
    1STR    O0J 3449   4.052   4.665   4.870
    1STR    C0K 3450   4.059   4.774   4.960
    1STR    C0M 3451   4.031   4.897   4.875
    1STR    C0N 3452   4.011   4.767   5.108
    1STR    O0O 3453   4.037   4.640   5.165
    1STR    C0P 3454   4.104   4.624   5.279
    1STR    O0Q 3455   4.089   4.694   5.378
    1STR    N0R 3456   4.196   4.526   5.273
    1STR    C0S 3457   4.253   4.482   5.153
    1STR    C0T 3458   4.271   4.349   5.113
    1STR    C0U 3459   4.306   4.321   4.979
    1STR    C0V 3460   4.325   4.426   4.887
    1STR    C0W 3461   4.332   4.402   4.739
    1STR    C0X 3462   4.319   4.559   4.929
    1STR    N0Y 3463   4.334   4.659   4.834
    1STR   BCK2 3464   4.360   4.788   4.833
    1STR    O10 3465   4.344   4.843   4.727
    1STR    C13 3466   4.280   4.582   5.060
    1STR    C14 3467   3.652   4.533   4.458
    1STR    C15 3468   3.659   4.659   4.399
    1STR    C16 3469   3.658   4.774   4.478
    1STR    C17 3470   3.663   4.908   4.412
    1STR    H1B 3471   3.687   4.968   4.637
    1STR    H1C 3472   3.628   4.618   4.779
    1STR    H1D 3473   3.592   4.393   4.749
    1STR    H1E 3474   4.005   4.338   4.644
    1STR    H1F 3475   3.945   4.502   4.392
    1STR    H1G 3476   4.105   4.489   4.463
    1STR    H1H 3477   4.025   4.345   4.392
    1STR    H1I 3478   3.879   4.611   4.592
    1STR    H1J 3479   4.026   4.588   4.665
    1STR    H1K 3480   3.868   4.570   4.973
    1STR    H1M 3481   3.754   4.347   4.951
    1STR    H1N 3482   3.886   4.361   5.066
    1STR    H1O 3483   3.915   4.282   4.911
    1STR    H1P 3484   4.069   4.494   5.002
    1STR    H1Q 3485   4.088   4.462   4.834
    1STR    H1R 3486   4.161   4.788   4.974
    1STR    H1S 3487   3.998   4.982   4.934
    1STR    H1T 3488   3.959   4.874   4.798
    1STR    H1U 3489   4.119   4.925   4.817
    1STR    H1V 3490   3.907   4.786   5.121
    1STR    H1W 3491   4.062   4.845   5.165
    1STR    H1X 3492   4.229   4.491   5.361
    1STR    H1Y 3493   4.249   4.268   5.181
    1STR    H1Z 3494   4.311   4.219   4.944
    1STR    H20 3495   4.253   4.455   4.686
    1STR    H21 3496   4.427   4.443   4.706
    1STR    H22 3497   4.322   4.297   4.718
    1STR    H23 3498   4.320   4.627   4.740
    1STR    H27 3499   4.264   4.681   5.093
    1STR    H28 3500   3.661   4.443   4.398
    1STR    H29 3501   3.667   4.666   4.292
    1STR    H2A 3502   3.655   4.896   4.304
    1STR    H2B 3503   3.756   4.958   4.437
    1STR    H2C 3504   3.578   4.966   4.446
    1STR   BCK1 3505   5.166   6.276   0.100
    1STR    O03 3506   5.264   6.307   0.166
    1STR    N04 3507   5.097   0.030   0.038
    1STR    C05 3508   5.126   0.165   0.023
    1STR    C06 3509   5.219   0.237   0.100
    1STR    C07 3510   5.269   0.359   0.049
    1STR    N08 3511   5.378   0.413   0.108
    1STR    C09 3512   5.477   0.469   0.039
    1STR    O0A 3513   5.466   0.559   6.296
    1STR    O0B 3514   5.592   0.411   0.065
    1STR    C0C 3515   5.605   0.285   0.129
    1STR    C0D 3516   5.600   0.301   0.280
    1STR    C0E 3517   5.524   0.165   0.076
    1STR    O0F 3518   5.467   0.187   6.286
    1STR    C0G 3519   5.413   0.068   6.231
    1STR    C0H 3520   5.326   0.089   6.110
    1STR    C0I 3521   5.523   6.329   6.176
    1STR    O0J 3522   5.585   6.252   6.277
    1STR    C0K 3523   5.584   6.111   6.274
    1STR    C0M 3524   5.531   6.070   0.069
    1STR    C0N 3525   5.519   6.038   6.152
    1STR    O0O 3526   5.565   6.076   6.022
    1STR    C0P 3527   5.693   6.100   6.010
    1STR    O0Q 3528   5.776   6.041   6.078
    1STR    N0R 3529   5.713   6.211   5.939
    1STR    C0S 3530   5.765   6.328   5.993
    1STR    C0T 3531   5.747   0.109   5.925
    1STR    C0U 3532   5.764   0.231   5.992
    1STR    C0V 3533   5.796   0.231   6.129
    1STR    C0W 3534   5.806   0.362   6.195
    1STR    C0X 3535   5.816   0.111   6.200
    1STR    N0Y 3536   5.849   0.114   6.334
    1STR   BCK2 3537   5.848   0.016   0.083
    1STR    O10 3538   5.847   6.236   0.061
    1STR    C13 3539   5.807   6.332   6.128
    1STR    C14 3540   5.214   0.418   6.276
    1STR    C15 3541   5.102   0.362   6.220
    1STR    C16 3542   5.065   0.235   6.258
    1STR    C17 3543   4.956   0.177   6.186
    1STR    H1B 3544   5.022   6.338   6.319
    1STR    H1C 3545   5.257   0.195   0.191
    1STR    H1D 3546   5.412   0.361   0.187
    1STR    H1E 3547   5.706   0.265   0.104
    1STR    H1F 3548   5.506   0.342   0.317
    1STR    H1G 3549   5.614   0.205   0.329
    1STR    H1H 3550   5.680   0.368   0.309
    1STR    H1I 3551   5.448   0.134   0.146
    1STR    H1J 3552   5.591   0.081   0.078
    1STR    H1K 3553   5.365   0.010   6.306
    1STR    H1M 3554   5.382   0.143   6.034
    1STR    H1N 3555   5.235   0.141   6.131
    1STR    H1O 3556   5.299   6.333   6.067
    1STR    H1P 3557   5.499   6.277   6.086
    1STR    H1Q 3558   5.583   0.070   6.141
    1STR    H1R 3559   5.689   6.084   6.283
    1STR    H1S 3560   5.527   5.962   0.079
    1STR    H1T 3561   5.436   6.114   0.091
    1STR    H1U 3562   5.595   6.110   0.145
    1STR    H1V 3563   5.411   6.053   6.154
    1STR    H1W 3564   5.540   5.932   6.162
    1STR    H1X 3565   5.646   6.224   5.865
    1STR    H1Y 3566   5.710   0.113   5.824
    1STR    H1Z 3567   5.746   0.325   5.943
    1STR    H20 3568   5.711   0.414   6.195
    1STR    H21 3569   5.838   0.352   6.297
    1STR    H22 3570   5.879   0.417   6.136
    1STR    H23 3571   5.865   0.205   0.031
    1STR    H27 3572   5.820   6.241   6.182
    1STR    H28 3573   5.253   0.508   6.235
    1STR    H29 3574   5.046   0.417   6.147
    1STR    H2A 3575   4.972   0.073   6.182
    1STR    H2B 3576   4.946   0.221   6.089
    1STR    H2C 3577   4.876   0.206   6.248
    1STR   BCK1 3578   5.289   0.095   1.566
    1STR    O03 3579   5.344   0.204   1.570
    1STR    N04 3580   5.197   0.055   1.652
    1STR    C05 3581   5.204   0.080   1.786
    1STR    C06 3582   5.234   6.308   1.861
    1STR    C07 3583   5.276   6.315   1.994
    1STR    N08 3584   5.359   6.213   2.037
    1STR    C09 3585   5.337   6.085   2.002
    1STR    O0A 3586   5.239   6.023   2.040
    1STR    O0B 3587   5.424   6.030   1.915
    1STR    C0C 3588   5.533   6.093   1.849
    1STR    C0D 3589   5.589   5.987   1.755
    1STR    C0E 3590   5.498   6.212   1.762
    1STR    O0F 3591   5.495   6.326   1.847
    1STR    C0G 3592   5.532   0.107   1.788
    1STR    C0H 3593   5.487   0.236   1.854
    1STR    C0I 3594   5.674   0.098   1.807
    1STR    O0J 3595   5.723   0.039   1.693
    1STR    C0K 3596   5.742   0.118   1.580
    1STR    C0M 3597   5.699   0.018   1.479
    1STR    C0N 3598   5.679   0.256   1.553
    1STR    O0O 3599   5.714   0.336   1.662
    1STR    C0P 3600   5.730   0.465   1.659
    1STR    O0Q 3601   5.707   0.538   1.563
    1STR    N0R 3602   5.777   0.510   1.777
    1STR    C0S 3603   5.816   0.427   1.882
    1STR    C0T 3604   5.745   0.424   2.002
    1STR    C0U 3605   5.765   0.319   2.093
    1STR    C0V 3606   5.850   0.211   2.061
    1STR    C0W 3607   5.855   0.098   2.160
    1STR    C0X 3608   5.921   0.211   1.939
    1STR    N0Y 3609   5.973   0.104   1.867
    1STR   BCK2 3610   5.939   6.317   1.840
    1STR    O10 3611   5.959   6.272   1.728
    1STR    C13 3612   5.911   0.326   1.858
    1STR    C14 3613   5.266   0.099   2.060
    1STR    C15 3614   5.214   0.210   1.992
    1STR    C16 3615   5.186   0.203   1.853
    1STR    C17 3616   5.136   0.323   1.781
    1STR    H1B 3617   5.151   6.307   1.634
    1STR    H1C 3618   5.242   6.214   1.812
    1STR    H1D 3619   5.450   6.246   2.006
    1STR    H1E 3620   5.608   6.123   1.922
    1STR    H1F 3621   5.514   5.959   1.682
    1STR    H1G 3622   5.676   6.026   1.700
    1STR    H1H 3623   5.618   5.899   1.811
    1STR    H1I 3624   5.408   6.197   1.704
    1STR    H1J 3625   5.573   6.219   1.687
    1STR    H1K 3626   5.509   0.105   1.684
    1STR    H1M 3627   5.474   0.225   1.961
    1STR    H1N 3628   5.401   0.275   1.803
    1STR    H1O 3629   5.555   0.319   1.838
    1STR    H1P 3630   5.716   0.193   1.824
    1STR    H1Q 3631   5.694   0.044   1.899
    1STR    H1R 3632   5.849   0.130   1.583
    1STR    H1S 3633   5.786   6.298   1.470
    1STR    H1T 3634   5.665   0.067   1.389
    1STR    H1U 3635   5.619   6.292   1.507
    1STR    H1V 3636   5.571   0.253   1.541
    1STR    H1W 3637   5.719   0.296   1.460
    1STR    H1X 3638   5.772   0.609   1.789
    1STR    H1Y 3639   5.668   0.498   2.021
    1STR    H1Z 3640   5.707   0.316   2.183
    1STR    H20 3641   5.767   0.034   2.147
    1STR    H21 3642   5.944   0.038   2.147
    1STR    H22 3643   5.856   0.137   2.261
    1STR    H23 3644   6.044   0.135   1.802
    1STR    H27 3645   5.957   0.323   1.763
    1STR    H28 3646   5.300   0.108   2.162
    1STR    H29 3647   5.203   0.304   2.043
    1STR    H2A 3648   5.202   0.350   1.699
    1STR    H2B 3649   5.131   0.408   1.848
    1STR    H2C 3650   5.037   0.298   1.744
    1STR   BCK1 3651   5.222   0.086   3.271
    1STR    O03 3652   5.241   0.200   3.232
    1STR    N04 3653   5.180   6.330   3.187
    1STR    C05 3654   5.189   6.325   3.048
    1STR    C06 3655   5.204   0.101   2.970
    1STR    C07 3656   5.262   0.091   2.843
    1STR    N08 3657   5.294   0.207   2.778
    1STR    C09 3658   5.418   0.240   2.805
    1STR    O0A 3659   5.508   0.237   2.722
    1STR    O0B 3660   5.430   0.255   2.936
    1STR    C0C 3661   5.542   0.202   3.000
    1STR    C0D 3662   5.624   0.328   3.021
    1STR    C0E 3663   5.506   0.129   3.129
    1STR    O0F 3664   5.455   6.336   3.109
    1STR    C0G 3665   5.484   6.246   3.217
    1STR    C0H 3666   5.397   6.123   3.221
    1STR    C0I 3667   5.614   6.188   3.191
    1STR    O0J 3668   5.701   6.167   3.298
    1STR    C0K 3669   5.672   6.079   3.403
    1STR    C0M 3670   5.580   6.146   3.504
    1STR    C0N 3671   5.650   5.930   3.367
    1STR    O0O 3672   5.649   5.896   3.228
    1STR    C0P 3673   5.759   5.913   3.155
    1STR    O0Q 3674   5.869   5.935   3.202
    1STR    N0R 3675   5.725   5.923   3.026
    1STR    C0S 3676   5.754   6.032   2.943
    1STR    C0T 3677   5.693   6.042   2.817
    1STR    C0U 3678   5.694   6.164   2.748
    1STR    C0V 3679   5.743   6.282   2.809
    1STR    C0W 3680   5.754   0.069   2.729
    1STR    C0X 3681   5.797   6.276   2.938
    1STR    N0Y 3682   5.804   0.057   3.010
    1STR   BCK2 3683   5.842   0.078   3.136
    1STR    O10 3684   5.797   0.156   3.219
    1STR    C13 3685   5.817   6.147   2.994
    1STR    C14 3686   5.302   6.307   2.790
    1STR    C15 3687   5.262   6.191   2.856
    1STR    C16 3688   5.203   6.202   2.982
    1STR    C17 3689   5.156   6.076   3.040
    1STR    H1B 3690   5.154   6.244   3.233
    1STR    H1C 3691   5.186   0.198   3.013
    1STR    H1D 3692   5.229   0.277   2.810
    1STR    H1E 3693   5.584   0.126   2.936
    1STR    H1F 3694   5.564   0.400   3.077
    1STR    H1G 3695   5.713   0.313   3.078
    1STR    H1H 3696   5.651   0.371   2.925
    1STR    H1I 3697   5.450   0.195   3.191
    1STR    H1J 3698   5.587   0.119   3.196
    1STR    H1K 3699   5.495   6.299   3.310
    1STR    H1M 3700   5.391   6.079   3.122
    1STR    H1N 3701   5.302   6.148   3.258
    1STR    H1O 3702   5.433   6.045   3.287
    1STR    H1P 3703   5.602   6.106   3.123
    1STR    H1Q 3704   5.659   6.263   3.134
    1STR    H1R 3705   5.763   6.078   3.461
    1STR    H1S 3706   5.593   6.102   3.603
    1STR    H1T 3707   5.475   6.141   3.478
    1STR    H1U 3708   5.605   6.252   3.511
    1STR    H1V 3709   5.555   5.897   3.410
    1STR    H1W 3710   5.729   5.872   3.415
    1STR    H1X 3711   5.641   5.873   3.008
    1STR    H1Y 3712   5.645   5.956   2.774
    1STR    H1Z 3713   5.656   6.169   2.647
    1STR    H20 3714   5.730   0.158   2.787
    1STR    H21 3715   5.858   0.081   2.697
    1STR    H22 3716   5.689   0.066   2.643
    1STR    H23 3717   5.744   0.129   2.974
    1STR    H27 3718   5.859   6.134   3.091
    1STR    H28 3719   5.353   6.302   2.695
    1STR    H29 3720   5.276   6.094   2.811
    1STR    H2A 3721   5.152   6.073   3.147
    1STR    H2B 3722   5.223   5.997   3.009
    1STR    H2C 3723   5.057   6.063   3.001
    1STR   BCK1 3724   5.090   0.006   4.714
    1STR    O03 3725   5.117   0.013   4.834
    1STR    N04 3726   5.091   0.107   4.627
    1STR    C05 3727   5.183   0.210   4.623
    1STR    C06 3728   5.285   0.219   4.719
    1STR    C07 3729   5.397   0.300   4.701
    1STR    N08 3730   5.498   0.293   4.794
    1STR    C09 3731   5.464   0.288   4.921
    1STR    O0A 3732   5.422   0.386   4.980
    1STR    O0B 3733   5.460   0.167   4.975
    1STR    C0C 3734   5.518   0.048   4.928
    1STR    C0D 3735   5.561   6.329   5.061
    1STR    C0E 3736   5.428   6.280   4.862
    1STR    O0F 3737   5.366   6.305   4.737
    1STR    C0G 3738   5.431   6.266   4.619
    1STR    C0H 3739   5.338   6.214   4.520
    1STR    C0I 3740   5.490   0.045   4.548
    1STR    O0J 3741   5.574   0.106   4.639
    1STR    C0K 3742   5.702   0.061   4.638
    1STR    C0M 3743   5.728   6.262   4.693
    1STR    C0N 3744   5.766   0.103   4.507
    1STR    O0O 3745   5.822   0.230   4.510
    1STR    C0P 3746   5.748   0.336   4.522
    1STR    O0Q 3747   5.661   0.365   4.441
    1STR    N0R 3748   5.780   0.411   4.627
    1STR    C0S 3749   5.840   0.368   4.745
    1STR    C0T 3750   5.799   0.425   4.866
    1STR    C0U 3751   5.833   0.363   4.988
    1STR    C0V 3752   5.898   0.239   4.990
    1STR    C0W 3753   5.939   0.179   5.122
    1STR    C0X 3754   5.932   0.178   4.868
    1STR    N0Y 3755   5.985   0.054   4.844
    1STR   BCK2 3756   5.954   6.272   4.885
    1STR    O10 3757   5.985   6.177   4.815
    1STR    C13 3758   5.922   0.254   4.752
    1STR    C14 3759   5.410   0.375   4.584
    1STR    C15 3760   5.304   0.378   4.493
    1STR    C16 3761   5.190   0.301   4.516
    1STR    C17 3762   5.070   0.332   4.434
    1STR    H1B 3763   5.030   0.086   4.548
    1STR    H1C 3764   5.278   0.162   4.809
    1STR    H1D 3765   5.555   0.217   4.757
    1STR    H1E 3766   5.606   0.076   4.873
    1STR    H1F 3767   5.474   6.314   5.126
    1STR    H1G 3768   5.607   6.233   5.046
    1STR    H1H 3769   5.630   0.057   5.111
    1STR    H1I 3770   5.344   6.264   4.928
    1STR    H1J 3771   5.481   6.186   4.854
    1STR    H1K 3772   5.491   6.179   4.634
    1STR    H1M 3773   5.261   6.289   4.506
    1STR    H1N 3774   5.294   6.119   4.548
    1STR    H1O 3775   5.392   6.199   4.427
    1STR    H1P 3776   5.532   0.018   4.452
    1STR    H1Q 3777   5.414   0.117   4.521
    1STR    H1R 3778   5.739   0.123   4.716
    1STR    H1S 3779   5.827   6.235   4.668
    1STR    H1T 3780   5.677   6.177   4.654
    1STR    H1U 3781   5.717   6.259   4.801
    1STR    H1V 3782   5.712   0.084   4.416
    1STR    H1W 3783   5.849   0.043   4.498
    1STR    H1X 3784   5.726   0.495   4.631
    1STR    H1Y 3785   5.737   0.513   4.865
    1STR    H1Z 3786   5.805   0.411   5.080
    1STR    H20 3787   5.969   0.257   5.192
    1STR    H21 3788   5.854   0.127   5.165
    1STR    H22 3789   6.023   0.111   5.109
    1STR    H23 3790   6.040   0.051   4.760
    1STR    H27 3791   5.967   0.210   4.664
    1STR    H28 3792   5.492   0.443   4.574
    1STR    H29 3793   5.306   0.450   4.413
    1STR    H2A 3794   4.985   0.276   4.470
    1STR    H2B 3795   5.096   0.317   4.331
    1STR    H2C 3796   5.046   0.436   4.445
    1STR   BCK1 3797   5.286   1.502   6.144
    1STR    O03 3798   5.360   1.451   6.062
    1STR    N04 3799   5.186   1.436   6.204
    1STR    C05 3800   5.196   1.303   6.239
    1STR    C06 3801   5.241   1.279   0.028
    1STR    C07 3802   5.268   1.149   0.073
    1STR    N08 3803   5.338   1.134   0.190
    1STR    C09 3804   5.455   1.196   0.204
    1STR    O0A 3805   5.513   1.202   0.311
    1STR    O0B 3806   5.499   1.236   0.084
    1STR    C0C 3807   5.563   1.357   0.055
    1STR    C0D 3808   5.584   1.341   6.244
    1STR    C0E 3809   5.492   1.487   0.076
    1STR    O0F 3810   5.427   1.496   0.200
    1STR    C0G 3811   5.481   1.595   0.282
    1STR    C0H 3812   5.385   1.656   0.381
    1STR    C0I 3813   5.584   1.521   0.360
    1STR    O0J 3814   5.703   1.585   0.331
    1STR    C0K 3815   5.729   1.705   0.400
    1STR    C0M 3816   5.699   1.825   0.310
    1STR    C0N 3817   5.704   1.713   0.552
    1STR    O0O 3818   5.713   1.585   0.616
    1STR    C0P 3819   5.826   1.516   0.602
    1STR    O0Q 3820   5.937   1.567   0.609
    1STR    N0R 3821   5.799   1.395   0.552
    1STR    C0S 3822   5.850   1.349   0.430
    1STR    C0T 3823   5.796   1.233   0.372
    1STR    C0U 3824   5.807   1.212   0.233
    1STR    C0V 3825   5.871   1.308   0.153
    1STR    C0W 3826   5.862   1.308   0.002
    1STR    C0X 3827   5.932   1.418   0.211
    1STR    N0Y 3828   5.976   1.514   0.122
    1STR   BCK2 3829   5.947   1.642   0.132
    1STR    O10 3830   5.872   1.691   0.049
    1STR    C13 3831   5.924   1.435   0.348
    1STR    C14 3832   5.246   1.042   6.328
    1STR    C15 3833   5.192   1.063   6.200
    1STR    C16 3834   5.165   1.194   6.156
    1STR    C17 3835   5.101   1.212   6.024
    1STR    H1B 3836   5.116   1.485   6.260
    1STR    H1C 3837   5.266   1.359   0.094
    1STR    H1D 3838   5.307   1.075   0.265
    1STR    H1E 3839   5.648   1.366   0.117
    1STR    H1F 3840   5.488   1.320   6.198
    1STR    H1G 3841   5.626   1.430   6.197
    1STR    H1H 3842   5.641   1.253   6.218
    1STR    H1I 3843   5.416   1.496   0.001
    1STR    H1J 3844   5.563   1.568   0.055
    1STR    H1K 3845   5.519   1.677   0.223
    1STR    H1M 3846   5.343   1.573   0.437
    1STR    H1N 3847   5.309   1.713   0.330
    1STR    H1O 3848   5.434   1.725   0.448
    1STR    H1P 3849   5.558   1.512   0.465
    1STR    H1Q 3850   5.594   1.419   0.326
    1STR    H1R 3851   5.835   1.695   0.406
    1STR    H1S 3852   5.770   1.905   0.326
    1STR    H1T 3853   5.598   1.862   0.322
    1STR    H1U 3854   5.710   1.795   0.205
    1STR    H1V 3855   5.608   1.758   0.571
    1STR    H1W 3856   5.781   1.780   0.593
    1STR    H1X 3857   5.709   1.360   0.575
    1STR    H1Y 3858   5.732   1.167   0.429
    1STR    H1Z 3859   5.755   1.129   0.188
    1STR    H20 3860   5.809   1.396   6.307
    1STR    H21 3861   5.959   1.320   6.298
    1STR    H22 3862   5.818   1.215   6.307
    1STR    H23 3863   5.953   1.479   0.031
    1STR    H27 3864   5.962   1.525   0.388
    1STR    H28 3865   5.277   0.946   0.024
    1STR    H29 3866   5.172   0.981   6.133
    1STR    H2A 3867   5.086   1.118   5.972
    1STR    H2B 3868   5.169   1.274   5.966
    1STR    H2C 3869   5.005   1.259   6.041
    1STR   BCK1 3870   5.168   1.736   1.669
    1STR    O03 3871   5.220   1.811   1.750
    1STR    N04 3872   5.139   1.757   1.542
    1STR    C05 3873   5.152   1.861   1.454
    1STR    C06 3874   5.242   1.964   1.476
    1STR    C07 3875   5.285   2.037   1.364
    1STR    N08 3876   5.412   2.085   1.371
    1STR    C09 3877   5.493   2.015   1.293
    1STR    O0A 3878   5.509   2.035   1.173
    1STR    O0B 3879   5.554   1.917   1.355
    1STR    C0C 3880   5.540   1.873   1.489
    1STR    C0D 3881   5.563   1.967   1.607
    1STR    C0E 3882   5.465   1.744   1.511
    1STR    O0F 3883   5.426   1.700   1.384
    1STR    C0G 3884   5.372   1.571   1.381
    1STR    C0H 3885   5.293   1.576   1.256
    1STR    C0I 3886   5.473   1.462   1.369
    1STR    O0J 3887   5.540   1.445   1.491
    1STR    C0K 3888   5.552   1.319   1.555
    1STR    C0M 3889   5.457   1.333   1.668
    1STR    C0N 3890   5.532   1.189   1.474
    1STR    O0O 3891   5.598   1.191   1.349
    1STR    C0P 3892   5.720   1.236   1.348
    1STR    O0Q 3893   5.803   1.216   1.437
    1STR    N0R 3894   5.726   1.326   1.252
    1STR    C0S 3895   5.767   1.456   1.271
    1STR    C0T 3896   5.773   1.540   1.160
    1STR    C0U 3897   5.793   1.677   1.179
    1STR    C0V 3898   5.797   1.730   1.309
    1STR    C0W 3899   5.819   1.877   1.313
    1STR    C0X 3900   5.786   1.646   1.423
    1STR    N0Y 3901   5.791   1.696   1.554
    1STR   BCK2 3902   5.744   1.647   1.669
    1STR    O10 3903   5.697   1.536   1.687
    1STR    C13 3904   5.782   1.509   1.401
    1STR    C14 3905   5.217   2.028   1.241
    1STR    C15 3906   5.112   1.938   1.226
    1STR    C16 3907   5.085   1.850   1.332
    1STR    C17 3908   4.984   1.745   1.312
    1STR    H1B 3909   5.099   1.675   1.498
    1STR    H1C 3910   5.291   1.965   1.571
    1STR    H1D 3911   5.443   2.079   1.466
    1STR    H1E 3912   5.634   1.831   1.483
    1STR    H1F 3913   5.477   2.028   1.633
    1STR    H1G 3914   5.587   1.908   1.696
    1STR    H1H 3915   5.648   2.031   1.586
    1STR    H1I 3916   5.384   1.761   1.578
    1STR    H1J 3917   5.523   1.668   1.562
    1STR    H1K 3918   5.309   1.551   1.465
    1STR    H1M 3919   5.350   1.620   1.174
    1STR    H1N 3920   5.207   1.638   1.275
    1STR    H1O 3921   5.263   1.477   1.229
    1STR    H1P 3922   5.430   1.370   1.332
    1STR    H1Q 3923   5.537   1.502   1.293
    1STR    H1R 3924   5.650   1.315   1.601
    1STR    H1S 3925   5.446   1.240   1.723
    1STR    H1T 3926   5.366   1.366   1.621
    1STR    H1U 3927   5.490   1.411   1.737
    1STR    H1V 3928   5.426   1.171   1.456
    1STR    H1W 3929   5.572   1.105   1.531
    1STR    H1X 3930   5.662   1.311   1.177
    1STR    H1Y 3931   5.767   1.501   1.059
    1STR    H1Z 3932   5.802   1.742   1.094
    1STR    H20 3933   5.807   1.922   1.412
    1STR    H21 3934   5.916   1.897   1.273
    1STR    H22 3935   5.752   1.927   1.244
    1STR    H23 3936   5.827   1.789   1.564
    1STR    H27 3937   5.784   1.446   1.487
    1STR    H28 3938   5.254   2.081   1.154
    1STR    H29 3939   5.061   1.927   1.132
    1STR    H2A 3940   4.977   1.666   1.386
    1STR    H2B 3941   4.995   1.700   1.217
    1STR    H2C 3942   4.896   1.804   1.313
    1STR   BCK1 3943   5.171   1.564   3.349
    1STR    O03 3944   5.212   1.502   3.446
    1STR    N04 3945   5.178   1.698   3.328
    1STR    C05 3946   5.251   1.781   3.412
    1STR    C06 3947   5.360   1.726   3.475
    1STR    C07 3948   5.433   1.779   3.578
    1STR    N08 3949   5.533   1.693   3.624
    1STR    C09 3950   5.487   1.572   3.661
    1STR    O0A 3951   5.427   1.557   3.767
    1STR    O0B 3952   5.488   1.471   3.566
    1STR    C0C 3953   5.562   1.462   3.443
    1STR    C0D 3954   5.620   1.324   3.465
    1STR    C0E 3955   5.483   1.446   3.309
    1STR    O0F 3956   5.416   1.553   3.246
    1STR    C0G 3957   5.482   1.650   3.170
    1STR    C0H 3958   5.387   1.749   3.106
    1STR    C0I 3959   5.580   1.725   3.257
    1STR    O0J 3960   5.707   1.667   3.252
    1STR    C0K 3961   5.762   1.641   3.126
    1STR    C0M 3962   5.743   1.491   3.105
    1STR    C0N 3963   5.739   1.750   3.014
    1STR    O0O 3964   5.726   1.866   3.092
    1STR    C0P 3965   5.766   1.987   3.068
    1STR    O0Q 3966   5.768   2.042   2.959
    1STR    N0R 3967   5.804   2.044   3.183
    1STR    C0S 3968   5.827   1.976   3.303
    1STR    C0T 3969   5.781   2.020   3.427
    1STR    C0U 3970   5.805   1.943   3.542
    1STR    C0V 3971   5.875   1.821   3.534
    1STR    C0W 3972   5.902   1.744   3.660
    1STR    C0X 3973   5.924   1.776   3.411
    1STR    N0Y 3974   5.996   1.660   3.389
    1STR   BCK2 3975   5.940   1.540   3.379
    1STR    O10 3976   5.969   1.470   3.283
    1STR    C13 3977   5.901   1.857   3.300
    1STR    C14 3978   5.398   1.907   3.622
    1STR    C15 3979   5.294   1.975   3.554
    1STR    C16 3980   5.225   1.913   3.447
    1STR    C17 3981   5.129   1.988   3.364
    1STR    H1B 3982   5.143   1.734   3.240
    1STR    H1C 3983   5.388   1.630   3.444
    1STR    H1D 3984   5.613   1.693   3.564
    1STR    H1E 3985   5.642   1.536   3.439
    1STR    H1F 3986   5.541   1.249   3.467
    1STR    H1G 3987   5.690   1.300   3.386
    1STR    H1H 3988   5.668   1.323   3.563
    1STR    H1I 3989   5.404   1.378   3.336
    1STR    H1J 3990   5.537   1.392   3.232
    1STR    H1K 3991   5.521   1.598   3.084
    1STR    H1M 3992   5.345   1.818   3.178
    1STR    H1N 3993   5.308   1.695   3.055
    1STR    H1O 3994   5.440   1.810   3.033
    1STR    H1P 3995   5.575   1.832   3.243
    1STR    H1Q 3996   5.562   1.720   3.361
    1STR    H1R 3997   5.865   1.647   3.151
    1STR    H1S 3998   5.835   1.443   3.078
    1STR    H1T 3999   5.664   1.464   3.037
    1STR    H1U 4000   5.727   1.444   3.200
    1STR    H1V 4001   5.649   1.735   2.956
    1STR    H1W 4002   5.822   1.763   2.946
    1STR    H1X 4003   5.821   2.145   3.186
    1STR    H1Y 4004   5.727   2.114   3.433
    1STR    H1Z 4005   5.771   1.978   3.638
    1STR    H20 4006   5.816   1.684   3.688
    1STR    H21 4007   5.984   1.677   3.642
    1STR    H22 4008   5.931   1.812   3.740
    1STR    H23 4009   6.066   1.674   3.320
    1STR    H27 4010   5.936   1.826   3.205
    1STR    H28 4011   5.449   1.952   3.706
    1STR    H29 4012   5.267   2.075   3.584
    1STR    H2A 4013   5.176   1.990   3.267
    1STR    H2B 4014   5.118   2.091   3.396
    1STR    H2C 4015   5.035   1.934   3.360
    1STR   BCK1 4016   5.206   1.608   4.778
    1STR    O03 4017   5.228   1.696   4.696
    1STR    N04 4018   5.167   1.482   4.749
    1STR    C05 4019   5.165   1.417   4.626
    1STR    C06 4020   5.175   1.492   4.509
    1STR    C07 4021   5.216   1.434   4.389
    1STR    N08 4022   5.248   1.522   4.289
    1STR    C09 4023   5.358   1.522   4.219
    1STR    O0A 4024   5.384   1.437   4.135
    1STR    O0B 4025   5.444   1.590   4.291
    1STR    C0C 4026   5.512   1.507   4.381
    1STR    C0D 4027   5.653   1.511   4.338
    1STR    C0E 4028   5.489   1.540   4.527
    1STR    O0F 4029   5.494   1.412   4.590
    1STR    C0G 4030   5.475   1.421   4.728
    1STR    C0H 4031   5.433   1.291   4.796
    1STR    C0I 4032   5.589   1.486   4.792
    1STR    O0J 4033   5.549   1.591   4.873
    1STR    C0K 4034   5.607   1.593   5.000
    1STR    C0M 4035   5.593   1.739   5.040
    1STR    C0N 4036   5.551   1.490   5.100
    1STR    O0O 4037   5.597   1.361   5.064
    1STR    C0P 4038   5.677   1.288   5.140
    1STR    O0Q 4039   5.685   1.295   5.262
    1STR    N0R 4040   5.756   1.209   5.067
    1STR    C0S 4041   5.790   1.243   4.937
    1STR    C0T 4042   5.745   1.173   4.825
    1STR    C0U 4043   5.771   1.225   4.698
    1STR    C0V 4044   5.834   1.351   4.685
    1STR    C0W 4045   5.846   1.409   4.549
    1STR    C0X 4046   5.875   1.425   4.796
    1STR    N0Y 4047   5.892   1.563   4.781
    1STR   BCK2 4048   5.882   1.671   4.857
    1STR    O10 4049   5.861   1.776   4.797
    1STR    C13 4050   5.850   1.367   4.917
    1STR    C14 4051   5.230   1.295   4.379
    1STR    C15 4052   5.201   1.216   4.492
    1STR    C16 4053   5.170   1.276   4.616
    1STR    C17 4054   5.150   1.183   4.733
    1STR    H1B 4055   5.142   1.428   4.830
    1STR    H1C 4056   5.161   1.599   4.510
    1STR    H1D 4057   5.220   1.616   4.314
    1STR    H1E 4058   5.479   1.403   4.370
    1STR    H1F 4059   5.706   1.597   4.378
    1STR    H1G 4060   5.686   1.416   4.375
    1STR    H1H 4061   5.664   1.505   4.231
    1STR    H1I 4062   5.394   1.590   4.544
    1STR    H1J 4063   5.561   1.613   4.564
    1STR    H1K 4064   5.400   1.492   4.742
    1STR    H1M 4065   5.440   1.206   4.729
    1STR    H1N 4066   5.333   1.305   4.832
    1STR    H1O 4067   5.486   1.266   4.887
    1STR    H1P 4068   5.633   1.408   4.845
    1STR    H1Q 4069   5.658   1.525   4.719
    1STR    H1R 4070   5.709   1.569   4.987
    1STR    H1S 4071   5.607   1.755   5.146
    1STR    H1T 4072   5.497   1.779   5.010
    1STR    H1U 4073   5.667   1.798   4.985
    1STR    H1V 4074   5.444   1.486   5.094
    1STR    H1W 4075   5.580   1.514   5.202
    1STR    H1X 4076   5.815   1.142   5.114
    1STR    H1Y 4077   5.692   1.080   4.835
    1STR    H1Z 4078   5.744   1.169   4.610
    1STR    H20 4079   5.945   1.433   4.522
    1STR    H21 4080   5.823   1.331   4.478
    1STR    H22 4081   5.791   1.502   4.544
    1STR    H23 4082   5.896   1.591   4.685
    1STR    H27 4083   5.864   1.426   4.999
    1STR    H28 4084   5.262   1.251   4.286
    1STR    H29 4085   5.210   1.109   4.485
    1STR    H2A 4086   5.136   1.234   4.827
    1STR    H2B 4087   5.236   1.117   4.743
    1STR    H2C 4088   5.064   1.119   4.717
    1STR   BCK1 4089   5.171   3.087   0.055
    1STR    O03 4090   5.239   3.115   0.153
    1STR    N04 4091   5.133   3.166   6.299
    1STR    C05 4092   5.142   3.301   6.284
    1STR    C06 4093   5.217   3.382   0.027
    1STR    C07 4094   5.220   3.521   0.007
    1STR    N08 4095   5.300   3.594   0.090
    1STR    C09 4096   5.396   3.671   0.045
    1STR    O0A 4097   5.389   3.746   6.289
    1STR    O0B 4098   5.508   3.640   0.109
    1STR    C0C 4099   5.538   3.505   0.148
    1STR    C0D 4100   5.489   3.462   0.286
    1STR    C0E 4101   5.522   3.395   0.040
    1STR    O0F 4102   5.474   3.450   6.259
    1STR    C0G 4103   5.429   3.361   6.159
    1STR    C0H 4104   5.362   3.437   6.047
    1STR    C0I 4105   5.548   3.298   6.107
    1STR    O0J 4106   5.580   3.194   6.198
    1STR    C0K 4107   5.544   3.061   6.169
    1STR    C0M 4108   5.443   3.019   6.270
    1STR    C0N 4109   5.515   3.026   6.021
    1STR    O0O 4110   5.614   3.080   5.933
    1STR    C0P 4111   5.736   3.068   5.976
    1STR    O0Q 4112   5.769   2.963   6.031
    1STR    N0R 4113   5.797   3.186   5.990
    1STR    C0S 4114   5.839   3.235   6.114
    1STR    C0T 4115   5.853   3.374   6.132
    1STR    C0U 4116   5.862   3.426   6.262
    1STR    C0V 4117   5.857   3.339   0.034
    1STR    C0W 4118   5.852   3.385   0.176
    1STR    C0X 4119   5.840   3.203   0.016
    1STR    N0Y 4120   5.806   3.129   0.128
    1STR   BCK2 4121   5.746   3.011   0.140
    1STR    O10 4122   5.733   2.929   0.049
    1STR    C13 4123   5.847   3.151   6.228
    1STR    C14 4124   5.142   3.577   6.247
    1STR    C15 4125   5.063   3.496   6.170
    1STR    C16 4126   5.070   3.357   6.181
    1STR    C17 4127   5.010   3.268   6.080
    1STR    H1B 4128   5.077   3.118   6.229
    1STR    H1C 4129   5.269   3.338   0.109
    1STR    H1D 4130   5.339   3.537   0.163
    1STR    H1E 4131   5.642   3.521   0.157
    1STR    H1F 4132   5.382   3.448   0.294
    1STR    H1G 4133   5.534   3.366   0.313
    1STR    H1H 4134   5.518   3.536   0.360
    1STR    H1I 4135   5.463   3.309   0.074
    1STR    H1J 4136   5.617   3.349   0.023
    1STR    H1K 4137   5.366   3.281   6.195
    1STR    H1M 4138   5.362   3.544   6.070
    1STR    H1N 4139   5.262   3.400   6.038
    1STR    H1O 4140   5.407   3.423   5.949
    1STR    H1P 4141   5.538   3.272   6.003
    1STR    H1Q 4142   5.620   3.377   6.108
    1STR    H1R 4143   5.629   3.005   6.203
    1STR    H1S 4144   5.434   2.910   6.273
    1STR    H1T 4145   5.352   3.065   6.237
    1STR    H1U 4146   5.471   3.054   0.029
    1STR    H1V 4147   5.418   3.065   5.992
    1STR    H1W 4148   5.515   2.918   6.011
    1STR    H1X 4149   5.772   3.254   5.921
    1STR    H1Y 4150   5.849   3.442   6.048
    1STR    H1Z 4151   5.863   3.533   6.272
    1STR    H20 4152   5.826   3.486   0.172
    1STR    H21 4153   5.771   3.342   0.235
    1STR    H22 4154   5.947   3.370   0.225
    1STR    H23 4155   5.830   3.172   0.215
    1STR    H27 4156   5.844   3.045   6.223
    1STR    H28 4157   5.146   3.680   6.221
    1STR    H29 4158   5.002   3.546   6.101
    1STR    H2A 4159   5.083   3.233   6.007
    1STR    H2B 4160   4.929   3.322   6.033
    1STR    H2C 4161   4.967   3.183   6.131
    1STR   BCK1 4162   5.107   3.329   1.560
    1STR    O03 4163   5.083   3.419   1.481
    1STR    N04 4164   5.105   3.358   1.690
    1STR    C05 4165   5.166   3.295   1.798
    1STR    C06 4166   5.194   3.158   1.795
    1STR    C07 4167   5.268   3.096   1.894
    1STR    N08 4168   5.288   2.962   1.874
    1STR    C09 4169   5.410   2.933   1.837
    1STR    O0A 4170   5.510   2.980   1.888
    1STR    O0B 4171   5.406   2.867   1.724
    1STR    C0C 4172   5.512   2.886   1.633
    1STR    C0D 4173   5.509   2.758   1.553
    1STR    C0E 4174   5.493   3.012   1.546
    1STR    O0F 4175   5.441   3.123   1.616
    1STR    C0G 4176   5.507   3.246   1.585
    1STR    C0H 4177   5.423   3.367   1.619
    1STR    C0I 4178   5.612   3.242   1.687
    1STR    O0J 4179   5.716   3.332   1.659
    1STR    C0K 4180   5.708   3.471   1.671
    1STR    C0M 4181   5.664   3.519   1.532
    1STR    C0N 4182   5.650   3.537   1.800
    1STR    O0O 4183   5.587   3.450   1.894
    1STR    C0P 4184   5.647   3.416   2.009
    1STR    O0Q 4185   5.742   3.476   2.059
    1STR    N0R 4186   5.604   3.297   2.051
    1STR    C0S 4187   5.684   3.185   2.039
    1STR    C0T 4188   5.670   3.068   2.116
    1STR    C0U 4189   5.729   2.947   2.071
    1STR    C0V 4190   5.796   2.941   1.946
    1STR    C0W 4191   5.845   2.810   1.888
    1STR    C0X 4192   5.815   3.060   1.875
    1STR    N0Y 4193   5.875   3.064   1.751
    1STR   BCK2 4194   5.922   3.167   1.679
    1STR    O10 4195   5.931   3.153   1.559
    1STR    C13 4196   5.763   3.177   1.926
    1STR    C14 4197   5.319   3.170   2.001
    1STR    C15 4198   5.287   3.307   2.011
    1STR    C16 4199   5.209   3.368   1.910
    1STR    C17 4200   5.172   3.512   1.922
    1STR    H1B 4201   5.040   3.433   1.709
    1STR    H1C 4202   5.154   3.099   1.717
    1STR    H1D 4203   5.219   2.917   1.815
    1STR    H1E 4204   5.607   2.895   1.686
    1STR    H1F 4205   5.412   2.744   1.505
    1STR    H1G 4206   5.584   2.756   1.476
    1STR    H1H 4207   5.527   2.674   1.620
    1STR    H1I 4208   5.436   2.996   1.454
    1STR    H1J 4209   5.589   3.045   1.514
    1STR    H1K 4210   5.546   3.251   1.483
    1STR    H1M 4211   5.367   3.336   1.703
    1STR    H1N 4212   5.363   3.405   1.537
    1STR    H1O 4213   5.468   3.451   1.664
    1STR    H1P 4214   5.566   3.249   1.785
    1STR    H1Q 4215   5.657   3.144   1.686
    1STR    H1R 4216   5.813   3.498   1.675
    1STR    H1S 4217   5.731   3.591   1.493
    1STR    H1T 4218   5.566   3.565   1.527
    1STR    H1U 4219   5.670   3.438   1.460
    1STR    H1V 4220   5.576   3.611   1.772
    1STR    H1W 4221   5.731   3.593   1.849
    1STR    H1X 4222   5.512   3.279   2.015
    1STR    H1Y 4223   5.607   3.069   2.203
    1STR    H1Z 4224   5.714   2.856   2.126
    1STR    H20 4225   5.947   2.820   1.851
    1STR    H21 4226   5.843   2.732   1.964
    1STR    H22 4227   5.782   2.782   1.804
    1STR    H23 4228   5.893   2.977   1.700
    1STR    H27 4229   5.772   3.264   1.865
    1STR    H28 4230   5.379   3.122   2.076
    1STR    H29 4231   5.320   3.364   2.096
    1STR    H2A 4232   5.064   3.515   1.911
    1STR    H2B 4233   5.222   3.568   1.843
    1STR    H2C 4234   5.199   3.551   2.020
    1STR   BCK1 4235   5.312   3.280   3.298
    1STR    O03 4236   5.362   3.391   3.284
    1STR    N04 4237   5.234   3.219   3.209
    1STR    C05 4238   5.191   3.259   3.086
    1STR    C06 4239   5.200   3.392   3.043
    1STR    C07 4240   5.173   3.424   2.909
    1STR    N08 4241   5.224   3.539   2.858
    1STR    C09 4242   5.346   3.513   2.814
    1STR    O0A 4243   5.374   3.471   2.701
    1STR    O0B 4244   5.425   3.514   2.919
    1STR    C0C 4245   5.530   3.423   2.928
    1STR    C0D 4246   5.618   3.490   3.033
    1STR    C0E 4247   5.490   3.283   2.978
    1STR    O0F 4248   5.449   3.182   2.887
    1STR    C0G 4249   5.411   3.058   2.949
    1STR    C0H 4250   5.353   2.969   2.842
    1STR    C0I 4251   5.502   2.977   3.035
    1STR    O0J 4252   5.456   2.937   3.162
    1STR    C0K 4253   5.550   2.855   3.231
    1STR    C0M 4254   5.544   2.866   3.383
    1STR    C0N 4255   5.520   2.714   3.191
    1STR    O0O 4256   5.570   2.683   3.065
    1STR    C0P 4257   5.686   2.625   3.064
    1STR    O0Q 4258   5.712   2.522   3.124
    1STR    N0R 4259   5.779   2.697   3.005
    1STR    C0S 4260   5.768   2.823   2.952
    1STR    C0T 4261   5.723   2.840   2.820
    1STR    C0U 4262   5.717   2.968   2.765
    1STR    C0V 4263   5.749   3.080   2.843
    1STR    C0W 4264   5.731   3.215   2.779
    1STR    C0X 4265   5.791   3.063   2.977
    1STR    N0Y 4266   5.796   3.172   3.062
    1STR   BCK2 4267   5.733   3.202   3.178
    1STR    O10 4268   5.668   3.125   3.245
    1STR    C13 4269   5.810   2.934   3.028
    1STR    C14 4270   5.127   3.327   2.822
    1STR    C15 4271   5.107   3.196   2.867
    1STR    C16 4272   5.138   3.161   2.998
    1STR    C17 4273   5.114   3.017   3.036
    1STR    H1B 4274   5.201   3.127   3.235
    1STR    H1C 4275   5.240   3.468   3.108
    1STR    H1D 4276   5.228   3.607   2.932
    1STR    H1E 4277   5.581   3.419   2.833
    1STR    H1F 4278   5.571   3.485   3.131
    1STR    H1G 4279   5.713   3.440   3.038
    1STR    H1H 4280   5.634   3.595   3.007
    1STR    H1I 4281   5.434   3.287   3.069
    1STR    H1J 4282   5.580   3.242   3.012
    1STR    H1K 4283   5.350   3.086   3.030
    1STR    H1M 4284   5.277   3.022   2.785
    1STR    H1N 4285   5.310   2.879   2.887
    1STR    H1O 4286   5.431   2.939   2.773
    1STR    H1P 4287   5.537   2.893   2.978
    1STR    H1Q 4288   5.579   3.042   3.058
    1STR    H1R 4289   5.652   2.883   3.207
    1STR    H1S 4290   5.623   2.807   3.429
    1STR    H1T 4291   5.450   2.830   3.422
    1STR    H1U 4292   5.564   2.968   3.415
    1STR    H1V 4293   5.414   2.714   3.183
    1STR    H1W 4294   5.553   2.644   3.268
    1STR    H1X 4295   5.873   2.663   3.032
    1STR    H1Y 4296   5.693   2.754   2.762
    1STR    H1Z 4297   5.683   2.983   2.664
    1STR    H20 4298   5.629   3.225   2.744
    1STR    H21 4299   5.755   3.296   2.847
    1STR    H22 4300   5.794   3.226   2.691
    1STR    H23 4301   5.861   3.242   3.024
    1STR    H27 4302   5.845   2.920   3.128
    1STR    H28 4303   5.117   3.356   2.719
    1STR    H29 4304   5.068   3.116   2.807
    1STR    H2A 4305   5.193   2.972   3.093
    1STR    H2B 4306   5.102   2.956   2.947
    1STR    H2C 4307   5.023   3.008   3.090
    1STR   BCK1 4308   5.133   3.124   4.768
    1STR    O03 4309   5.161   3.095   4.883
    1STR    N04 4310   5.081   3.241   4.733
    1STR    C05 4311   5.109   3.352   4.809
    1STR    C06 4312   5.241   3.383   4.823
    1STR    C07 4313   5.293   3.468   4.919
    1STR    N08 4314   5.417   3.438   4.972
    1STR    C09 4315   5.420   3.327   5.046
    1STR    O0A 4316   5.477   3.319   5.153
    1STR    O0B 4317   5.364   3.219   4.983
    1STR    C0C 4318   5.448   3.126   4.917
    1STR    C0D 4319   5.443   2.999   5.001
    1STR    C0E 4320   5.433   3.091   4.761
    1STR    O0F 4321   5.382   3.175   4.656
    1STR    C0G 4322   5.464   3.269   4.590
    1STR    C0H 4323   5.393   3.339   4.480
    1STR    C0I 4324   5.518   3.381   4.678
    1STR    O0J 4325   5.585   3.323   4.784
    1STR    C0K 4326   5.700   3.249   4.748
    1STR    C0M 4327   5.725   3.116   4.816
    1STR    C0N 4328   5.763   3.246   4.608
    1STR    O0O 4329   5.741   3.354   4.522
    1STR    C0P 4330   5.793   3.477   4.535
    1STR    O0Q 4331   5.742   3.568   4.473
    1STR    N0R 4332   5.904   3.497   4.604
    1STR    C0S 4333   5.916   3.480   4.740
    1STR    C0T 4334   5.860   3.575   4.826
    1STR    C0U 4335   5.861   3.553   4.964
    1STR    C0V 4336   5.909   3.432   5.016
    1STR    C0W 4337   5.904   3.405   5.164
    1STR    C0X 4338   5.958   3.332   4.930
    1STR    N0Y 4339   5.976   3.206   4.985
    1STR   BCK2 4340   5.987   3.089   4.923
    1STR    O10 4341   6.012   3.077   4.805
    1STR    C13 4342   5.975   3.363   4.793
    1STR    C14 4343   5.208   3.558   4.978
    1STR    C15 4344   5.072   3.539   4.955
    1STR    C16 4345   5.020   3.425   4.887
    1STR    C17 4346   4.873   3.397   4.876
    1STR    H1B 4347   5.042   3.247   4.638
    1STR    H1C 4348   5.305   3.317   4.777
    1STR    H1D 4349   5.483   3.420   4.896
    1STR    H1E 4350   5.543   3.168   4.943
    1STR    H1F 4351   5.347   2.950   4.986
    1STR    H1G 4352   5.522   2.930   4.971
    1STR    H1H 4353   5.454   3.024   5.106
    1STR    H1I 4354   5.366   3.010   4.769
    1STR    H1J 4355   5.510   3.036   4.709
    1STR    H1K 4356   5.537   3.208   4.539
    1STR    H1M 4357   5.290   3.356   4.511
    1STR    H1N 4358   5.402   3.280   4.391
    1STR    H1O 4359   5.440   3.434   4.454
    1STR    H1P 4360   5.575   3.456   4.628
    1STR    H1Q 4361   5.442   3.449   4.711
    1STR    H1R 4362   5.751   3.317   4.811
    1STR    H1S 4363   5.799   3.061   4.760
    1STR    H1T 4364   5.658   3.034   4.825
    1STR    H1U 4365   5.748   3.139   4.920
    1STR    H1V 4366   5.729   3.157   4.558
    1STR    H1W 4367   5.867   3.231   4.615
    1STR    H1X 4368   5.949   3.580   4.568
    1STR    H1Y 4369   5.814   3.665   4.786
    1STR    H1Z 4370   5.819   3.628   5.030
    1STR    H20 4371   5.825   3.333   5.185
    1STR    H21 4372   6.000   3.366   5.197
    1STR    H22 4373   5.884   3.498   5.217
    1STR    H23 4374   5.956   3.202   5.083
    1STR    H27 4375   6.024   3.295   4.727
    1STR    H28 4376   5.245   3.631   5.048
    1STR    H29 4377   5.007   3.615   4.993
    1STR    H2A 4378   4.846   3.396   4.772
    1STR    H2B 4379   4.813   3.476   4.916
    1STR    H2C 4380   4.840   3.308   4.926
    1STR   BCK1 4381   5.195   4.730   6.324
    1STR    O03 4382   5.144   4.831   6.279
    1STR    N04 4383   5.187   4.614   6.257
    1STR    C05 4384   5.223   4.481   6.273
    1STR    C06 4385   5.224   4.419   0.060
    1STR    C07 4386   5.264   4.284   0.068
    1STR    N08 4387   5.354   4.244   0.165
    1STR    C09 4388   5.485   4.254   0.138
    1STR    O0A 4389   5.573   4.237   0.222
    1STR    O0B 4390   5.508   4.300   0.011
    1STR    C0C 4391   5.575   4.421   6.326
    1STR    C0D 4392   5.598   4.436   6.176
    1STR    C0E 4393   5.512   4.549   0.037
    1STR    O0F 4394   5.447   4.509   0.156
    1STR    C0G 4395   5.459   4.569   0.280
    1STR    C0H 4396   5.422   4.475   0.393
    1STR    C0I 4397   5.583   4.639   0.295
    1STR    O0J 4398   5.551   4.775   0.264
    1STR    C0K 4399   5.633   4.881   0.300
    1STR    C0M 4400   5.576   5.002   0.230
    1STR    C0N 4401   5.653   4.894   0.452
    1STR    O0O 4402   5.693   4.767   0.501
    1STR    C0P 4403   5.805   4.741   0.562
    1STR    O0Q 4404   5.849   4.811   0.649
    1STR    N0R 4405   5.868   4.631   0.517
    1STR    C0S 4406   5.860   4.585   0.387
    1STR    C0T 4407   5.841   4.451   0.350
    1STR    C0U 4408   5.834   4.422   0.213
    1STR    C0V 4409   5.859   4.519   0.113
    1STR    C0W 4410   5.867   4.489   6.306
    1STR    C0X 4411   5.871   4.652   0.150
    1STR    N0Y 4412   5.868   4.745   0.047
    1STR   BCK2 4413   5.885   4.875   0.038
    1STR    O10 4414   5.826   4.930   6.286
    1STR    C13 4415   5.867   4.681   0.286
    1STR    C14 4416   5.269   4.209   6.291
    1STR    C15 4417   5.252   4.264   6.165
    1STR    C16 4418   5.244   4.402   6.157
    1STR    C17 4419   5.285   4.457   6.024
    1STR    H1B 4420   5.122   4.615   6.180
    1STR    H1C 4421   5.218   4.480   0.147
    1STR    H1D 4422   5.328   4.230   0.261
    1STR    H1E 4423   5.660   4.404   0.045
    1STR    H1F 4424   5.501   4.430   6.132
    1STR    H1G 4425   5.634   4.534   6.146
    1STR    H1H 4426   5.659   4.356   6.136
    1STR    H1I 4427   5.440   4.581   6.303
    1STR    H1J 4428   5.580   4.634   0.043
    1STR    H1K 4429   5.392   4.648   0.285
    1STR    H1M 4430   5.322   4.435   0.375
    1STR    H1N 4431   5.421   4.529   0.487
    1STR    H1O 4432   5.493   4.393   0.399
    1STR    H1P 4433   5.612   4.609   0.394
    1STR    H1Q 4434   5.651   4.592   0.229
    1STR    H1R 4435   5.722   4.867   0.246
    1STR    H1S 4436   5.633   5.091   0.254
    1STR    H1T 4437   5.472   5.019   0.256
    1STR    H1U 4438   5.581   4.985   0.122
    1STR    H1V 4439   5.557   4.915   0.499
    1STR    H1W 4440   5.724   4.972   0.477
    1STR    H1X 4441   5.946   4.597   0.572
    1STR    H1Y 4442   5.827   4.373   0.423
    1STR    H1Z 4443   5.804   4.323   0.185
    1STR    H20 4444   5.807   4.555   6.246
    1STR    H21 4445   5.967   4.510   6.276
    1STR    H22 4446   5.840   4.387   6.282
    1STR    H23 4447   5.835   4.706   6.301
    1STR    H27 4448   5.877   4.781   0.320
    1STR    H28 4449   5.321   4.116   6.292
    1STR    H29 4450   5.271   4.203   6.078
    1STR    H2A 4451   5.209   4.438   5.949
    1STR    H2B 4452   5.370   4.403   5.984
    1STR    H2C 4453   5.315   4.560   6.039
    1STR   BCK1 4454   5.197   4.895   1.645
    1STR    O03 4455   5.220   4.953   1.751
    1STR    N04 4456   5.123   4.946   1.548
    1STR    C05 4457   5.133   5.073   1.494
    1STR    C06 4458   5.235   5.158   1.531
    1STR    C07 4459   5.280   5.254   1.441
    1STR    N08 4460   5.411   5.289   1.458
    1STR    C09 4461   5.497   5.229   1.377
    1STR    O0A 4462   5.490   5.232   1.255
    1STR    O0B 4463   5.594   5.165   1.442
    1STR    C0C 4464   5.588   5.099   1.570
    1STR    C0D 4465   5.570   5.193   1.689
    1STR    C0E 4466   5.495   4.979   1.582
    1STR    O0F 4467   5.418   4.960   1.465
    1STR    C0G 4468   5.431   4.831   1.410
    1STR    C0H 4469   5.344   4.809   1.292
    1STR    C0I 4470   5.571   4.809   1.378
    1STR    O0J 4471   5.626   4.726   1.481
    1STR    C0K 4472   5.611   4.584   1.489
    1STR    C0M 4473   5.566   4.567   1.632
    1STR    C0N 4474   5.524   4.512   1.385
    1STR    O0O 4475   5.565   4.559   1.259
    1STR    C0P 4476   5.644   4.491   1.179
    1STR    O0Q 4477   5.640   4.370   1.166
    1STR    N0R 4478   5.730   4.568   1.113
    1STR    C0S 4479   5.773   4.694   1.152
    1STR    C0T 4480   5.770   4.802   1.063
    1STR    C0U 4481   5.806   4.930   1.108
    1STR    C0V 4482   5.845   4.951   1.242
    1STR    C0W 4483   5.867   5.091   1.290
    1STR    C0X 4484   5.854   4.843   1.331
    1STR    N0Y 4485   5.875   4.868   1.466
    1STR   BCK2 4486   5.878   4.787   1.571
    1STR    O10 4487   5.881   4.665   1.568
    1STR    C13 4488   5.821   4.715   1.282
    1STR    C14 4489   5.206   5.286   1.326
    1STR    C15 4490   5.086   5.219   1.303
    1STR    C16 4491   5.052   5.111   1.386
    1STR    C17 4492   4.923   5.044   1.365
    1STR    H1B 4493   5.068   4.877   1.496
    1STR    H1C 4494   5.294   5.134   1.617
    1STR    H1D 4495   5.441   5.286   1.554
    1STR    H1E 4496   5.686   5.054   1.573
    1STR    H1F 4497   5.466   5.218   1.709
    1STR    H1G 4498   5.607   5.143   1.778
    1STR    H1H 4499   5.623   5.287   1.675
    1STR    H1I 4500   5.431   4.991   1.668
    1STR    H1J 4501   5.552   4.892   1.615
    1STR    H1K 4502   5.408   4.755   1.481
    1STR    H1M 4503   5.319   4.905   1.248
    1STR    H1N 4504   5.259   4.755   1.332
    1STR    H1O 4505   5.388   4.745   1.214
    1STR    H1P 4506   5.583   4.778   1.276
    1STR    H1Q 4507   5.621   4.905   1.379
    1STR    H1R 4508   5.708   4.536   1.484
    1STR    H1S 4509   5.563   4.463   1.662
    1STR    H1T 4510   5.470   4.614   1.641
    1STR    H1U 4511   5.632   4.622   1.700
    1STR    H1V 4512   5.419   4.534   1.398
    1STR    H1W 4513   5.538   4.404   1.395
    1STR    H1X 4514   5.781   4.527   1.037
    1STR    H1Y 4515   5.738   4.788   0.961
    1STR    H1Z 4516   5.799   5.014   1.041
    1STR    H20 4517   5.776   5.128   1.331
    1STR    H21 4518   5.944   5.093   1.366
    1STR    H22 4519   5.895   5.156   1.208
    1STR    H23 4520   5.904   4.961   1.491
    1STR    H27 4521   5.826   4.630   1.348
    1STR    H28 4522   5.244   5.358   1.255
    1STR    H29 4523   5.022   5.245   1.220
    1STR    H2A 4524   4.927   4.949   1.415
    1STR    H2B 4525   4.896   5.036   1.261
    1STR    H2C 4526   4.848   5.101   1.415
    1STR   BCK1 4527   5.301   4.751   3.105
    1STR    O03 4528   5.399   4.686   3.131
    1STR    N04 4529   5.237   4.836   3.185
    1STR    C05 4530   5.245   4.854   3.321
    1STR    C06 4531   5.283   4.745   3.399
    1STR    C07 4532   5.306   4.758   3.536
    1STR    N08 4533   5.383   4.659   3.595
    1STR    C09 4534   5.361   4.531   3.566
    1STR    O0A 4535   5.254   4.474   3.581
    1STR    O0B 4536   5.461   4.465   3.509
    1STR    C0C 4537   5.584   4.517   3.464
    1STR    C0D 4538   5.637   4.395   3.389
    1STR    C0E 4539   5.578   4.628   3.361
    1STR    O0F 4540   5.550   4.756   3.417
    1STR    C0G 4541   5.561   4.863   3.324
    1STR    C0H 4542   5.506   4.999   3.371
    1STR    C0I 4543   5.704   4.875   3.305
    1STR    O0J 4544   5.764   4.835   3.185
    1STR    C0K 4545   5.733   4.913   3.070
    1STR    C0M 4546   5.627   4.835   2.997
    1STR    C0N 4547   5.695   5.062   3.080
    1STR    O0O 4548   5.777   5.128   3.172
    1STR    C0P 4549   5.750   5.249   3.216
    1STR    O0Q 4550   5.689   5.332   3.150
    1STR    N0R 4551   5.786   5.272   3.344
    1STR    C0S 4552   5.833   5.182   3.440
    1STR    C0T 4553   5.796   5.191   3.574
    1STR    C0U 4554   5.832   5.086   3.663
    1STR    C0V 4555   5.899   4.970   3.617
    1STR    C0W 4556   5.930   4.864   3.718
    1STR    C0X 4557   5.933   4.959   3.481
    1STR    N0Y 4558   5.976   4.851   3.402
    1STR   BCK2 4559   5.961   4.718   3.400
    1STR    O10 4560   5.986   4.657   3.297
    1STR    C13 4561   5.908   5.072   3.403
    1STR    C14 4562   5.282   4.882   3.599
    1STR    C15 4563   5.228   4.989   3.525
    1STR    C16 4564   5.211   4.976   3.385
    1STR    C17 4565   5.157   5.092   3.308
    1STR    H1B 4566   5.157   4.883   3.144
    1STR    H1C 4567   5.302   4.652   3.350
    1STR    H1D 4568   5.478   4.689   3.579
    1STR    H1E 4569   5.642   4.547   3.550
    1STR    H1F 4570   5.564   4.362   3.315
    1STR    H1G 4571   5.728   4.417   3.335
    1STR    H1H 4572   5.653   4.313   3.459
    1STR    H1I 4573   5.502   4.593   3.294
    1STR    H1J 4574   5.669   4.630   3.301
    1STR    H1K 4575   5.516   4.844   3.230
    1STR    H1M 4576   5.476   4.995   3.474
    1STR    H1N 4577   5.427   5.026   3.303
    1STR    H1O 4578   5.569   5.086   3.360
    1STR    H1P 4579   5.726   4.975   3.323
    1STR    H1Q 4580   5.745   4.824   3.390
    1STR    H1R 4581   5.826   4.909   3.015
    1STR    H1S 4582   5.632   4.858   2.893
    1STR    H1T 4583   5.526   4.859   3.026
    1STR    H1U 4584   5.643   4.728   3.013
    1STR    H1V 4585   5.590   5.073   3.111
    1STR    H1W 4586   5.707   5.111   2.984
    1STR    H1X 4587   5.761   5.365   3.373
    1STR    H1Y 4588   5.738   5.274   3.610
    1STR    H1Z 4589   5.804   5.094   3.766
    1STR    H20 4590   5.840   4.805   3.737
    1STR    H21 4591   6.008   4.799   3.682
    1STR    H22 4592   5.964   4.910   3.811
    1STR    H23 4593   6.006   4.880   3.309
    1STR    H27 4594   5.938   5.067   3.303
    1STR    H28 4595   5.303   4.894   3.704
    1STR    H29 4596   5.203   5.081   3.574
    1STR    H2A 4597   5.204   5.101   3.210
    1STR    H2B 4598   5.171   5.185   3.363
    1STR    H2C 4599   5.051   5.074   3.299
    1STR   BCK1 4600   5.251   4.926   4.815
    1STR    O03 4601   5.297   5.029   4.767
    1STR    N04 4602   5.203   4.822   4.743
    1STR    C05 4603   5.191   4.808   4.604
    1STR    C06 4604   5.216   4.917   4.519
    1STR    C07 4605   5.265   4.892   4.390
    1STR    N08 4606   5.307   4.998   4.313
    1STR    C09 4607   5.417   5.070   4.331
    1STR    O0A 4608   5.431   5.174   4.268
    1STR    O0B 4609   5.511   5.027   4.417
    1STR    C0C 4610   5.544   4.891   4.439
    1STR    C0D 4611   5.684   4.875   4.393
    1STR    C0E 4612   5.509   4.852   4.582
    1STR    O0F 4613   5.459   4.717   4.591
    1STR    C0G 4614   5.452   4.677   4.728
    1STR    C0H 4615   5.370   4.558   4.769
    1STR    C0I 4616   5.583   4.640   4.763
    1STR    O0J 4617   5.620   4.705   4.879
    1STR    C0K 4618   5.599   4.644   5.003
    1STR    C0M 4619   5.557   4.746   5.105
    1STR    C0N 4620   5.594   4.494   5.041
    1STR    O0O 4621   5.588   4.413   4.927
    1STR    C0P 4622   5.643   4.297   4.919
    1STR    O0Q 4623   5.631   4.207   5.002
    1STR    N0R 4624   5.719   4.287   4.810
    1STR    C0S 4625   5.781   4.396   4.752
    1STR    C0T 4626   5.764   4.424   4.615
    1STR    C0U 4627   5.806   4.548   4.565
    1STR    C0V 4628   5.857   4.646   4.653
    1STR    C0W 4629   5.864   4.791   4.612
    1STR    C0X 4630   5.878   4.615   4.788
    1STR    N0Y 4631   5.922   4.719   4.867
    1STR   BCK2 4632   5.940   4.745   4.994
    1STR    O10 4633   6.008   4.843   5.008
    1STR    C13 4634   5.846   4.488   4.836
    1STR    C14 4635   5.279   4.761   4.341
    1STR    C15 4636   5.234   4.654   4.418
    1STR    C16 4637   5.183   4.680   4.546
    1STR    C17 4638   5.126   4.561   4.614
    1STR    H1B 4639   5.176   4.741   4.796
    1STR    H1C 4640   5.212   5.018   4.555
    1STR    H1D 4641   5.238   5.041   4.254
    1STR    H1E 4642   5.498   4.823   4.370
    1STR    H1F 4643   5.745   4.946   4.448
    1STR    H1G 4644   5.713   4.771   4.408
    1STR    H1H 4645   5.691   4.898   4.287
    1STR    H1I 4646   5.433   4.919   4.618
    1STR    H1J 4647   5.583   4.880   4.655
    1STR    H1K 4648   5.431   4.761   4.790
    1STR    H1M 4649   5.360   4.485   4.689
    1STR    H1N 4650   5.283   4.597   4.812
    1STR    H1O 4651   5.404   4.504   4.856
    1STR    H1P 4652   5.595   4.536   4.749
    1STR    H1Q 4653   5.640   4.682   4.686
    1STR    H1R 4654   5.703   4.656   5.003
    1STR    H1S 4655   5.623   4.747   5.191
    1STR    H1T 4656   5.456   4.725   5.138
    1STR    H1U 4657   5.562   4.844   5.060
    1STR    H1V 4658   5.508   4.472   5.103
    1STR    H1W 4659   5.683   4.466   5.098
    1STR    H1X 4660   5.757   4.195   4.789
    1STR    H1Y 4661   5.715   4.353   4.551
    1STR    H1Z 4662   5.790   4.572   4.461
    1STR    H20 4663   5.771   4.839   4.633
    1STR    H21 4664   5.927   4.849   4.672
    1STR    H22 4665   5.897   4.807   4.512
    1STR    H23 4666   5.959   4.797   4.816
    1STR    H27 4667   5.865   4.463   4.939
    1STR    H28 4668   5.318   4.744   4.242
    1STR    H29 4669   5.237   4.554   4.380
    1STR    H2A 4670   5.122   4.571   4.719
    1STR    H2B 4671   5.183   4.473   4.591
    1STR    H2C 4672   5.024   4.544   4.588
    1STR   BCK1 4673   0.178   0.481   0.138
    1STR    O03 4674   0.294   0.491   0.176
    1STR    N04 4675   0.083   0.471   0.230
    1STR    C05 4676   6.285   0.477   0.241
    1STR    C06 4677   6.204   0.458   0.132
    1STR    C07 4678   6.067   0.480   0.139
    1STR    N08 4679   6.004   0.500   0.022
    1STR    C09 4680   5.997   0.617   6.303
    1STR    O0A 4681   5.948   0.627   6.193
    1STR    O0B 4682   6.050   0.714   0.039
    1STR    C0C 4683   6.171   0.780   0.004
    1STR    C0D 4684   6.238   0.813   0.137
    1STR    C0E 4685   6.265   0.705   6.252
    1STR    O0F 4686   6.220   0.686   6.117
    1STR    C0G 4687   6.318   0.637   6.024
    1STR    C0H 4688   6.245   0.559   5.915
    1STR    C0I 4689   0.076   0.731   5.959
    1STR    O0J 4690   0.098   0.840   6.041
    1STR    C0K 4691   6.327   0.926   6.054
    1STR    C0M 4692   0.063   1.034   6.121
    1STR    C0N 4693   6.248   0.954   5.926
    1STR    O0O 4694   6.150   0.860   5.875
    1STR    C0P 4695   6.030   0.800   5.920
    1STR    O0Q 4696   5.983   0.708   5.853
    1STR    N0R 4697   5.956   0.829   6.029
    1STR    C0S 4698   5.950   0.924   6.126
    1STR    C0T 4699   5.897   0.908   6.255
    1STR    C0U 4700   5.946   0.989   0.019
    1STR    C0V 4701   6.041   1.088   6.328
    1STR    C0W 4702   6.114   1.152   0.103
    1STR    C0X 4703   6.060   1.124   6.192
    1STR    N0Y 4704   6.136   1.228   6.148
    1STR   BCK2 4705   6.178   1.260   6.025
    1STR    O10 4706   6.298   1.274   6.010
    1STR    C13 4707   6.009   1.041   6.095
    1STR    C14 4708   6.002   0.501   0.260
    1STR    C15 4709   6.081   0.501   0.376
    1STR    C16 4710   6.221   0.493   0.366
    1STR    C17 4711   6.301   0.499   0.492
    1STR    H1B 4712   0.126   0.443   0.319
    1STR    H1C 4713   6.248   0.433   0.040
    1STR    H1D 4714   5.993   0.421   6.299
    1STR    H1E 4715   6.151   0.872   6.295
    1STR    H1F 4716   6.255   0.724   0.196
    1STR    H1G 4717   6.334   0.863   0.124
    1STR    H1H 4718   6.173   0.877   0.197
    1STR    H1I 4719   6.272   0.612   6.299
    1STR    H1J 4720   0.024   0.751   6.255
    1STR    H1K 4721   0.049   0.577   6.078
    1STR    H1M 4722   6.158   0.506   5.955
    1STR    H1N 4723   6.312   0.490   5.864
    1STR    H1O 4724   6.208   0.626   5.838
    1STR    H1P 4725   0.172   0.682   5.946
    1STR    H1Q 4726   0.045   0.761   5.859
    1STR    H1R 4727   6.251   0.904   6.125
    1STR    H1S 4728   6.335   1.101   6.166
    1STR    H1T 4729   0.133   1.087   6.056
    1STR    H1U 4730   0.115   0.989   6.205
    1STR    H1V 4731   6.321   0.970   5.848
    1STR    H1W 4732   6.208   1.049   5.933
    1STR    H1X 4733   5.910   0.742   6.057
    1STR    H1Y 4734   5.836   0.823   6.282
    1STR    H1Z 4735   5.924   0.966   0.122
    1STR    H20 4736   6.203   1.094   0.124
    1STR    H21 4737   6.135   1.256   0.082
    1STR    H22 4738   6.058   1.148   0.196
    1STR    H23 4739   6.191   1.283   6.214
    1STR    H27 4740   6.023   1.051   5.991
    1STR    H28 4741   5.896   0.520   0.262
    1STR    H29 4742   6.033   0.513   0.472
    1STR    H2A 4743   6.249   0.559   0.565
    1STR    H2B 4744   0.060   0.539   0.476
    1STR    H2C 4745   6.308   0.397   0.528
    1STR   BCK1 4746   6.322   0.594   1.383
    1STR    O03 4747   0.071   0.677   1.365
    1STR    N04 4748   6.312   0.511   1.488
    1STR    C05 4749   0.053   0.490   1.599
    1STR    C06 4750   0.187   0.528   1.600
    1STR    C07 4751   0.273   0.489   1.702
    1STR    N08 4752   0.398   0.545   1.704
    1STR    C09 4753   0.452   0.602   1.812
    1STR    O0A 4754   0.467   0.544   1.919
    1STR    O0B 4755   0.487   0.728   1.790
    1STR    C0C 4756   0.404   0.820   1.717
    1STR    C0D 4757   0.417   0.811   1.565
    1STR    C0E 4758   0.257   0.820   1.758
    1STR    O0F 4759   0.240   0.781   1.893
    1STR    C0G 4760   0.119   0.711   1.917
    1STR    C0H 4761   0.135   0.631   2.044
    1STR    C0I 4762   0.003   0.805   1.934
    1STR    O0J 4763   6.326   0.866   1.811
    1STR    C0K 4764   6.218   0.831   1.730
    1STR    C0M 4765   6.255   0.739   1.630
    1STR    C0N 4766   6.074   0.825   1.776
    1STR    O0O 4767   6.062   0.873   1.907
    1STR    C0P 4768   6.012   0.992   1.929
    1STR    O0Q 4769   5.923   1.007   2.012
    1STR    N0R 4770   6.062   1.097   1.864
    1STR    C0S 4771   6.170   1.112   1.779
    1STR    C0T 4772   6.304   1.122   1.822
    1STR    C0U 4773   0.071   1.133   1.735
    1STR    C0V 4774   0.046   1.117   1.599
    1STR    C0W 4775   0.161   1.113   1.506
    1STR    C0X 4776   6.254   1.099   1.553
    1STR    N0Y 4777   6.235   1.053   1.425
    1STR   BCK2 4778   6.137   0.976   1.381
    1STR    O10 4779   6.042   0.935   1.448
    1STR    C13 4780   6.145   1.115   1.641
    1STR    C14 4781   0.224   0.414   1.808
    1STR    C15 4782   0.086   0.388   1.817
    1STR    C16 4783   0.000   0.427   1.713
    1STR    C17 4784   6.191   0.416   1.735
    1STR    H1B 4785   6.238   0.441   1.478
    1STR    H1C 4786   0.224   0.590   1.521
    1STR    H1D 4787   0.434   0.586   1.618
    1STR    H1E 4788   0.440   0.915   1.751
    1STR    H1F 4789   0.388   0.716   1.521
    1STR    H1G 4790   0.353   0.884   1.517
    1STR    H1H 4791   0.521   0.827   1.538
    1STR    H1I 4792   0.203   0.756   1.690
    1STR    H1J 4793   0.214   0.918   1.740
    1STR    H1K 4794   0.095   0.645   1.835
    1STR    H1M 4795   0.221   0.565   2.036
    1STR    H1N 4796   0.045   0.572   2.060
    1STR    H1O 4797   0.150   0.699   2.127
    1STR    H1P 4798   6.254   0.753   1.968
    1STR    H1Q 4799   0.029   0.884   2.005
    1STR    H1R 4800   6.222   0.903   1.656
    1STR    H1S 4801   6.188   0.745   1.546
    1STR    H1T 4802   6.244   0.650   1.686
    1STR    H1U 4803   0.016   0.755   1.595
    1STR    H1V 4804   6.038   0.723   1.774
    1STR    H1W 4805   6.011   0.882   1.707
    1STR    H1X 4806   6.029   1.183   1.902
    1STR    H1Y 4807   6.336   1.101   1.920
    1STR    H1Z 4808   0.172   1.140   1.774
    1STR    H20 4809   0.179   1.012   1.472
    1STR    H21 4810   0.143   1.178   1.422
    1STR    H22 4811   0.245   1.154   1.560
    1STR    H23 4812   6.309   1.074   1.358
    1STR    H27 4813   6.043   1.112   1.607
    1STR    H28 4814   0.290   0.390   1.889
    1STR    H29 4815   0.046   0.346   1.907
    1STR    H2A 4816   6.130   0.486   1.680
    1STR    H2B 4817   6.169   0.427   1.841
    1STR    H2C 4818   6.158   0.319   1.706
    1STR   BCK1 4819   6.230   0.432   3.057
    1STR    O03 4820   6.175   0.513   2.984
    1STR    N04 4821   6.337   0.364   3.019
    1STR    C05 4822   0.073   0.425   2.922
    1STR    C06 4823   0.132   0.543   2.961
    1STR    C07 4824   0.116   0.648   2.872
    1STR    N08 4825   0.040   0.750   2.926
    1STR    C09 4826   6.252   0.764   2.887
    1STR    O0A 4827   6.216   0.762   2.770
    1STR    O0B 4828   6.164   0.781   2.986
    1STR    C0C 4829   6.191   0.822   3.119
    1STR    C0D 4830   6.058   0.886   3.151
    1STR    C0E 4831   6.214   0.714   3.227
    1STR    O0F 4832   6.334   0.639   3.222
    1STR    C0G 4833   0.100   0.678   3.309
    1STR    C0H 4834   0.156   0.558   3.378
    1STR    C0I 4835   0.214   0.734   3.228
    1STR    O0J 4836   0.151   0.820   3.139
    1STR    C0K 4837   0.178   0.954   3.158
    1STR    C0M 4838   0.123   0.992   3.295
    1STR    C0N 4839   0.326   0.976   3.128
    1STR    O0O 4840   0.375   0.868   3.046
    1STR    C0P 4841   0.391   0.892   2.918
    1STR    O0Q 4842   0.497   0.935   2.874
    1STR    N0R 4843   0.275   0.883   2.851
    1STR    C0S 4844   0.224   0.968   2.754
    1STR    C0T 4845   0.318   1.054   2.697
    1STR    C0U 4846   0.332   1.179   2.758
    1STR    C0V 4847   0.241   1.216   2.858
    1STR    C0W 4848   0.287   1.318   2.956
    1STR    C0X 4849   0.117   1.148   2.870
    1STR    N0Y 4850   0.019   1.188   2.960
    1STR   BCK2 4851   6.242   1.133   2.997
    1STR    O10 4852   6.199   1.166   3.106
    1STR    C13 4853   0.105   1.026   2.803
    1STR    C14 4854   0.120   0.625   2.733
    1STR    C15 4855   0.090   0.497   2.689
    1STR    C16 4856   0.050   0.402   2.785
    1STR    C17 4857   6.318   0.280   2.743
    1STR    H1B 4858   0.023   0.280   3.067
    1STR    H1C 4859   0.130   0.557   3.067
    1STR    H1D 4860   0.055   0.763   3.027
    1STR    H1E 4861   6.267   0.899   3.118
    1STR    H1F 4862   5.981   0.810   3.165
    1STR    H1G 4863   6.064   0.953   3.236
    1STR    H1H 4864   6.028   0.940   3.064
    1STR    H1I 4865   6.133   0.642   3.215
    1STR    H1J 4866   6.200   0.758   3.325
    1STR    H1K 4867   0.067   0.751   3.383
    1STR    H1M 4868   0.154   0.471   3.311
    1STR    H1N 4869   0.099   0.542   3.467
    1STR    H1O 4870   0.258   0.575   3.411
    1STR    H1P 4871   0.288   0.781   3.293
    1STR    H1Q 4872   0.268   0.659   3.171
    1STR    H1R 4873   0.121   1.005   3.082
    1STR    H1S 4874   0.126   1.097   3.310
    1STR    H1T 4875   0.179   0.951   3.378
    1STR    H1U 4876   0.018   0.966   3.305
    1STR    H1V 4877   0.384   0.978   3.219
    1STR    H1W 4878   0.339   1.071   3.078
    1STR    H1X 4879   0.200   0.830   2.898
    1STR    H1Y 4880   0.402   1.012   2.645
    1STR    H1Z 4881   0.423   1.235   2.743
    1STR    H20 4882   0.201   1.354   3.008
    1STR    H21 4883   0.356   1.274   3.026
    1STR    H22 4884   0.336   1.400   2.905
    1STR    H23 4885   0.029   1.282   3.000
    1STR    H27 4886   0.017   0.969   2.822
    1STR    H28 4887   0.118   0.708   2.664
    1STR    H29 4888   0.076   0.479   2.584
    1STR    H2A 4889   6.324   0.214   2.827
    1STR    H2B 4890   0.025   0.233   2.659
    1STR    H2C 4891   6.215   0.306   2.722
    1STR   BCK1 4892   0.235   0.424   4.756
    1STR    O03 4893   0.331   0.469   4.815
    1STR    N04 4894   0.115   0.399   4.808
    1STR    C05 4895   0.066   0.423   4.936
    1STR    C06 4896   0.131   0.502   5.030
    1STR    C07 4897   0.060   0.549   5.143
    1STR    N08 4898   0.119   0.645   5.219
    1STR    C09 4899   0.086   0.762   5.168
    1STR    O0A 4900   6.314   0.812   5.177
    1STR    O0B 4901   0.184   0.793   5.086
    1STR    C0C 4902   0.154   0.853   4.962
    1STR    C0D 4903   0.267   0.944   4.935
    1STR    C0E 4904   0.137   0.759   4.844
    1STR    O0F 4905   0.026   0.678   4.870
    1STR    C0G 4906   6.271   0.677   4.768
    1STR    C0H 4907   6.175   0.564   4.774
    1STR    C0I 4908   6.193   0.797   4.796
    1STR    O0J 4909   6.213   0.875   4.683
    1STR    C0K 4910   6.150   0.846   4.561
    1STR    C0M 4911   6.274   0.837   4.472
    1STR    C0N 4912   6.031   0.750   4.543
    1STR    O0O 4913   5.952   0.750   4.661
    1STR    C0P 4914   5.832   0.805   4.671
    1STR    O0Q 4915   5.750   0.813   4.580
    1STR    N0R 4916   5.812   0.856   4.793
    1STR    C0S 4917   5.910   0.930   4.858
    1STR    C0T 4918   5.941   0.922   4.995
    1STR    C0U 4919   6.055   0.990   5.043
    1STR    C0V 4920   6.138   1.065   4.956
    1STR    C0W 4921   6.269   1.109   5.013
    1STR    C0X 4922   6.102   1.085   4.821
    1STR    N0Y 4923   6.184   1.137   4.720
    1STR   BCK2 4924   6.142   1.175   4.599
    1STR    O10 4925   6.027   1.203   4.581
    1STR    C13 4926   5.987   1.016   4.778
    1STR    C14 4927   6.268   0.508   5.169
    1STR    C15 4928   6.208   0.418   5.081
    1STR    C16 4929   6.277   0.376   4.967
    1STR    C17 4930   6.207   0.281   4.878
    1STR    H1B 4931   0.041   0.381   4.744
    1STR    H1C 4932   0.230   0.541   5.010
    1STR    H1D 4933   0.219   0.637   5.214
    1STR    H1E 4934   0.064   0.910   4.970
    1STR    H1F 4935   0.359   0.891   4.914
    1STR    H1G 4936   0.235   1.001   4.849
    1STR    H1H 4937   0.281   1.008   5.022
    1STR    H1I 4938   0.225   0.698   4.829
    1STR    H1J 4939   0.123   0.820   4.754
    1STR    H1K 4940   6.323   0.673   4.673
    1STR    H1M 4941   6.134   0.553   4.873
    1STR    H1N 4942   6.232   0.482   4.738
    1STR    H1O 4943   6.089   0.571   4.710
    1STR    H1P 4944   6.093   0.775   4.828
    1STR    H1Q 4945   6.230   0.850   4.881
    1STR    H1R 4946   6.095   0.936   4.541
    1STR    H1S 4947   6.248   0.856   4.368
    1STR    H1T 4948   6.325   0.741   4.482
    1STR    H1U 4949   0.010   0.909   4.501
    1STR    H1V 4950   6.067   0.651   4.524
    1STR    H1W 4951   5.972   0.780   4.456
    1STR    H1X 4952   5.716   0.867   4.821
    1STR    H1Y 4953   5.884   0.859   5.060
    1STR    H1Z 4954   6.085   0.978   5.145
    1STR    H20 4955   0.003   1.124   4.934
    1STR    H21 4956   6.258   1.196   5.075
    1STR    H22 4957   6.307   1.039   5.086
    1STR    H23 4958   6.285   1.145   4.731
    1STR    H27 4959   5.958   1.018   4.675
    1STR    H28 4960   6.213   0.549   5.252
    1STR    H29 4961   6.106   0.387   5.098
    1STR    H2A 4962   6.129   0.333   4.826
    1STR    H2B 4963   6.159   0.211   4.943
    1STR    H2C 4964   6.270   0.232   4.807
    1STR   BCK1 4965   6.207   2.142   6.160
    1STR    O03 4966   6.277   2.205   6.084
    1STR    N04 4967   6.256   2.067   6.259
    1STR    C05 4968   0.048   2.047   6.295
    1STR    C06 4969   0.161   2.099   6.227
    1STR    C07 4970   0.286   2.099   6.292
    1STR    N08 4971   0.410   2.138   6.243
    1STR    C09 4972   0.449   2.190   6.128
    1STR    O0A 4973   0.567   2.206   6.102
    1STR    O0B 4974   0.351   2.236   6.059
    1STR    C0C 4975   0.325   2.373   6.074
    1STR    C0D 4976   0.214   2.401   5.978
    1STR    C0E 4977   0.269   2.410   6.209
    1STR    O0F 4978   0.352   2.387   6.320
    1STR    C0G 4979   0.278   2.358   0.098
    1STR    C0H 4980   0.378   2.331   0.209
    1STR    C0I 4981   0.202   2.477   0.135
    1STR    O0J 4982   0.097   2.507   0.045
    1STR    C0K 4983   6.305   2.458   0.060
    1STR    C0M 4984   6.260   2.431   6.262
    1STR    C0N 4985   6.265   2.367   0.177
    1STR    O0O 4986   6.300   2.425   0.303
    1STR    C0P 4987   6.259   2.549   0.328
    1STR    O0Q 4988   6.141   2.582   0.335
    1STR    N0R 4989   0.023   2.633   0.312
    1STR    C0S 4990   0.036   2.725   0.207
    1STR    C0T 4991   0.163   2.761   0.159
    1STR    C0U 4992   0.176   2.788   0.022
    1STR    C0V 4993   0.062   2.790   6.279
    1STR    C0W 4994   0.082   2.801   6.134
    1STR    C0X 4995   6.274   2.772   6.332
    1STR    N0Y 4996   6.164   2.739   6.251
    1STR   BCK2 4997   6.051   2.672   6.285
    1STR    O10 4998   6.023   2.625   0.054
    1STR    C13 4999   6.265   2.757   0.130
    1STR    C14 5000   0.296   2.044   0.079
    1STR    C15 5001   0.198   1.959   0.122
    1STR    C16 5002   0.072   1.967   0.067
    1STR    C17 5003   6.312   1.883   0.134
    1STR    H1B 5004   6.190   2.013   6.315
    1STR    H1C 5005   0.152   2.141   6.129
    1STR    H1D 5006   0.489   2.124   6.303
    1STR    H1E 5007   0.415   2.430   6.053
    1STR    H1F 5008   0.128   2.338   5.998
    1STR    H1G 5009   0.180   2.504   5.987
    1STR    H1H 5010   0.252   2.380   5.879
    1STR    H1I 5011   0.180   2.349   6.220
    1STR    H1J 5012   0.239   2.514   6.206
    1STR    H1K 5013   0.202   2.280   0.091
    1STR    H1M 5014   0.469   2.388   0.193
    1STR    H1N 5015   0.404   2.227   0.211
    1STR    H1O 5016   0.338   2.357   0.307
    1STR    H1P 5017   0.172   2.468   0.237
    1STR    H1Q 5018   0.278   2.554   0.127
    1STR    H1R 5019   6.239   2.538   0.077
    1STR    H1S 5020   6.156   2.401   6.259
    1STR    H1T 5021   6.325   2.355   6.229
    1STR    H1U 5022   6.275   2.516   6.195
    1STR    H1V 5023   6.308   2.268   0.164
    1STR    H1W 5024   6.156   2.358   0.174
    1STR    H1X 5025   0.107   2.595   0.349
    1STR    H1Y 5026   0.251   2.748   0.219
    1STR    H1Z 5027   0.274   2.803   6.319
    1STR    H20 5028   0.107   2.703   6.095
    1STR    H21 5029   6.331   2.837   6.088
    1STR    H22 5030   0.163   2.871   6.117
    1STR    H23 5031   6.177   2.758   6.153
    1STR    H27 5032   6.171   2.735   0.170
    1STR    H28 5033   0.389   2.044   0.131
    1STR    H29 5034   0.222   1.888   0.199
    1STR    H2A 5035   6.231   1.942   0.175
    1STR    H2B 5036   0.024   1.825   0.208
    1STR    H2C 5037   6.280   1.805   0.070
    1STR   BCK1 5038   0.002   2.009   1.485
    1STR    O03 5039   0.002   2.043   1.601
    1STR    N04 5040   6.266   2.064   1.387
    1STR    C05 5041   6.148   2.135   1.406
    1STR    C06 5042   6.115   2.189   1.530
    1STR    C07 5043   5.983   2.209   1.571
    1STR    N08 5044   5.963   2.232   1.705
    1STR    C09 5045   6.029   2.335   1.758
    1STR    O0A 5046   6.026   2.448   1.714
    1STR    O0B 5047   6.112   2.292   1.851
    1STR    C0C 5048   6.223   2.374   1.886
    1STR    C0D 5049   6.208   2.410   2.031
    1STR    C0E 5050   0.015   2.302   1.862
    1STR    O0F 5051   0.028   2.254   1.732
    1STR    C0G 5052   0.107   2.330   1.643
    1STR    C0H 5053   0.179   2.237   1.543
    1STR    C0I 5054   0.013   2.428   1.574
    1STR    O0J 5055   0.076   2.552   1.559
    1STR    C0K 5056   0.195   2.558   1.482
    1STR    C0M 5057   0.324   2.527   1.557
    1STR    C0N 5058   0.187   2.484   1.348
    1STR    O0O 5059   0.056   2.497   1.302
    1STR    C0P 5060   0.018   2.442   1.190
    1STR    O0Q 5061   0.094   2.394   1.108
    1STR    N0R 5062   6.226   2.440   1.174
    1STR    C0S 5063   6.122   2.476   1.259
    1STR    C0T 5064   5.995   2.426   1.228
    1STR    C0U 5065   5.887   2.446   1.316
    1STR    C0V 5066   5.906   2.514   1.436
    1STR    C0W 5067   5.792   2.529   1.535
    1STR    C0X 5068   6.028   2.582   1.455
    1STR    N0Y 5069   6.036   2.691   1.537
    1STR   BCK2 5070   5.964   2.798   1.512
    1STR    O10 5071   5.972   2.890   1.588
    1STR    C13 5072   6.136   2.558   1.372
    1STR    C14 5073   5.879   2.189   1.479
    1STR    C15 5074   5.912   2.154   1.346
    1STR    C16 5075   6.046   2.126   1.309
    1STR    C17 5076   6.078   2.083   1.169
    1STR    H1B 5077   6.278   2.022   1.297
    1STR    H1C 5078   6.190   2.203   1.604
    1STR    H1D 5079   5.968   2.151   1.764
    1STR    H1E 5080   6.225   2.469   1.831
    1STR    H1F 5081   6.212   2.320   2.091
    1STR    H1G 5082   6.287   2.478   2.059
    1STR    H1H 5083   6.112   2.459   2.046
    1STR    H1I 5084   0.020   2.213   1.924
    1STR    H1J 5085   0.099   2.366   1.890
    1STR    H1K 5086   0.182   2.381   1.702
    1STR    H1M 5087   0.114   2.220   1.458
    1STR    H1N 5088   0.209   2.144   1.589
    1STR    H1O 5089   0.271   2.267   1.498
    1STR    H1P 5090   6.312   2.386   1.482
    1STR    H1Q 5091   6.263   2.447   1.630
    1STR    H1R 5092   0.197   2.665   1.462
    1STR    H1S 5093   0.409   2.566   1.502
    1STR    H1T 5094   0.350   2.424   1.572
    1STR    H1U 5095   0.319   2.564   1.659
    1STR    H1V 5096   0.205   2.379   1.349
    1STR    H1W 5097   0.266   2.519   1.283
    1STR    H1X 5098   6.200   2.401   1.085
    1STR    H1Y 5099   5.980   2.365   1.141
    1STR    H1Z 5100   5.791   2.402   1.295
    1STR    H20 5101   5.829   2.558   1.633
    1STR    H21 5102   5.725   2.607   1.504
    1STR    H22 5103   5.735   2.438   1.544
    1STR    H23 5104   6.099   2.690   1.616
    1STR    H27 5105   6.227   2.609   1.400
    1STR    H28 5106   5.777   2.208   1.507
    1STR    H29 5107   5.833   2.147   1.273
    1STR    H2A 5108   6.172   2.128   1.137
    1STR    H2B 5109   6.000   2.117   1.101
    1STR    H2C 5110   6.086   1.974   1.162
    1STR   BCK1 5111   0.024   2.151   3.074
    1STR    O03 5112   0.138   2.197   3.073
    1STR    N04 5113   6.311   2.092   3.181
    1STR    C05 5114   0.029   2.067   3.303
    1STR    C06 5115   0.168   2.055   3.321
    1STR    C07 5116   0.224   2.057   3.449
    1STR    N08 5117   0.360   2.075   3.457
    1STR    C09 5118   0.398   2.191   3.508
    1STR    O0A 5119   0.377   2.231   3.622
    1STR    O0B 5120   0.438   2.267   3.408
    1STR    C0C 5121   0.369   2.388   3.385
    1STR    C0D 5122   0.430   2.440   3.255
    1STR    C0E 5123   0.219   2.370   3.365
    1STR    O0F 5124   0.149   2.365   3.490
    1STR    C0G 5125   0.008   2.375   3.475
    1STR    C0H 5126   6.269   2.337   3.601
    1STR    C0I 5127   6.315   2.518   3.444
    1STR    O0J 5128   0.003   2.545   3.311
    1STR    C0K 5129   6.254   2.497   3.213
    1STR    C0M 5130   6.332   2.492   3.085
    1STR    C0N 5131   6.141   2.392   3.230
    1STR    O0O 5132   6.064   2.424   3.344
    1STR    C0P 5133   5.939   2.382   3.360
    1STR    O0Q 5134   5.891   2.283   3.308
    1STR    N0R 5135   5.868   2.465   3.439
    1STR    C0S 5136   5.913   2.593   3.463
    1STR    C0T 5137   5.978   2.624   3.583
    1STR    C0U 5138   6.078   2.722   3.581
    1STR    C0V 5139   6.121   2.774   3.458
    1STR    C0W 5140   6.260   2.828   3.458
    1STR    C0X 5141   6.048   2.750   3.339
    1STR    N0Y 5142   6.096   2.785   3.213
    1STR   BCK2 5143   6.074   2.732   3.092
    1STR    O10 5144   6.013   2.627   3.075
    1STR    C13 5145   5.934   2.671   3.348
    1STR    C14 5146   0.141   2.066   3.561
    1STR    C15 5147   0.002   2.067   3.543
    1STR    C16 5148   6.286   2.061   3.416
    1STR    C17 5149   6.138   2.041   3.405
    1STR    H1B 5150   6.214   2.059   3.172
    1STR    H1C 5151   0.233   2.056   3.235
    1STR    H1D 5152   0.405   2.046   3.372
    1STR    H1E 5153   0.382   2.457   3.468
    1STR    H1F 5154   0.436   2.361   3.181
    1STR    H1G 5155   0.366   2.514   3.210
    1STR    H1H 5156   0.527   2.484   3.274
    1STR    H1I 5157   0.196   2.289   3.299
    1STR    H1J 5158   0.192   2.453   3.305
    1STR    H1K 5159   6.318   2.310   3.394
    1STR    H1M 5160   6.333   2.287   3.673
    1STR    H1N 5161   6.187   2.272   3.571
    1STR    H1O 5162   6.222   2.421   3.650
    1STR    H1P 5163   6.212   2.540   3.466
    1STR    H1Q 5164   0.037   2.579   3.507
    1STR    H1R 5165   6.202   2.586   3.211
    1STR    H1S 5166   6.268   2.498   2.997
    1STR    H1T 5167   0.052   2.404   3.085
    1STR    H1U 5168   0.067   2.569   3.079
    1STR    H1V 5169   6.177   2.291   3.236
    1STR    H1W 5170   6.075   2.396   3.143
    1STR    H1X 5171   5.773   2.439   3.460
    1STR    H1Y 5172   5.964   2.565   3.671
    1STR    H1Z 5173   6.136   2.741   3.670
    1STR    H20 5174   6.309   2.800   3.364
    1STR    H21 5175   6.253   2.934   3.476
    1STR    H22 5176   6.321   2.785   3.536
    1STR    H23 5177   6.154   2.868   3.204
    1STR    H27 5178   5.878   2.646   3.260
    1STR    H28 5179   0.183   2.076   3.660
    1STR    H29 5180   6.277   2.073   3.629
    1STR    H2A 5181   6.090   2.112   3.339
    1STR    H2B 5182   6.088   2.041   3.501
    1STR    H2C 5183   6.128   1.940   3.365
    1STR   BCK1 5184   6.279   2.017   4.765
    1STR    O03 5185   0.019   2.053   4.848
    1STR    N04 5186   6.317   1.922   4.681
    1STR    C05 5187   0.063   1.952   4.577
    1STR    C06 5188   0.019   2.032   4.473
    1STR    C07 5189   0.111   2.095   4.386
    1STR    N08 5190   0.066   2.207   4.321
    1STR    C09 5191   6.284   2.202   4.270
    1STR    O0A 5192   6.253   2.120   4.184
    1STR    O0B 5193   6.192   2.276   4.335
    1STR    C0C 5194   6.212   2.365   4.444
    1STR    C0D 5195   6.068   2.410   4.463
    1STR    C0E 5196   6.260   2.311   4.580
    1STR    O0F 5197   0.059   2.281   4.574
    1STR    C0G 5198   0.123   2.288   4.698
    1STR    C0H 5199   0.253   2.212   4.710
    1STR    C0I 5200   0.153   2.430   4.709
    1STR    O0J 5201   0.071   2.478   4.813
    1STR    C0K 5202   0.096   2.466   4.950
    1STR    C0M 5203   6.321   2.393   5.013
    1STR    C0N 5204   0.236   2.427   5.003
    1STR    O0O 5205   0.327   2.483   4.914
    1STR    C0P 5206   0.436   2.546   4.945
    1STR    O0Q 5207   0.499   2.535   5.050
    1STR    N0R 5208   0.475   2.624   4.844
    1STR    C0S 5209   0.392   2.664   4.739
    1STR    C0T 5210   0.441   2.658   4.608
    1STR    C0U 5211   0.353   2.683   4.501
    1STR    C0V 5212   0.219   2.714   4.527
    1STR    C0W 5213   0.130   2.743   4.414
    1STR    C0X 5214   0.168   2.723   4.657
    1STR    N0Y 5215   0.035   2.743   4.688
    1STR   BCK2 5216   6.273   2.659   4.672
    1STR    O10 5217   6.207   2.632   4.772
    1STR    C13 5218   0.257   2.699   4.761
    1STR    C14 5219   0.248   2.074   4.403
    1STR    C15 5220   0.290   1.984   4.500
    1STR    C16 5221   0.196   1.916   4.578
    1STR    C17 5222   0.238   1.806   4.665
    1STR    H1B 5223   6.243   1.852   4.671
    1STR    H1C 5224   6.257   2.062   4.475
    1STR    H1D 5225   0.084   2.284   4.385
    1STR    H1E 5226   6.276   2.448   4.414
    1STR    H1F 5227   6.001   2.324   4.469
    1STR    H1G 5228   6.055   2.465   4.556
    1STR    H1H 5229   6.038   2.473   4.379
    1STR    H1I 5230   6.204   2.224   4.612
    1STR    H1J 5231   6.241   2.386   4.656
    1STR    H1K 5232   0.055   2.262   4.778
    1STR    H1M 5233   0.315   2.226   4.622
    1STR    H1N 5234   0.233   2.107   4.728
    1STR    H1O 5235   0.310   2.244   4.797
    1STR    H1P 5236   0.259   2.450   4.710
    1STR    H1Q 5237   0.121   2.482   4.619
    1STR    H1R 5238   0.074   2.569   4.967
    1STR    H1S 5239   6.326   2.399   5.122
    1STR    H1T 5240   6.324   2.290   4.981
    1STR    H1U 5241   6.226   2.435   4.979
    1STR    H1V 5242   0.251   2.319   5.002
    1STR    H1W 5243   0.253   2.463   5.104
    1STR    H1X 5244   0.568   2.660   4.851
    1STR    H1Y 5245   0.542   2.629   4.588
    1STR    H1Z 5246   0.389   2.678   4.400
    1STR    H20 5247   0.064   2.661   4.389
    1STR    H21 5248   0.075   2.827   4.450
    1STR    H22 5249   0.191   2.770   4.329
    1STR    H23 5250   0.013   2.800   4.770
    1STR    H27 5251   0.212   2.694   4.858
    1STR    H28 5252   0.320   2.132   4.347
    1STR    H29 5253   0.395   1.973   4.521
    1STR    H2A 5254   0.208   1.822   4.769
    1STR    H2B 5255   0.344   1.803   4.647
    1STR    H2C 5256   0.194   1.716   4.625
    1STR   BCK1 5257   6.312   3.548   6.324
    1STR    O03 5258   0.091   3.563   6.299
    1STR    N04 5259   6.265   3.558   0.108
    1STR    C05 5260   6.138   3.561   0.161
    1STR    C06 5261   6.035   3.618   0.088
    1STR    C07 5262   5.933   3.683   0.153
    1STR    N08 5263   5.861   3.770   0.080
    1STR    C09 5264   5.883   3.897   0.099
    1STR    O0A 5265   5.793   3.972   0.067
    1STR    O0B 5266   5.990   3.925   0.184
    1STR    C0C 5267   6.132   3.933   0.150
    1STR    C0D 5268   6.212   3.905   0.277
    1STR    C0E 5269   6.193   3.865   0.032
    1STR    O0F 5270   6.115   3.879   6.255
    1STR    C0G 5271   6.159   3.800   6.144
    1STR    C0H 5272   6.038   3.741   6.074
    1STR    C0I 5273   6.261   3.848   6.042
    1STR    O0J 5274   0.020   3.917   6.110
    1STR    C0K 5275   6.316   4.041   6.159
    1STR    C0M 5276   0.112   4.109   6.164
    1STR    C0N 5277   6.198   4.097   6.077
    1STR    O0O 5278   6.066   4.042   6.060
    1STR    C0P 5279   5.941   4.063   6.123
    1STR    O0Q 5280   5.842   4.019   6.067
    1STR    N0R 5281   5.917   4.126   6.239
    1STR    C0S 5282   5.990   4.196   6.333
    1STR    C0T 5283   5.982   4.188   0.133
    1STR    C0U 5284   6.089   4.237   0.210
    1STR    C0V 5285   6.204   4.278   0.141
    1STR    C0W 5286   6.332   4.267   0.217
    1STR    C0X 5287   6.192   4.316   0.004
    1STR    N0Y 5288   6.287   4.353   6.251
    1STR   BCK2 5289   6.299   4.373   6.117
    1STR    O10 5290   0.072   4.384   6.078
    1STR    C13 5291   6.072   4.294   6.288
    1STR    C14 5292   5.916   3.675   0.292
    1STR    C15 5293   6.008   3.601   0.365
    1STR    C16 5294   6.119   3.548   0.299
    1STR    C17 5295   6.224   3.491   0.382
    1STR    H1B 5296   0.005   3.575   0.171
    1STR    H1C 5297   6.045   3.639   6.324
    1STR    H1D 5298   5.784   3.746   0.019
    1STR    H1E 5299   6.159   4.031   0.118
    1STR    H1F 5300   6.202   3.801   0.305
    1STR    H1G 5301   6.318   3.926   0.261
    1STR    H1H 5302   6.175   3.967   0.358
    1STR    H1I 5303   6.209   3.767   0.057
    1STR    H1J 5304   6.298   3.888   0.023
    1STR    H1K 5305   6.228   3.737   6.191
    1STR    H1M 5306   5.980   3.672   6.134
    1STR    H1N 5307   6.071   3.692   5.984
    1STR    H1O 5308   5.970   3.817   6.039
    1STR    H1P 5309   6.312   3.768   5.993
    1STR    H1Q 5310   6.216   3.897   5.956
    1STR    H1R 5311   6.283   4.052   6.261
    1STR    H1S 5312   0.116   4.189   6.238
    1STR    H1T 5313   0.141   4.147   6.066
    1STR    H1U 5314   0.189   4.041   6.200
    1STR    H1V 5315   6.237   4.122   5.979
    1STR    H1W 5316   6.174   4.179   6.130
    1STR    H1X 5317   5.833   4.085   6.279
    1STR    H1Y 5318   5.903   4.138   0.184
    1STR    H1Z 5319   6.089   4.220   0.316
    1STR    H20 5320   0.077   4.258   0.150
    1STR    H21 5321   6.338   4.353   0.284
    1STR    H22 5322   6.331   4.178   0.279
    1STR    H23 5323   0.037   4.380   6.291
    1STR    H27 5324   6.060   4.334   6.194
    1STR    H28 5325   5.837   3.729   0.341
    1STR    H29 5326   5.999   3.594   0.473
    1STR    H2A 5327   6.183   3.462   0.478
    1STR    H2B 5328   6.298   3.570   0.393
    1STR    H2C 5329   6.263   3.405   0.331
    1STR   BCK1 5330   6.298   3.751   1.420
    1STR    O03 5331   0.055   3.749   1.347
    1STR    N04 5332   6.294   3.697   1.543
    1STR    C05 5333   0.062   3.646   1.615
    1STR    C06 5334   0.194   3.688   1.593
    1STR    C07 5335   0.296   3.660   1.686
    1STR    N08 5336   0.417   3.728   1.697
    1STR    C09 5337   0.482   3.815   1.621
    1STR    O0A 5338   0.586   3.871   1.654
    1STR    O0B 5339   0.425   3.832   1.504
    1STR    C0C 5340   0.377   3.958   1.474
    1STR    C0D 5341   0.328   3.954   1.329
    1STR    C0E 5342   0.264   3.988   1.569
    1STR    O0F 5343   0.275   3.948   1.706
    1STR    C0G 5344   0.152   3.917   1.774
    1STR    C0H 5345   0.167   3.839   1.903
    1STR    C0I 5346   0.110   4.049   1.810
    1STR    O0J 5347   0.077   4.118   1.693
    1STR    C0K 5348   6.312   4.078   1.609
    1STR    C0M 5349   6.338   4.084   1.457
    1STR    C0N 5350   6.174   4.051   1.665
    1STR    O0O 5351   6.165   3.985   1.789
    1STR    C0P 5352   6.123   4.046   1.902
    1STR    O0Q 5353   6.072   3.984   1.993
    1STR    N0R 5354   6.144   4.176   1.920
    1STR    C0S 5355   6.213   4.276   1.855
    1STR    C0T 5356   0.010   4.300   1.871
    1STR    C0U 5357   0.084   4.371   1.779
    1STR    C0V 5358   0.021   4.395   1.658
    1STR    C0W 5359   0.115   4.379   1.540
    1STR    C0X 5360   6.218   4.387   1.650
    1STR    N0Y 5361   6.159   4.354   1.530
    1STR   BCK2 5362   6.033   4.330   1.499
    1STR    O10 5363   5.932   4.357   1.564
    1STR    C13 5364   6.144   4.350   1.762
    1STR    C14 5365   0.274   3.556   1.776
    1STR    C15 5366   0.149   3.495   1.781
    1STR    C16 5367   0.041   3.554   1.719
    1STR    C17 5368   6.249   3.522   1.776
    1STR    H1B 5369   6.204   3.675   1.586
    1STR    H1C 5370   0.216   3.748   1.509
    1STR    H1D 5371   0.477   3.697   1.774
    1STR    H1E 5372   0.457   4.031   1.489
    1STR    H1F 5373   0.264   3.867   1.313
    1STR    H1G 5374   0.269   4.042   1.304
    1STR    H1H 5375   0.411   3.945   1.261
    1STR    H1I 5376   0.175   3.940   1.529
    1STR    H1J 5377   0.252   4.094   1.562
    1STR    H1K 5378   0.073   3.873   1.713
    1STR    H1M 5379   0.265   3.855   1.948
    1STR    H1N 5380   0.152   3.734   1.887
    1STR    H1O 5381   0.088   3.861   1.975
    1STR    H1P 5382   0.031   4.046   1.884
    1STR    H1Q 5383   0.195   4.099   1.857
    1STR    H1R 5384   6.292   4.178   1.602
    1STR    H1S 5385   6.258   4.131   1.402
    1STR    H1T 5386   0.014   3.989   1.413
    1STR    H1U 5387   0.086   4.140   1.430
    1STR    H1V 5388   6.134   3.992   1.590
    1STR    H1W 5389   6.103   4.133   1.661
    1STR    H1X 5390   6.111   4.203   2.012
    1STR    H1Y 5391   0.069   4.248   1.942
    1STR    H1Z 5392   0.192   4.374   1.788
    1STR    H20 5393   0.164   4.285   1.554
    1STR    H21 5394   0.071   4.374   1.442
    1STR    H22 5395   0.194   4.453   1.543
    1STR    H23 5396   6.224   4.338   1.454
    1STR    H27 5397   6.038   4.337   1.762
    1STR    H28 5398   0.356   3.522   1.835
    1STR    H29 5399   0.131   3.409   1.840
    1STR    H2A 5400   6.189   3.612   1.791
    1STR    H2B 5401   6.264   3.473   1.872
    1STR    H2C 5402   6.200   3.453   1.712
    1STR   BCK1 5403   6.331   3.542   3.079
    1STR    O03 5404   0.081   3.527   3.158
    1STR    N04 5405   0.022   3.539   2.951
    1STR    C05 5406   6.307   3.624   2.857
    1STR    C06 5407   6.216   3.719   2.896
    1STR    C07 5408   6.168   3.820   2.815
    1STR    N08 5409   6.092   3.913   2.883
    1STR    C09 5410   5.987   3.876   2.955
    1STR    O0A 5411   5.894   3.814   2.906
    1STR    O0B 5412   5.996   3.895   3.088
    1STR    C0C 5413   6.103   3.954   3.160
    1STR    C0D 5414   6.029   4.011   3.279
    1STR    C0E 5415   6.211   3.860   3.217
    1STR    O0F 5416   6.310   3.798   3.138
    1STR    C0G 5417   0.093   3.861   3.119
    1STR    C0H 5418   0.197   3.785   3.039
    1STR    C0I 5419   0.061   3.986   3.043
    1STR    O0J 5420   0.035   4.085   3.138
    1STR    C0K 5421   0.142   4.129   3.219
    1STR    C0M 5422   0.101   4.100   3.364
    1STR    C0N 5423   0.288   4.096   3.184
    1STR    O0O 5424   0.307   4.116   3.046
    1STR    C0P 5425   0.372   4.219   2.998
    1STR    O0Q 5426   0.479   4.260   3.040
    1STR    N0R 5427   0.314   4.273   2.892
    1STR    C0S 5428   0.187   4.242   2.846
    1STR    C0T 5429   0.167   4.179   2.723
    1STR    C0U 5430   0.036   4.146   2.684
    1STR    C0V 5431   6.266   4.171   2.767
    1STR    C0W 5432   6.129   4.151   2.708
    1STR    C0X 5433   6.287   4.228   2.895
    1STR    N0Y 5434   6.195   4.239   2.999
    1STR   BCK2 5435   6.068   4.269   3.018
    1STR    O10 5436   6.025   4.280   3.131
    1STR    C13 5437   0.077   4.268   2.928
    1STR    C14 5438   6.212   3.825   2.682
    1STR    C15 5439   6.308   3.733   2.638
    1STR    C16 5440   0.017   3.636   2.728
    1STR    C17 5441   0.127   3.549   2.684
    1STR    H1B 5442   0.116   3.510   2.932
    1STR    H1C 5443   6.178   3.717   2.994
    1STR    H1D 5444   6.141   3.997   2.912
    1STR    H1E 5445   6.147   4.034   3.105
    1STR    H1F 5446   5.986   3.931   3.339
    1STR    H1G 5447   6.096   4.071   3.341
    1STR    H1H 5448   5.948   4.075   3.245
    1STR    H1I 5449   6.151   3.775   3.243
    1STR    H1J 5450   6.258   3.900   3.306
    1STR    H1K 5451   0.135   3.876   3.218
    1STR    H1M 5452   0.162   3.764   2.938
    1STR    H1N 5453   0.227   3.693   3.088
    1STR    H1O 5454   0.287   3.844   3.028
    1STR    H1P 5455   0.134   4.010   2.967
    1STR    H1Q 5456   6.315   3.971   2.981
    1STR    H1R 5457   0.138   4.232   3.194
    1STR    H1S 5458   0.156   4.161   3.434
    1STR    H1T 5459   0.116   3.996   3.392
    1STR    H1U 5460   6.335   4.121   3.377
    1STR    H1V 5461   0.315   3.994   3.211
    1STR    H1W 5462   0.355   4.159   3.241
    1STR    H1X 5463   0.357   4.355   2.855
    1STR    H1Y 5464   0.252   4.157   2.660
    1STR    H1Z 5465   0.021   4.102   2.586
    1STR    H20 5466   6.056   4.118   2.780
    1STR    H21 5467   6.090   4.243   2.667
    1STR    H22 5468   6.129   4.083   2.625
    1STR    H23 5469   6.241   4.227   3.090
    1STR    H27 5470   0.096   4.315   3.021
    1STR    H28 5471   6.176   3.896   2.611
    1STR    H29 5472   0.005   3.737   2.537
    1STR    H2A 5473   0.157   3.477   2.759
    1STR    H2B 5474   0.213   3.609   2.654
    1STR    H2C 5475   0.086   3.497   2.599
    1STR   BCK1 5476   0.188   3.621   4.650
    1STR    O03 5477   0.299   3.662   4.682
    1STR    N04 5478   0.099   3.569   4.734
    1STR    C05 5479   0.105   3.573   4.873
    1STR    C06 5480   0.213   3.621   4.949
    1STR    C07 5481   0.191   3.660   5.082
    1STR    N08 5482   0.289   3.730   5.147
    1STR    C09 5483   0.258   3.858   5.151
    1STR    O0A 5484   0.172   3.906   5.225
    1STR    O0B 5485   0.313   3.913   5.045
    1STR    C0C 5486   0.230   3.987   4.958
    1STR    C0D 5487   0.319   4.079   4.880
    1STR    C0E 5488   0.149   3.898   4.864
    1STR    O0F 5489   0.041   3.837   4.938
    1STR    C0G 5490   6.257   3.832   4.872
    1STR    C0H 5491   6.136   3.765   4.940
    1STR    C0I 5492   6.227   3.975   4.869
    1STR    O0J 5493   6.242   4.016   4.738
    1STR    C0K 5494   6.143   3.986   4.643
    1STR    C0M 5495   6.234   3.947   4.529
    1STR    C0N 5496   6.017   3.901   4.666
    1STR    O0O 5497   5.963   3.938   4.791
    1STR    C0P 5498   5.842   3.983   4.815
    1STR    O0Q 5499   5.744   3.962   4.746
    1STR    N0R 5500   5.841   4.062   4.923
    1STR    C0S 5501   5.950   4.142   4.955
    1STR    C0T 5502   6.015   4.140   5.080
    1STR    C0U 5503   6.146   4.190   5.088
    1STR    C0V 5504   6.210   4.245   4.974
    1STR    C0W 5505   0.015   4.278   4.986
    1STR    C0X 5506   6.142   4.255   4.851
    1STR    N0Y 5507   6.204   4.284   4.728
    1STR   BCK2 5508   6.137   4.317   4.618
    1STR    O10 5509   6.029   4.368   4.624
    1STR    C13 5510   6.011   4.208   4.848
    1STR    C14 5511   0.066   3.644   5.142
    1STR    C15 5512   6.312   3.565   5.078
    1STR    C16 5513   6.332   3.533   4.944
    1STR    C17 5514   6.227   3.455   4.880
    1STR    H1B 5515   0.006   3.552   4.695
    1STR    H1C 5516   0.309   3.641   4.905
    1STR    H1D 5517   0.376   3.715   5.098
    1STR    H1E 5518   0.161   4.043   5.019
    1STR    H1F 5519   0.391   4.020   4.822
    1STR    H1G 5520   0.259   4.140   4.812
    1STR    H1H 5521   0.373   4.144   4.949
    1STR    H1I 5522   0.212   3.827   4.817
    1STR    H1J 5523   0.116   3.957   4.779
    1STR    H1K 5524   6.272   3.790   4.772
    1STR    H1M 5525   6.155   3.728   5.038
    1STR    H1N 5526   6.094   3.695   4.871
    1STR    H1O 5527   6.050   3.826   4.963
    1STR    H1P 5528   6.135   3.998   4.914
    1STR    H1Q 5529   6.295   4.029   4.933
    1STR    H1R 5530   6.094   4.079   4.629
    1STR    H1S 5531   6.184   3.947   4.433
    1STR    H1T 5532   6.273   3.850   4.551
    1STR    H1U 5533   6.319   4.016   4.524
    1STR    H1V 5534   6.039   3.795   4.665
    1STR    H1W 5535   5.946   3.924   4.586
    1STR    H1X 5536   5.751   4.094   4.960
    1STR    H1Y 5537   5.970   4.089   5.164
    1STR    H1Z 5538   6.202   4.181   5.180
    1STR    H20 5539   0.064   4.278   4.889
    1STR    H21 5540   0.024   4.372   5.038
    1STR    H22 5541   0.064   4.210   5.052
    1STR    H23 5542   6.303   4.271   4.713
    1STR    H27 5543   5.959   4.203   4.755
    1STR    H28 5544   0.044   3.687   5.238
    1STR    H29 5545   6.219   3.539   5.126
    1STR    H2A 5546   6.156   3.519   4.834
    1STR    H2B 5547   6.180   3.399   4.958
    1STR    H2C 5548   6.263   3.389   4.803
    1STR   BCK1 5549   6.334   5.192   6.212
    1STR    O03 5550   6.288   5.180   6.101
    1STR    N04 5551   0.123   5.186   6.239
    1STR    C05 5552   0.238   5.169   6.166
    1STR    C06 5553   0.334   5.268   6.178
    1STR    C07 5554   0.432   5.282   6.082
    1STR    N08 5555   0.483   5.409   6.066
    1STR    C09 5556   0.405   5.518   6.059
    1STR    O0A 5557   0.450   5.629   6.083
    1STR    O0B 5558   0.273   5.492   6.031
    1STR    C0C 5559   0.170   5.583   6.067
    1STR    C0D 5560   0.106   5.652   5.952
    1STR    C0E 5561   0.062   5.507   6.144
    1STR    O0F 5562   0.130   5.437   6.244
    1STR    C0G 5563   0.123   5.469   0.039
    1STR    C0H 5564   0.227   5.399   0.121
    1STR    C0I 5565   0.151   5.609   0.041
    1STR    O0J 5566   0.031   5.683   0.032
    1STR    C0K 5567   6.268   5.667   0.130
    1STR    C0M 5568   6.157   5.572   0.089
    1STR    C0N 5569   6.309   5.658   0.276
    1STR    O0O 5570   0.096   5.605   0.311
    1STR    C0P 5571   0.209   5.675   0.342
    1STR    O0Q 5572   0.295   5.625   0.412
    1STR    N0R 5573   0.233   5.798   0.291
    1STR    C0S 5574   0.190   5.869   0.181
    1STR    C0T 5575   0.271   5.859   0.069
    1STR    C0U 5576   0.227   5.903   6.284
    1STR    C0V 5577   0.100   5.958   6.274
    1STR    C0W 5578   0.065   6.018   6.147
    1STR    C0X 5579   0.017   5.969   0.045
    1STR    N0Y 5580   6.223   6.001   0.038
    1STR   BCK2 5581   6.125   5.951   6.305
    1STR    O10 5582   6.011   5.989   6.325
    1STR    C13 5583   0.067   5.933   0.169
    1STR    C14 5584   0.465   5.171   6.002
    1STR    C15 5585   0.387   5.054   6.014
    1STR    C16 5586   0.269   5.057   6.089
    1STR    C17 5587   0.174   4.945   6.088
    1STR    H1B 5588   0.136   5.240   6.322
    1STR    H1C 5589   0.325   5.348   6.246
    1STR    H1D 5590   0.582   5.424   6.073
    1STR    H1E 5591   0.214   5.666   6.120
    1STR    H1F 5592   0.022   5.598   5.910
    1STR    H1G 5593   0.071   5.751   5.981
    1STR    H1H 5594   0.186   5.660   5.880
    1STR    H1I 5595   0.015   5.432   6.081
    1STR    H1J 5596   6.321   5.571   6.178
    1STR    H1K 5597   0.029   5.447   0.086
    1STR    H1M 5598   0.329   5.430   0.100
    1STR    H1N 5599   0.218   5.294   0.100
    1STR    H1O 5600   0.210   5.414   0.228
    1STR    H1P 5601   0.216   5.627   0.121
    1STR    H1Q 5602   0.224   5.634   6.308
    1STR    H1R 5603   6.217   5.762   0.124
    1STR    H1S 5604   6.061   5.612   0.122
    1STR    H1T 5605   6.168   5.474   0.134
    1STR    H1U 5606   6.153   5.562   6.321
    1STR    H1V 5607   6.233   5.604   0.332
    1STR    H1W 5608   6.300   5.757   0.313
    1STR    H1X 5609   0.306   5.844   0.344
    1STR    H1Y 5610   0.362   5.802   0.076
    1STR    H1Z 5611   0.287   5.891   6.196
    1STR    H20 5612   6.310   5.992   6.105
    1STR    H21 5613   0.067   6.121   6.175
    1STR    H22 5614   0.144   5.997   6.078
    1STR    H23 5615   6.179   6.056   0.113
    1STR    H27 5616   6.339   5.941   0.249
    1STR    H28 5617   0.545   5.177   5.931
    1STR    H29 5618   0.411   4.967   5.956
    1STR    H2A 5619   0.115   4.954   6.176
    1STR    H2B 5620   0.216   4.847   6.075
    1STR    H2C 5621   0.102   4.966   6.013
    1STR   BCK1 5622   0.075   5.215   1.774
    1STR    O03 5623   0.144   5.288   1.844
    1STR    N04 5624   6.301   5.172   1.827
    1STR    C05 5625   6.172   5.165   1.778
    1STR    C06 5626   6.142   5.225   1.659
    1STR    C07 5627   6.011   5.237   1.612
    1STR    N08 5628   5.991   5.301   1.492
    1STR    C09 5629   6.071   5.403   1.467
    1STR    O0A 5630   6.120   5.414   1.356
    1STR    O0B 5631   6.090   5.474   1.582
    1STR    C0C 5632   6.199   5.555   1.619
    1STR    C0D 5633   6.184   5.572   1.769
    1STR    C0E 5634   0.000   5.504   1.594
    1STR    O0F 5635   0.013   5.452   1.465
    1STR    C0G 5636   0.142   5.455   1.409
    1STR    C0H 5637   0.130   5.346   1.313
    1STR    C0I 5638   0.178   5.571   1.318
    1STR    O0J 5639   0.170   5.688   1.388
    1STR    C0K 5640   0.037   5.733   1.398
    1STR    C0M 5641   0.059   5.821   1.517
    1STR    C0N 5642   6.338   5.800   1.270
    1STR    O0O 5643   6.295   5.715   1.161
    1STR    C0P 5644   6.184   5.638   1.125
    1STR    O0Q 5645   6.194   5.573   1.022
    1STR    N0R 5646   6.063   5.625   1.184
    1STR    C0S 5647   5.998   5.661   1.301
    1STR    C0T 5648   5.886   5.595   1.356
    1STR    C0U 5649   5.843   5.625   1.488
    1STR    C0V 5650   5.904   5.729   1.561
    1STR    C0W 5651   5.874   5.757   1.705
    1STR    C0X 5652   6.001   5.806   1.497
    1STR    N0Y 5653   6.058   5.917   1.553
    1STR   BCK2 5654   6.106   6.015   1.477
    1STR    O10 5655   6.225   6.027   1.469
    1STR    C13 5656   6.048   5.763   1.374
    1STR    C14 5657   5.906   5.191   1.690
    1STR    C15 5658   5.933   5.135   1.815
    1STR    C16 5659   6.067   5.117   1.856
    1STR    C17 5660   6.096   5.055   1.987
    1STR    H1B 5661   6.305   5.164   1.927
    1STR    H1C 5662   6.221   5.270   1.604
    1STR    H1D 5663   5.951   5.253   1.414
    1STR    H1E 5664   6.182   5.650   1.572
    1STR    H1F 5665   6.202   5.476   1.819
    1STR    H1G 5666   6.257   5.644   1.806
    1STR    H1H 5667   6.084   5.604   1.795
    1STR    H1I 5668   0.025   5.432   1.668
    1STR    H1J 5669   0.074   5.581   1.612
    1STR    H1K 5670   0.221   5.436   1.482
    1STR    H1M 5671   0.031   5.347   1.266
    1STR    H1N 5672   0.150   5.250   1.355
    1STR    H1O 5673   0.205   5.361   1.237
    1STR    H1P 5674   0.281   5.561   1.284
    1STR    H1Q 5675   0.117   5.570   1.228
    1STR    H1R 5676   6.300   5.660   1.409
    1STR    H1S 5677   6.306   5.836   1.572
    1STR    H1T 5678   0.103   5.915   1.484
    1STR    H1U 5679   0.127   5.778   1.589
    1STR    H1V 5680   0.097   5.831   1.244
    1STR    H1W 5681   6.290   5.897   1.280
    1STR    H1X 5682   6.017   5.552   1.133
    1STR    H1Y 5683   5.844   5.510   1.304
    1STR    H1Z 5684   5.769   5.563   1.535
    1STR    H20 5685   5.966   5.785   1.757
    1STR    H21 5686   5.806   5.841   1.709
    1STR    H22 5687   5.832   5.669   1.753
    1STR    H23 5688   6.111   5.908   1.641
    1STR    H27 5689   6.122   5.818   1.325
    1STR    H28 5690   5.808   5.203   1.652
    1STR    H29 5691   5.852   5.100   1.877
    1STR    H2A 5692   6.006   5.011   2.030
    1STR    H2B 5693   6.133   5.135   2.048
    1STR    H2C 5694   6.172   4.979   1.973
    1STR   BCK1 5695   6.248   5.268   3.072
    1STR    O03 5696   0.006   5.320   3.021
    1STR    N04 5697   6.244   5.207   3.189
    1STR    C05 5698   0.004   5.184   3.284
    1STR    C06 5699   0.140   5.176   3.252
    1STR    C07 5700   0.233   5.143   3.352
    1STR    N08 5701   0.366   5.151   3.322
    1STR    C09 5702   0.419   5.263   3.368
    1STR    O0A 5703   0.457   5.282   3.483
    1STR    O0B 5704   0.414   5.351   3.271
    1STR    C0C 5705   0.377   5.483   3.301
    1STR    C0D 5706   0.408   5.559   3.175
    1STR    C0E 5707   0.228   5.492   3.334
    1STR    O0F 5708   0.209   5.454   3.470
    1STR    C0G 5709   0.075   5.459   3.514
    1STR    C0H 5710   0.060   5.401   3.653
    1STR    C0I 5711   0.024   5.599   3.517
    1STR    O0J 5712   6.322   5.637   3.390
    1STR    C0K 5713   6.203   5.589   3.334
    1STR    C0M 5714   6.236   5.507   3.219
    1STR    C0N 5715   6.066   5.593   3.404
    1STR    O0O 5716   6.074   5.647   3.534
    1STR    C0P 5717   6.031   5.770   3.567
    1STR    O0Q 5718   5.933   5.788   3.637
    1STR    N0R 5719   6.106   5.876   3.533
    1STR    C0S 5720   6.208   5.884   3.442
    1STR    C0T 5721   0.002   5.900   3.481
    1STR    C0U 5722   0.103   5.881   3.384
    1STR    C0V 5723   0.069   5.855   3.249
    1STR    C0W 5724   0.176   5.833   3.149
    1STR    C0X 5725   6.276   5.857   3.206
    1STR    N0Y 5726   6.244   5.832   3.073
    1STR   BCK2 5727   6.134   5.776   3.022
    1STR    O10 5728   6.035   5.740   3.085
    1STR    C13 5729   6.177   5.872   3.306
    1STR    C14 5730   0.193   5.120   3.483
    1STR    C15 5731   0.058   5.135   3.518
    1STR    C16 5732   6.306   5.171   3.419
    1STR    C17 5733   6.167   5.201   3.458
    1STR    H1B 5734   6.151   5.183   3.219
    1STR    H1C 5735   0.173   5.201   3.154
    1STR    H1D 5736   0.378   5.140   3.223
    1STR    H1E 5737   0.434   5.521   3.386
    1STR    H1F 5738   0.361   5.511   3.089
    1STR    H1G 5739   0.375   5.661   3.182
    1STR    H1H 5740   0.516   5.560   3.161
    1STR    H1I 5741   0.169   5.433   3.265
    1STR    H1J 5742   0.197   5.596   3.319
    1STR    H1K 5743   0.014   5.402   3.447
    1STR    H1M 5744   0.139   5.329   3.673
    1STR    H1N 5745   6.303   5.353   3.661
    1STR    H1O 5746   0.066   5.478   3.729
    1STR    H1P 5747   6.287   5.614   3.592
    1STR    H1Q 5748   0.107   5.663   3.546
    1STR    H1R 5749   6.174   5.655   3.258
    1STR    H1S 5750   6.144   5.485   3.169
    1STR    H1T 5751   6.289   5.424   3.257
    1STR    H1U 5752   6.304   5.555   3.147
    1STR    H1V 5753   6.027   5.492   3.408
    1STR    H1W 5754   5.995   5.650   3.344
    1STR    H1X 5755   6.078   5.961   3.578
    1STR    H1Y 5756   0.029   5.912   3.584
    1STR    H1Z 5757   0.207   5.883   3.414
    1STR    H20 5758   0.159   5.742   3.092
    1STR    H21 5759   0.161   5.919   3.087
    1STR    H22 5760   0.274   5.839   3.194
    1STR    H23 5761   6.314   5.855   3.003
    1STR    H27 5762   6.074   5.870   3.277
    1STR    H28 5763   0.268   5.101   3.557
    1STR    H29 5764   0.028   5.126   3.621
    1STR    H2A 5765   6.140   5.304   3.441
    1STR    H2B 5766   6.141   5.167   3.558
    1STR    H2C 5767   6.120   5.140   3.384
    1STR   BCK1 5768   6.262   5.059   4.764
    1STR    O03 5769   6.235   5.161   4.822
    1STR    N04 5770   0.019   5.043   4.672
    1STR    C05 5771   0.081   5.146   4.605
    1STR    C06 5772   0.002   5.238   4.541
    1STR    C07 5773   0.058   5.349   4.476
    1STR    N08 5774   6.314   5.455   4.458
    1STR    C09 5775   6.188   5.431   4.424
    1STR    O0A 5776   6.157   5.380   4.317
    1STR    O0B 5777   6.102   5.441   4.528
    1STR    C0C 5778   6.126   5.517   4.647
    1STR    C0D 5779   5.986   5.565   4.679
    1STR    C0E 5780   6.180   5.442   4.769
    1STR    O0F 5781   6.312   5.395   4.748
    1STR    C0G 5782   0.066   5.411   4.852
    1STR    C0H 5783   0.153   5.293   4.890
    1STR    C0I 5784   0.168   5.499   4.791
    1STR    O0J 5785   0.102   5.594   4.714
    1STR    C0K 5786   0.102   5.718   4.775
    1STR    C0M 5787   6.324   5.729   4.866
    1STR    C0N 5788   0.240   5.769   4.817
    1STR    O0O 5789   0.350   5.700   4.758
    1STR    C0P 5790   0.377   5.713   4.628
    1STR    O0Q 5791   0.475   5.776   4.588
    1STR    N0R 5792   0.283   5.657   4.550
    1STR    C0S 5793   0.231   5.706   4.431
    1STR    C0T 5794   0.317   5.790   4.358
    1STR    C0U 5795   0.294   5.926   4.372
    1STR    C0V 5796   0.181   5.967   4.444
    1STR    C0W 5797   0.182   6.094   4.515
    1STR    C0X 5798   0.074   5.881   4.470
    1STR    N0Y 5799   6.315   5.923   4.559
    1STR   BCK2 5800   6.199   5.870   4.589
    1STR    O10 5801   6.146   5.896   4.695
    1STR    C13 5802   0.097   5.746   4.447
    1STR    C14 5803   0.197   5.363   4.465
    1STR    C15 5804   0.279   5.265   4.522
    1STR    C16 5805   0.220   5.158   4.590
    1STR    C17 5806   0.302   5.051   4.644
    1STR    H1B 5807   0.022   4.954   4.626
    1STR    H1C 5808   6.237   5.230   4.556
    1STR    H1D 5809   6.326   5.510   4.542
    1STR    H1E 5810   6.189   5.602   4.624
    1STR    H1F 5811   5.926   5.483   4.718
    1STR    H1G 5812   5.989   5.648   4.749
    1STR    H1H 5813   5.940   5.595   4.586
    1STR    H1I 5814   6.115   5.360   4.794
    1STR    H1J 5815   6.174   5.506   4.857
    1STR    H1K 5816   0.022   5.452   4.942
    1STR    H1M 5817   0.227   5.267   4.815
    1STR    H1N 5818   0.100   5.202   4.899
    1STR    H1O 5819   0.207   5.313   4.982
    1STR    H1P 5820   0.234   5.533   4.871
    1STR    H1Q 5821   0.232   5.447   4.719
    1STR    H1R 5822   0.080   5.783   4.697
    1STR    H1S 5823   6.311   5.833   4.892
    1STR    H1T 5824   6.334   5.663   4.950
    1STR    H1U 5825   6.232   5.704   4.815
    1STR    H1V 5826   0.248   5.761   4.925
    1STR    H1W 5827   0.245   5.874   4.790
    1STR    H1X 5828   0.213   5.612   4.610
    1STR    H1Y 5829   0.418   5.758   4.336
    1STR    H1Z 5830   0.374   5.993   4.348
    1STR    H20 5831   0.083   6.125   4.522
    1STR    H21 5832   0.217   6.083   4.616
    1STR    H22 5833   0.221   6.175   4.460
    1STR    H23 5834   0.002   5.999   4.622
    1STR    H27 5835   0.025   5.681   4.491
    1STR    H28 5836   0.241   5.449   4.417
    1STR    H29 5837   0.386   5.274   4.514
    1STR    H2A 5838   0.265   5.037   4.745
    1STR    H2B 5839   0.408   5.077   4.642
    1STR    H2C 5840   0.284   4.959   4.588
    1STR   BCK1 5841   1.536   0.450   6.189
    1STR    O03 5842   1.646   0.450   6.242
    1STR    N04 5843   1.421   0.418   6.248
    1STR    C05 5844   1.390   0.414   0.044
    1STR    C06 5845   1.483   0.447   0.143
    1STR    C07 5846   1.444   0.479   0.273
    1STR    N08 5847   1.544   0.531   0.351
    1STR    C09 5848   1.548   0.659   0.380
    1STR    O0A 5849   1.451   0.729   0.405
    1STR    O0B 5850   1.670   0.699   0.358
    1STR    C0C 5851   1.690   0.805   0.265
    1STR    C0D 5852   1.831   0.851   0.287
    1STR    C0E 5853   1.675   0.759   0.119
    1STR    O0F 5854   1.544   0.712   0.107
    1STR    C0G 5855   1.466   0.770   0.007
    1STR    C0H 5856   1.337   0.694   0.011
    1STR    C0I 5857   1.433   0.912   0.041
    1STR    O0J 5858   1.451   0.988   6.267
    1STR    C0K 5859   1.373   0.965   6.151
    1STR    C0M 5860   1.472   0.934   6.041
    1STR    C0N 5861   1.238   0.889   6.145
    1STR    O0O 5862   1.157   0.920   6.257
    1STR    C0P 5863   1.041   0.856   6.282
    1STR    O0Q 5864   0.978   0.795   6.197
    1STR    N0R 5865   1.004   0.858   0.072
    1STR    C0S 5866   1.074   0.923   0.172
    1STR    C0T 5867   1.129   0.857   0.282
    1STR    C0U 5868   1.231   0.920   0.356
    1STR    C0V 5869   1.288   1.041   0.311
    1STR    C0W 5870   1.424   1.081   0.364
    1STR    C0X 5871   1.226   1.110   0.204
    1STR    N0Y 5872   1.296   1.209   0.139
    1STR   BCK2 5873   1.276   1.254   0.015
    1STR    O10 5874   1.365   1.236   6.277
    1STR    C13 5875   1.110   1.055   0.148
    1STR    C14 5876   1.309   0.483   0.308
    1STR    C15 5877   1.213   0.447   0.212
    1STR    C16 5878   1.253   0.414   0.081
    1STR    C17 5879   1.146   0.395   6.317
    1STR    H1B 5880   1.340   0.428   6.188
    1STR    H1C 5881   1.583   0.474   0.118
    1STR    H1D 5882   1.637   0.504   0.321
    1STR    H1E 5883   1.620   0.885   0.286
    1STR    H1F 5884   1.901   0.768   0.279
    1STR    H1G 5885   1.854   0.920   0.207
    1STR    H1H 5886   1.842   0.900   0.383
    1STR    H1I 5887   1.742   0.678   0.094
    1STR    H1J 5888   1.695   0.842   0.050
    1STR    H1K 5889   1.517   0.760   6.252
    1STR    H1M 5890   1.329   0.647   0.107
    1STR    H1N 5891   1.326   0.630   6.265
    1STR    H1O 5892   1.246   0.748   0.017
    1STR    H1P 5893   1.334   0.923   0.083
    1STR    H1Q 5894   1.499   0.952   0.117
    1STR    H1R 5895   1.343   1.065   6.133
    1STR    H1S 5896   1.431   0.959   5.944
    1STR    H1T 5897   1.501   0.830   6.044
    1STR    H1U 5898   1.561   0.996   6.058
    1STR    H1V 5899   1.253   0.783   6.134
    1STR    H1W 5900   1.184   0.917   6.055
    1STR    H1X 5901   0.925   0.799   0.095
    1STR    H1Y 5902   1.103   0.755   0.305
    1STR    H1Z 5903   1.276   0.869   0.439
    1STR    H20 5904   1.495   1.085   0.283
    1STR    H21 5905   1.425   1.176   0.414
    1STR    H22 5906   1.462   1.007   0.435
    1STR    H23 5907   1.390   1.230   0.169
    1STR    H27 5908   1.059   1.097   0.065
    1STR    H28 5909   1.280   0.516   0.407
    1STR    H29 5910   1.109   0.448   0.237
    1STR    H2A 5911   1.134   0.486   6.259
    1STR    H2B 5912   1.052   0.368   0.024
    1STR    H2C 5913   1.174   0.312   6.253
    1STR   BCK1 5914   1.598   0.546   1.395
    1STR    O03 5915   1.695   0.538   1.321
    1STR    N04 5916   1.588   0.487   1.515
    1STR    C05 5917   1.685   0.420   1.588
    1STR    C06 5918   1.823   0.429   1.560
    1STR    C07 5919   1.917   0.399   1.659
    1STR    N08 5920   2.042   0.456   1.674
    1STR    C09 5921   2.109   0.547   1.604
    1STR    O0A 5922   2.212   0.601   1.644
    1STR    O0B 5923   2.056   0.572   1.487
    1STR    C0C 5924   2.013   0.701   1.467
    1STR    C0D 5925   1.972   0.722   1.321
    1STR    C0E 5926   1.896   0.722   1.557
    1STR    O0F 5927   1.914   0.697   1.695
    1STR    C0G 5928   1.796   0.705   1.772
    1STR    C0H 5929   1.815   0.637   1.903
    1STR    C0I 5930   1.778   0.851   1.795
    1STR    O0J 5931   1.747   0.910   1.672
    1STR    C0K 5932   1.644   0.858   1.589
    1STR    C0M 5933   1.668   0.869   1.438
    1STR    C0N 5934   1.511   0.803   1.644
    1STR    O0O 5935   1.491   0.785   1.783
    1STR    C0P 5936   1.458   0.877   1.878
    1STR    O0Q 5937   1.411   0.842   1.985
    1STR    N0R 5938   1.487   1.006   1.863
    1STR    C0S 5939   1.532   1.084   1.760
    1STR    C0T 5940   1.659   1.140   1.772
    1STR    C0U 5941   1.722   1.181   1.656
    1STR    C0V 5942   1.655   1.186   1.532
    1STR    C0W 5943   1.744   1.193   1.410
    1STR    C0X 5944   1.518   1.151   1.525
    1STR    N0Y 5945   1.461   1.126   1.401
    1STR   BCK2 5946   1.361   1.044   1.367
    1STR    O10 5947   1.295   0.976   1.443
    1STR    C13 5948   1.456   1.104   1.643
    1STR    C14 5949   1.879   0.311   1.760
    1STR    C15 5950   1.744   0.286   1.778
    1STR    C16 5951   1.647   0.353   1.705
    1STR    C17 5952   1.506   0.354   1.758
    1STR    H1B 5953   1.497   0.478   1.558
    1STR    H1C 5954   1.856   0.473   1.469
    1STR    H1D 5955   2.098   0.428   1.755
    1STR    H1E 5956   2.090   0.772   1.497
    1STR    H1F 5957   1.907   0.642   1.287
    1STR    H1G 5958   1.916   0.814   1.309
    1STR    H1H 5959   2.060   0.724   1.258
    1STR    H1I 5960   1.808   0.669   1.522
    1STR    H1J 5961   1.887   0.826   1.538
    1STR    H1K 5962   1.711   0.657   1.724
    1STR    H1M 5963   1.912   0.662   1.947
    1STR    H1N 5964   1.811   0.531   1.882
    1STR    H1O 5965   1.735   0.661   1.973
    1STR    H1P 5966   1.705   0.872   1.872
    1STR    H1Q 5967   1.871   0.893   1.831
    1STR    H1R 5968   1.616   0.954   1.582
    1STR    H1S 5969   1.579   0.902   1.386
    1STR    H1T 5970   1.698   0.778   1.390
    1STR    H1U 5971   1.747   0.939   1.415
    1STR    H1V 5972   1.505   0.702   1.606
    1STR    H1W 5973   1.425   0.853   1.601
    1STR    H1X 5974   1.494   1.052   1.954
    1STR    H1Y 5975   1.717   1.130   1.862
    1STR    H1Z 5976   1.828   1.192   1.666
    1STR    H20 5977   1.833   1.133   1.427
    1STR    H21 5978   1.697   1.156   1.320
    1STR    H22 5979   1.780   1.293   1.394
    1STR    H23 5980   1.514   1.160   1.322
    1STR    H27 5981   1.357   1.064   1.643
    1STR    H28 5982   1.953   0.272   1.826
    1STR    H29 5983   1.715   0.221   1.856
    1STR    H2A 5984   1.483   0.453   1.797
    1STR    H2B 5985   1.496   0.283   1.839
    1STR    H2C 5986   1.434   0.324   1.684
    1STR   BCK1 5987   1.566   0.339   3.065
    1STR    O03 5988   1.673   0.347   3.122
    1STR    N04 5989   1.558   0.347   2.931
    1STR    C05 5990   1.473   0.430   2.863
    1STR    C06 5991   1.420   0.529   2.937
    1STR    C07 5992   1.316   0.612   2.901
    1STR    N08 5993   1.276   0.692   3.007
    1STR    C09 5994   1.380   0.738   3.079
    1STR    O0A 5995   1.485   0.767   3.023
    1STR    O0B 5996   1.371   0.720   3.208
    1STR    C0C 5997   1.493   0.746   3.280
    1STR    C0D 5998   1.453   0.764   3.423
    1STR    C0E 5999   1.611   0.644   3.263
    1STR    O0F 6000   1.640   0.604   3.129
    1STR    C0G 6001   1.771   0.612   3.075
    1STR    C0H 6002   1.773   0.551   2.937
    1STR    C0I 6003   1.802   0.754   3.043
    1STR    O0J 6004   1.841   0.810   3.162
    1STR    C0K 6005   1.791   0.938   3.168
    1STR    C0M 6006   1.811   0.968   3.311
    1STR    C0N 6007   1.861   1.025   3.060
    1STR    O0O 6008   1.785   1.014   2.942
    1STR    C0P 6009   1.664   1.065   2.950
    1STR    O0Q 6010   1.638   1.163   3.019
    1STR    N0R 6011   1.576   0.992   2.881
    1STR    C0S 6012   1.439   0.993   2.899
    1STR    C0T 6013   1.344   0.948   2.806
    1STR    C0U 6014   1.207   0.944   2.840
    1STR    C0V 6015   1.167   0.969   2.973
    1STR    C0W 6016   1.024   0.952   3.014
    1STR    C0X 6017   1.263   1.001   3.070
    1STR    N0Y 6018   1.235   1.009   3.206
    1STR   BCK2 6019   1.298   1.089   3.292
    1STR    O10 6020   1.296   1.065   3.412
    1STR    C13 6021   1.396   1.012   3.029
    1STR    C14 6022   1.263   0.599   2.772
    1STR    C15 6023   1.326   0.506   2.685
    1STR    C16 6024   1.432   0.424   2.731
    1STR    C17 6025   1.500   0.328   2.643
    1STR    H1B 6026   1.649   0.343   2.889
    1STR    H1C 6027   1.455   0.533   3.037
    1STR    H1D 6028   1.182   0.709   3.037
    1STR    H1E 6029   1.526   0.844   3.247
    1STR    H1F 6030   1.418   0.672   3.466
    1STR    H1G 6031   1.538   0.802   3.480
    1STR    H1H 6032   1.372   0.836   3.429
    1STR    H1I 6033   1.587   0.551   3.313
    1STR    H1J 6034   1.700   0.682   3.310
    1STR    H1K 6035   1.844   0.566   3.140
    1STR    H1M 6036   1.686   0.582   2.881
    1STR    H1N 6037   1.782   0.444   2.940
    1STR    H1O 6038   1.861   0.584   2.884
    1STR    H1P 6039   1.883   0.769   2.972
    1STR    H1Q 6040   1.713   0.795   2.996
    1STR    H1R 6041   1.683   0.938   3.155
    1STR    H1S 6042   1.748   1.054   3.323
    1STR    H1T 6043   1.916   0.983   3.336
    1STR    H1U 6044   1.770   0.891   3.376
    1STR    H1V 6045   1.964   0.993   3.043
    1STR    H1W 6046   1.864   1.129   3.085
    1STR    H1X 6047   1.615   0.924   2.818
    1STR    H1Y 6048   1.374   0.912   2.709
    1STR    H1Z 6049   1.136   0.914   2.766
    1STR    H20 6050   1.000   1.029   3.087
    1STR    H21 6051   0.960   0.964   2.927
    1STR    H22 6052   1.010   0.854   3.059
    1STR    H23 6053   1.171   0.944   3.246
    1STR    H27 6054   1.472   1.018   3.104
    1STR    H28 6055   1.180   0.660   2.739
    1STR    H29 6056   1.291   0.495   2.583
    1STR    H2A 6057   1.590   0.286   2.685
    1STR    H2B 6058   1.526   0.383   2.553
    1STR    H2C 6059   1.428   0.250   2.625
    1STR   BCK1 6060   1.664   0.421   4.674
    1STR    O03 6061   1.784   0.414   4.694
    1STR    N04 6062   1.572   0.390   4.766
    1STR    C05 6063   1.580   0.385   4.904
    1STR    C06 6064   1.689   0.440   4.971
    1STR    C07 6065   1.674   0.495   5.100
    1STR    N08 6066   1.778   0.568   5.152
    1STR    C09 6067   1.764   0.696   5.127
    1STR    O0A 6068   1.683   0.770   5.182
    1STR    O0B 6069   1.834   0.718   5.017
    1STR    C0C 6070   1.773   0.790   4.912
    1STR    C0D 6071   1.884   0.837   4.819
    1STR    C0E 6072   1.669   0.710   4.836
    1STR    O0F 6073   1.566   0.670   4.927
    1STR    C0G 6074   1.433   0.674   4.884
    1STR    C0H 6075   1.334   0.629   4.990
    1STR    C0I 6076   1.413   0.818   4.877
    1STR    O0J 6077   1.380   0.849   4.747
    1STR    C0K 6078   1.245   0.848   4.711
    1STR    C0M 6079   1.259   0.768   4.582
    1STR    C0N 6080   1.128   0.798   4.800
    1STR    O0O 6081   1.119   0.849   4.934
    1STR    C0P 6082   1.108   0.978   4.955
    1STR    O0Q 6083   1.059   1.053   4.872
    1STR    N0R 6084   1.182   1.013   5.062
    1STR    C0S 6085   1.312   1.064   5.046
    1STR    C0T 6086   1.411   1.046   5.144
    1STR    C0U 6087   1.547   1.061   5.109
    1STR    C0V 6088   1.585   1.088   4.976
    1STR    C0W 6089   1.730   1.108   4.947
    1STR    C0X 6090   1.487   1.105   4.875
    1STR    N0Y 6091   1.511   1.090   4.738
    1STR   BCK2 6092   1.427   1.140   4.647
    1STR    O10 6093   1.354   1.231   4.675
    1STR    C13 6094   1.354   1.098   4.917
    1STR    C14 6095   1.554   0.480   5.170
    1STR    C15 6096   1.451   0.405   5.112
    1STR    C16 6097   1.464   0.359   4.979
    1STR    C17 6098   1.344   0.297   4.915
    1STR    H1B 6099   1.476   0.386   4.732
    1STR    H1C 6100   1.781   0.459   4.917
    1STR    H1D 6101   1.864   0.542   5.108
    1STR    H1E 6102   1.716   0.868   4.957
    1STR    H1F 6103   1.935   0.751   4.775
    1STR    H1G 6104   1.844   0.898   4.739
    1STR    H1H 6105   1.957   0.896   4.875
    1STR    H1I 6106   1.721   0.626   4.796
    1STR    H1J 6107   1.630   0.768   4.752
    1STR    H1K 6108   1.421   0.625   4.788
    1STR    H1M 6109   1.376   0.640   5.089
    1STR    H1N 6110   1.296   0.531   4.969
    1STR    H1O 6111   1.240   0.680   4.996
    1STR    H1P 6112   1.346   0.851   4.953
    1STR    H1Q 6113   1.503   0.870   4.906
    1STR    H1R 6114   1.226   0.953   4.697
    1STR    H1S 6115   1.173   0.782   4.516
    1STR    H1T 6116   1.272   0.662   4.604
    1STR    H1U 6117   1.348   0.796   4.527
    1STR    H1V 6118   1.132   0.690   4.805
    1STR    H1W 6119   1.036   0.825   4.750
    1STR    H1X 6120   1.175   0.947   5.137
    1STR    H1Y 6121   1.387   1.015   5.244
    1STR    H1Z 6122   1.623   1.048   5.183
    1STR    H20 6123   1.753   1.110   4.841
    1STR    H21 6124   1.747   1.203   4.993
    1STR    H22 6125   1.798   1.044   5.002
    1STR    H23 6126   1.573   1.016   4.709
    1STR    H27 6127   1.281   1.099   4.840
    1STR    H28 6128   1.542   0.522   5.269
    1STR    H29 6129   1.360   0.387   5.167
    1STR    H2A 6130   1.296   0.364   4.847
    1STR    H2B 6131   1.271   0.278   4.992
    1STR    H2C 6132   1.370   0.205   4.865
    1STR   BCK1 6133   1.702   1.945   6.244
    1STR    O03 6134   1.655   1.983   6.139
    1STR    N04 6135   1.821   1.888   6.249
    1STR    C05 6136   1.907   1.912   6.145
    1STR    C06 6137   1.945   2.044   6.125
    1STR    C07 6138   1.966   2.092   5.996
    1STR    N08 6139   1.919   2.220   5.976
    1STR    C09 6140   1.871   2.269   5.863
    1STR    O0A 6141   1.916   2.242   5.752
    1STR    O0B 6142   1.761   2.346   5.874
    1STR    C0C 6143   1.690   2.385   5.991
    1STR    C0D 6144   1.557   2.423   5.931
    1STR    C0E 6145   1.663   2.286   6.104
    1STR    O0F 6146   1.780   2.270   6.182
    1STR    C0G 6147   1.771   2.298   6.318
    1STR    C0H 6148   1.902   2.261   0.046
    1STR    C0I 6149   1.739   2.444   6.327
    1STR    O0J 6150   1.602   2.446   0.023
    1STR    C0K 6151   1.562   2.465   0.158
    1STR    C0M 6152   1.422   2.408   0.151
    1STR    C0N 6153   1.645   2.401   0.271
    1STR    O0O 6154   1.778   2.442   0.255
    1STR    C0P 6155   1.861   2.474   0.352
    1STR    O0Q 6156   1.868   2.415   0.458
    1STR    N0R 6157   1.937   2.578   0.316
    1STR    C0S 6158   1.914   2.650   0.200
    1STR    C0T 6159   2.011   2.661   0.099
    1STR    C0U 6160   1.974   2.711   6.313
    1STR    C0V 6161   1.842   2.753   6.290
    1STR    C0W 6162   1.806   2.800   6.156
    1STR    C0X 6163   1.745   2.749   0.052
    1STR    N0Y 6164   1.614   2.791   0.043
    1STR   BCK2 6165   1.511   2.742   6.316
    1STR    O10 6166   1.402   2.784   0.008
    1STR    C13 6167   1.784   2.696   0.173
    1STR    C14 6168   1.994   2.000   5.894
    1STR    C15 6169   1.980   1.863   5.920
    1STR    C16 6170   1.926   1.820   6.042
    1STR    C17 6171   1.882   1.680   6.060
    1STR    H1B 6172   1.858   1.867   0.000
    1STR    H1C 6173   1.925   2.109   6.205
    1STR    H1D 6174   1.872   2.255   6.060
    1STR    H1E 6175   1.739   2.474   6.030
    1STR    H1F 6176   1.518   2.346   5.866
    1STR    H1G 6177   1.483   2.436   6.008
    1STR    H1H 6178   1.569   2.514   5.873
    1STR    H1I 6179   1.635   2.192   6.061
    1STR    H1J 6180   1.578   2.317   6.165
    1STR    H1K 6181   1.691   2.243   0.026
    1STR    H1M 6182   1.988   2.292   6.326
    1STR    H1N 6183   1.904   2.154   0.059
    1STR    H1O 6184   1.915   2.301   0.145
    1STR    H1P 6185   1.812   2.493   0.046
    1STR    H1Q 6186   1.753   2.496   6.233
    1STR    H1R 6187   1.552   2.571   0.175
    1STR    H1S 6188   1.368   2.429   0.243
    1STR    H1T 6189   1.428   2.301   0.136
    1STR    H1U 6190   1.369   2.452   0.067
    1STR    H1V 6191   1.644   2.293   0.265
    1STR    H1W 6192   1.607   2.432   0.367
    1STR    H1X 6193   2.002   2.616   0.384
    1STR    H1Y 6194   2.111   2.624   0.115
    1STR    H1Z 6195   2.046   2.716   6.233
    1STR    H20 6196   1.769   2.715   6.099
    1STR    H21 6197   1.730   2.877   6.163
    1STR    H22 6198   1.895   2.839   6.109
    1STR    H23 6199   1.584   2.854   0.116
    1STR    H27 6200   1.710   2.685   0.247
    1STR    H28 6201   2.014   2.031   5.793
    1STR    H29 6202   1.998   1.792   5.841
    1STR    H2A 6203   1.830   1.664   6.154
    1STR    H2B 6204   1.975   1.625   6.057
    1STR    H2C 6205   1.816   1.648   5.982
    1STR   BCK1 6206   1.693   2.066   1.642
    1STR    O03 6207   1.796   2.130   1.650
    1STR    N04 6208   1.620   2.071   1.755
    1STR    C05 6209   1.487   2.060   1.795
    1STR    C06 6210   1.386   2.047   1.702
    1STR    C07 6211   1.253   2.063   1.735
    1STR    N08 6212   1.169   2.083   1.628
    1STR    C09 6213   1.195   2.196   1.566
    1STR    O0A 6214   1.165   2.206   1.449
    1STR    O0B 6215   1.252   2.287   1.655
    1STR    C0C 6216   1.366   2.369   1.641
    1STR    C0D 6217   1.425   2.396   1.779
    1STR    C0E 6218   1.475   2.311   1.551
    1STR    O0F 6219   1.421   2.281   1.426
    1STR    C0G 6220   1.509   2.287   1.317
    1STR    C0H 6221   1.436   2.205   1.219
    1STR    C0I 6222   1.536   2.414   1.245
    1STR    O0J 6223   1.578   2.507   1.337
    1STR    C0K 6224   1.468   2.560   1.403
    1STR    C0M 6225   1.534   2.626   1.521
    1STR    C0N 6226   1.380   2.645   1.321
    1STR    O0O 6227   1.263   2.595   1.252
    1STR    C0P 6228   1.200   2.474   1.269
    1STR    O0Q 6229   1.204   2.392   1.180
    1STR    N0R 6230   1.125   2.447   1.378
    1STR    C0S 6231   1.094   2.506   1.501
    1STR    C0T 6232   1.042   2.444   1.616
    1STR    C0U 6233   1.077   2.494   1.744
    1STR    C0V 6234   1.150   2.614   1.756
    1STR    C0W 6235   1.224   2.649   1.882
    1STR    C0X 6236   1.167   2.692   1.641
    1STR    N0Y 6237   1.234   2.811   1.634
    1STR   BCK2 6238   1.231   2.893   1.531
    1STR    O10 6239   1.331   2.911   1.469
    1STR    C13 6240   1.142   2.630   1.520
    1STR    C14 6241   1.212   2.089   1.866
    1STR    C15 6242   1.311   2.097   1.964
    1STR    C16 6243   1.447   2.087   1.929
    1STR    C17 6244   1.545   2.118   2.038
    1STR    H1B 6245   1.681   2.101   1.828
    1STR    H1C 6246   1.407   2.051   1.599
    1STR    H1D 6247   1.140   2.009   1.563
    1STR    H1E 6248   1.327   2.464   1.610
    1STR    H1F 6249   1.489   2.316   1.812
    1STR    H1G 6250   1.487   2.486   1.776
    1STR    H1H 6251   1.346   2.409   1.852
    1STR    H1I 6252   1.513   2.226   1.599
    1STR    H1J 6253   1.566   2.370   1.543
    1STR    H1K 6254   1.608   2.252   1.340
    1STR    H1M 6255   1.336   2.175   1.247
    1STR    H1N 6256   1.506   2.124   1.210
    1STR    H1O 6257   1.421   2.254   1.123
    1STR    H1P 6258   1.617   2.395   1.175
    1STR    H1Q 6259   1.453   2.450   1.185
    1STR    H1R 6260   1.392   2.494   1.432
    1STR    H1S 6261   1.466   2.686   1.580
    1STR    H1T 6262   1.612   2.683   1.473
    1STR    H1U 6263   1.588   2.562   1.589
    1STR    H1V 6264   1.441   2.705   1.259
    1STR    H1W 6265   1.350   2.714   1.392
    1STR    H1X 6266   1.115   2.345   1.379
    1STR    H1Y 6267   0.999   2.345   1.608
    1STR    H1Z 6268   1.063   2.433   1.831
    1STR    H20 6269   1.214   2.571   1.957
    1STR    H21 6270   1.331   2.658   1.859
    1STR    H22 6271   1.188   2.742   1.922
    1STR    H23 6272   1.315   2.826   1.697
    1STR    H27 6273   1.170   2.675   1.432
    1STR    H28 6274   1.108   2.108   1.888
    1STR    H29 6275   1.283   2.119   2.066
    1STR    H2A 6276   1.517   2.059   2.125
    1STR    H2B 6277   1.542   2.224   2.059
    1STR    H2C 6278   1.645   2.091   2.010
    1STR   BCK1 6279   1.505   2.134   3.305
    1STR    O03 6280   1.593   2.175   3.233
    1STR    N04 6281   1.532   2.071   3.419
    1STR    C05 6282   1.660   2.022   3.445
    1STR    C06 6283   1.749   2.057   3.551
    1STR    C07 6284   1.886   2.014   3.548
    1STR    N08 6285   2.004   2.086   3.530
    1STR    C09 6286   2.047   2.206   3.560
    1STR    O0A 6287   2.029   2.264   3.667
    1STR    O0B 6288   2.095   2.260   3.444
    1STR    C0C 6289   2.005   2.329   3.356
    1STR    C0D 6290   2.049   2.355   3.213
    1STR    C0E 6291   1.869   2.260   3.349
    1STR    O0F 6292   1.819   2.288   3.478
    1STR    C0G 6293   1.703   2.358   3.501
    1STR    C0H 6294   1.670   2.364   3.650
    1STR    C0I 6295   1.743   2.490   3.451
    1STR    O0J 6296   1.742   2.491   3.309
    1STR    C0K 6297   1.628   2.444   3.236
    1STR    C0M 6298   1.657   2.403   3.090
    1STR    C0N 6299   1.480   2.442   3.287
    1STR    O0O 6300   1.446   2.452   3.424
    1STR    C0P 6301   1.436   2.563   3.497
    1STR    O0Q 6302   1.378   2.561   3.605
    1STR    N0R 6303   1.494   2.677   3.458
    1STR    C0S 6304   1.559   2.718   3.344
    1STR    C0T 6305   1.695   2.752   3.348
    1STR    C0U 6306   1.766   2.762   3.228
    1STR    C0V 6307   1.698   2.741   3.107
    1STR    C0W 6308   1.781   2.719   2.988
    1STR    C0X 6309   1.558   2.725   3.102
    1STR    N0Y 6310   1.498   2.680   2.985
    1STR   BCK2 6311   1.386   2.611   2.969
    1STR    O10 6312   1.303   2.587   3.056
    1STR    C13 6313   1.488   2.730   3.224
    1STR    C14 6314   1.909   1.899   3.479
    1STR    C15 6315   1.817   1.856   3.388
    1STR    C16 6316   1.711   1.932   3.352
    1STR    C17 6317   1.676   1.924   3.208
    1STR    H1B 6318   1.458   2.049   3.482
    1STR    H1C 6319   1.722   2.131   3.622
    1STR    H1D 6320   2.042   2.070   3.437
    1STR    H1E 6321   1.997   2.427   3.400
    1STR    H1F 6322   2.007   2.281   3.146
    1STR    H1G 6323   2.007   2.448   3.177
    1STR    H1H 6324   2.158   2.357   3.206
    1STR    H1I 6325   1.876   2.154   3.327
    1STR    H1J 6326   1.810   2.290   3.265
    1STR    H1K 6327   1.622   2.309   3.448
    1STR    H1M 6328   1.762   2.359   3.708
    1STR    H1N 6329   1.604   2.282   3.678
    1STR    H1O 6330   1.615   2.454   3.677
    1STR    H1P 6331   1.684   2.562   3.502
    1STR    H1Q 6332   1.840   2.520   3.489
    1STR    H1R 6333   1.623   2.539   3.204
    1STR    H1S 6334   1.565   2.399   3.033
    1STR    H1T 6335   1.709   2.308   3.080
    1STR    H1U 6336   1.723   2.475   3.042
    1STR    H1V 6337   1.431   2.355   3.253
    1STR    H1W 6338   1.415   2.508   3.235
    1STR    H1X 6339   1.480   2.749   3.529
    1STR    H1Y 6340   1.749   2.760   3.441
    1STR    H1Z 6341   1.872   2.779   3.231
    1STR    H20 6342   1.867   2.659   3.016
    1STR    H21 6343   1.732   2.661   2.911
    1STR    H22 6344   1.809   2.819   2.956
    1STR    H23 6345   1.549   2.700   2.900
    1STR    H27 6346   1.381   2.717   3.229
    1STR    H28 6347   2.006   1.855   3.481
    1STR    H29 6348   1.844   1.782   3.322
    1STR    H2A 6349   1.569   1.924   3.193
    1STR    H2B 6350   1.721   1.833   3.172
    1STR    H2C 6351   1.724   2.001   3.148
    1STR   BCK1 6352   1.611   1.923   4.734
    1STR    O03 6353   1.700   1.891   4.810
    1STR    N04 6354   1.620   1.903   4.604
    1STR    C05 6355   1.650   2.005   4.516
    1STR    C06 6356   1.683   2.129   4.563
    1STR    C07 6357   1.650   2.239   4.486
    1STR    N08 6358   1.581   2.333   4.557
    1STR    C09 6359   1.448   2.317   4.556
    1STR    O0A 6360   1.384   2.304   4.453
    1STR    O0B 6361   1.390   2.297   4.676
    1STR    C0C 6362   1.440   2.334   4.804
    1STR    C0D 6363   1.310   2.388   4.862
    1STR    C0E 6364   1.496   2.229   4.901
    1STR    O0F 6365   1.620   2.168   4.867
    1STR    C0G 6366   1.741   2.217   4.926
    1STR    C0H 6367   1.834   2.107   4.973
    1STR    C0I 6368   1.827   2.283   4.823
    1STR    O0J 6369   1.740   2.363   4.750
    1STR    C0K 6370   1.766   2.498   4.760
    1STR    C0M 6371   1.727   2.542   4.901
    1STR    C0N 6372   1.908   2.528   4.710
    1STR    O0O 6373   1.951   2.426   4.619
    1STR    C0P 6374   1.947   2.449   4.488
    1STR    O0Q 6375   2.049   2.468   4.423
    1STR    N0R 6376   1.822   2.462   4.441
    1STR    C0S 6377   1.772   2.570   4.371
    1STR    C0T 6378   1.869   2.655   4.315
    1STR    C0U 6379   1.907   2.765   4.392
    1STR    C0V 6380   1.834   2.797   4.508
    1STR    C0W 6381   1.897   2.892   4.605
    1STR    C0X 6382   1.709   2.736   4.533
    1STR    N0Y 6383   1.647   2.768   4.652
    1STR   BCK2 6384   1.536   2.733   4.718
    1STR    O10 6385   1.518   2.766   4.833
    1STR    C13 6386   1.671   2.628   4.450
    1STR    C14 6387   1.641   2.230   4.347
    1STR    C15 6388   1.633   2.102   4.292
    1STR    C16 6389   1.623   1.993   4.379
    1STR    C17 6390   1.568   1.867   4.329
    1STR    H1B 6391   1.549   1.836   4.575
    1STR    H1C 6392   1.699   2.138   4.668
    1STR    H1D 6393   1.624   2.346   4.650
    1STR    H1E 6394   1.513   2.412   4.795
    1STR    H1F 6395   1.242   2.306   4.883
    1STR    H1G 6396   1.328   2.447   4.952
    1STR    H1H 6397   1.258   2.452   4.791
    1STR    H1I 6398   1.423   2.149   4.910
    1STR    H1J 6399   1.504   2.273   5.000
    1STR    H1K 6400   1.719   2.286   5.008
    1STR    H1M 6401   1.860   2.040   4.890
    1STR    H1N 6402   1.795   2.048   5.052
    1STR    H1O 6403   1.926   2.149   5.011
    1STR    H1P 6404   1.909   2.336   4.872
    1STR    H1Q 6405   1.873   2.214   4.753
    1STR    H1R 6406   1.695   2.536   4.690
    1STR    H1S 6407   1.709   2.648   4.904
    1STR    H1T 6408   1.805   2.517   4.973
    1STR    H1U 6409   1.634   2.500   4.936
    1STR    H1V 6410   1.977   2.532   4.793
    1STR    H1W 6411   1.913   2.626   4.666
    1STR    H1X 6412   1.751   2.412   4.495
    1STR    H1Y 6413   1.937   2.616   4.242
    1STR    H1Z 6414   1.997   2.818   4.368
    1STR    H20 6415   1.892   2.994   4.572
    1STR    H21 6416   1.849   2.893   4.701
    1STR    H22 6417   2.001   2.866   4.621
    1STR    H23 6418   1.699   2.836   4.704
    1STR    H27 6419   1.587   2.566   4.474
    1STR    H28 6420   1.622   2.317   4.285
    1STR    H29 6421   1.617   2.094   4.186
    1STR    H2A 6422   1.583   1.782   4.395
    1STR    H2B 6423   1.622   1.848   4.242
    1STR    H2C 6424   1.464   1.883   4.303
    1STR   BCK1 6425   1.543   3.623   6.252
    1STR    O03 6426   1.659   3.586   6.240
    1STR    N04 6427   1.455   3.558   6.328
    1STR    C05 6428   1.447   3.570   0.127
    1STR    C06 6429   1.549   3.627   0.204
    1STR    C07 6430   1.529   3.662   0.339
    1STR    N08 6431   1.631   3.725   0.404
    1STR    C09 6432   1.643   3.850   0.364
    1STR    O0A 6433   1.557   3.934   0.384
    1STR    O0B 6434   1.746   3.855   0.278
    1STR    C0C 6435   1.743   3.947   0.170
    1STR    C0D 6436   1.884   3.984   0.133
    1STR    C0E 6437   1.660   3.904   0.049
    1STR    O0F 6438   1.537   3.861   0.102
    1STR    C0G 6439   1.421   3.893   0.033
    1STR    C0H 6440   1.306   3.805   0.071
    1STR    C0I 6441   1.379   4.022   0.081
    1STR    O0J 6442   1.333   4.090   6.311
    1STR    C0K 6443   1.226   4.051   6.229
    1STR    C0M 6444   1.289   4.012   6.094
    1STR    C0N 6445   1.095   3.979   6.265
    1STR    O0O 6446   1.054   3.994   0.061
    1STR    C0P 6447   1.009   4.109   0.105
    1STR    O0Q 6448   0.962   4.197   0.034
    1STR    N0R 6449   1.042   4.122   0.235
    1STR    C0S 6450   1.157   4.192   0.271
    1STR    C0T 6451   1.232   4.151   0.382
    1STR    C0U 6452   1.369   4.183   0.388
    1STR    C0V 6453   1.432   4.248   0.281
    1STR    C0W 6454   1.581   4.236   0.275
    1STR    C0X 6455   1.355   4.297   0.172
    1STR    N0Y 6456   1.411   4.327   0.048
    1STR   BCK2 6457   1.349   4.388   6.287
    1STR    O10 6458   1.251   4.457   6.307
    1STR    C13 6459   1.216   4.276   0.177
    1STR    C14 6460   1.408   3.631   0.403
    1STR    C15 6461   1.307   3.567   0.329
    1STR    C16 6462   1.326   3.539   0.192
    1STR    C17 6463   1.207   3.503   0.110
    1STR    H1B 6464   1.365   3.544   6.281
    1STR    H1C 6465   1.642   3.655   0.157
    1STR    H1D 6466   1.721   3.676   0.394
    1STR    H1E 6467   1.697   4.035   0.208
    1STR    H1F 6468   1.942   3.896   0.108
    1STR    H1G 6469   1.881   4.051   0.047
    1STR    H1H 6470   1.930   4.037   0.216
    1STR    H1I 6471   1.709   3.822   6.336
    1STR    H1J 6472   1.647   3.987   6.320
    1STR    H1K 6473   1.441   3.900   6.267
    1STR    H1M 6474   1.323   3.777   0.174
    1STR    H1N 6475   1.293   3.729   6.337
    1STR    H1O 6476   1.210   3.846   0.085
    1STR    H1P 6477   1.310   4.018   0.165
    1STR    H1Q 6478   1.468   4.070   0.116
    1STR    H1R 6479   1.188   4.150   6.236
    1STR    H1S 6480   1.228   4.041   6.008
    1STR    H1T 6481   1.304   3.905   6.089
    1STR    H1U 6482   1.387   4.058   6.081
    1STR    H1V 6483   1.105   3.874   6.241
    1STR    H1W 6484   1.017   4.018   6.201
    1STR    H1X 6485   1.035   4.034   0.282
    1STR    H1Y 6486   1.193   4.084   0.456
    1STR    H1Z 6487   1.430   4.144   0.468
    1STR    H20 6488   1.613   4.157   0.342
    1STR    H21 6489   1.615   4.216   0.174
    1STR    H22 6490   1.636   4.317   0.316
    1STR    H23 6491   1.485   4.267   0.017
    1STR    H27 6492   1.156   4.306   0.094
    1STR    H28 6493   1.394   3.660   0.505
    1STR    H29 6494   1.212   3.548   0.376
    1STR    H2A 6495   1.161   3.586   0.056
    1STR    H2B 6496   1.130   3.467   0.177
    1STR    H2C 6497   1.236   3.429   0.036
    1STR   BCK1 6498   1.636   3.689   1.596
    1STR    O03 6499   1.614   3.730   1.482
    1STR    N04 6500   1.752   3.640   1.632
    1STR    C05 6501   1.858   3.609   1.548
    1STR    C06 6502   1.993   3.641   1.576
    1STR    C07 6503   2.090   3.638   1.475
    1STR    N08 6504   2.187   3.735   1.478
    1STR    C09 6505   2.171   3.847   1.405
    1STR    O0A 6506   2.229   3.950   1.433
    1STR    O0B 6507   2.080   3.835   1.304
    1STR    C0C 6508   1.966   3.920   1.296
    1STR    C0D 6509   1.905   3.903   1.158
    1STR    C0E 6510   1.860   3.879   1.397
    1STR    O0F 6511   1.926   3.878   1.522
    1STR    C0G 6512   1.855   3.911   1.637
    1STR    C0H 6513   1.920   3.875   1.770
    1STR    C0I 6514   1.852   4.052   1.616
    1STR    O0J 6515   1.728   4.085   1.556
    1STR    C0K 6516   1.606   4.073   1.625
    1STR    C0M 6517   1.511   3.990   1.548
    1STR    C0N 6518   1.591   4.083   1.777
    1STR    O0O 6519   1.705   4.078   1.860
    1STR    C0P 6520   1.783   4.182   1.903
    1STR    O0Q 6521   1.856   4.166   1.999
    1STR    N0R 6522   1.792   4.296   1.835
    1STR    C0S 6523   1.768   4.327   1.703
    1STR    C0T 6524   1.868   4.319   1.605
    1STR    C0U 6525   1.832   4.315   1.469
    1STR    C0V 6526   1.700   4.343   1.430
    1STR    C0W 6527   1.683   4.353   1.280
    1STR    C0X 6528   1.604   4.370   1.532
    1STR    N0Y 6529   1.466   4.366   1.529
    1STR   BCK2 6530   1.383   4.281   1.472
    1STR    O10 6531   1.277   4.258   1.527
    1STR    C13 6532   1.643   4.367   1.665
    1STR    C14 6533   2.063   3.570   1.357
    1STR    C15 6534   1.934   3.522   1.339
    1STR    C16 6535   1.834   3.540   1.431
    1STR    C17 6536   1.701   3.481   1.403
    1STR    H1B 6537   1.760   3.610   1.727
    1STR    H1C 6538   2.021   3.688   1.667
    1STR    H1D 6539   2.235   3.749   1.565
    1STR    H1E 6540   1.995   4.023   1.316
    1STR    H1F 6541   1.879   3.799   1.141
    1STR    H1G 6542   1.814   3.962   1.149
    1STR    H1H 6543   1.976   3.935   1.082
    1STR    H1I 6544   1.822   3.781   1.371
    1STR    H1J 6545   1.773   3.942   1.390
    1STR    H1K 6546   1.753   3.880   1.640
    1STR    H1M 6547   2.028   3.888   1.765
    1STR    H1N 6548   1.895   3.773   1.794
    1STR    H1O 6549   1.883   3.932   1.854
    1STR    H1P 6550   1.881   4.099   1.707
    1STR    H1Q 6551   1.933   4.084   1.549
    1STR    H1R 6552   1.554   4.157   1.594
    1STR    H1S 6553   1.540   3.977   1.444
    1STR    H1T 6554   1.407   4.020   1.559
    1STR    H1U 6555   1.522   3.901   1.597
    1STR    H1V 6556   1.526   4.003   1.810
    1STR    H1W 6557   1.539   4.175   1.800
    1STR    H1X 6558   1.852   4.364   1.881
    1STR    H1Y 6559   1.970   4.297   1.633
    1STR    H1Z 6560   1.907   4.295   1.395
    1STR    H20 6561   1.736   4.272   1.231
    1STR    H21 6562   1.582   4.354   1.243
    1STR    H22 6563   1.727   4.447   1.249
    1STR    H23 6564   1.424   4.423   1.602
    1STR    H27 6565   1.574   4.380   1.743
    1STR    H28 6566   2.134   3.571   1.276
    1STR    H29 6567   1.905   3.479   1.249
    1STR    H2A 6568   1.635   3.483   1.486
    1STR    H2B 6569   1.718   3.377   1.394
    1STR    H2C 6570   1.651   3.528   1.319
    1STR   BCK1 6571   1.635   3.714   2.967
    1STR    O03 6572   1.723   3.748   2.891
    1STR    N04 6573   1.511   3.747   2.936
    1STR    C05 6574   1.399   3.757   3.015
    1STR    C06 6575   1.410   3.783   3.152
    1STR    C07 6576   1.297   3.784   3.234
    1STR    N08 6577   1.317   3.788   3.371
    1STR    C09 6578   1.379   3.897   3.414
    1STR    O0A 6579   1.326   4.005   3.427
    1STR    O0B 6580   1.508   3.870   3.423
    1STR    C0C 6581   1.601   3.974   3.399
    1STR    C0D 6582   1.631   4.042   3.530
    1STR    C0E 6583   1.729   3.911   3.341
    1STR    O0F 6584   1.717   3.885   3.204
    1STR    C0G 6585   1.734   3.998   3.123
    1STR    C0H 6586   1.840   3.959   3.019
    1STR    C0I 6587   1.597   4.028   3.065
    1STR    O0J 6588   1.589   4.154   3.010
    1STR    C0K 6589   1.644   4.180   2.884
    1STR    C0M 6590   1.786   4.228   2.903
    1STR    C0N 6591   1.608   4.081   2.772
    1STR    O0O 6592   1.483   4.016   2.791
    1STR    C0P 6593   1.388   4.025   2.697
    1STR    O0Q 6594   1.409   4.020   2.577
    1STR    N0R 6595   1.266   4.041   2.748
    1STR    C0S 6596   1.238   4.084   2.877
    1STR    C0T 6597   1.134   4.034   2.956
    1STR    C0U 6598   1.120   4.078   3.089
    1STR    C0V 6599   1.209   4.173   3.143
    1STR    C0W 6600   1.196   4.214   3.287
    1STR    C0X 6601   1.309   4.229   3.063
    1STR    N0Y 6602   1.401   4.322   3.110
    1STR   BCK2 6603   1.473   4.407   3.036
    1STR    O10 6604   1.594   4.411   3.038
    1STR    C13 6605   1.318   4.184   2.930
    1STR    C14 6606   1.170   3.763   3.177
    1STR    C15 6607   1.159   3.739   3.039
    1STR    C16 6608   1.274   3.738   2.957
    1STR    C17 6609   1.261   3.712   2.808
    1STR    H1B 6610   1.506   3.798   2.849
    1STR    H1C 6611   1.507   3.793   3.196
    1STR    H1D 6612   1.376   3.713   3.401
    1STR    H1E 6613   1.561   4.051   3.333
    1STR    H1F 6614   1.666   3.970   3.603
    1STR    H1G 6615   1.709   4.114   3.510
    1STR    H1H 6616   1.541   4.093   3.566
    1STR    H1I 6617   1.749   3.816   3.389
    1STR    H1J 6618   1.816   3.975   3.356
    1STR    H1K 6619   1.768   4.086   3.177
    1STR    H1M 6620   1.794   3.957   2.920
    1STR    H1N 6621   1.883   3.861   3.039
    1STR    H1O 6622   1.921   4.030   3.009
    1STR    H1P 6623   1.569   3.959   2.991
    1STR    H1Q 6624   1.516   4.024   3.137
    1STR    H1R 6625   1.595   4.271   2.851
    1STR    H1S 6626   1.794   4.335   2.887
    1STR    H1T 6627   1.857   4.173   2.843
    1STR    H1U 6628   1.813   4.215   3.006
    1STR    H1V 6629   1.688   4.013   2.745
    1STR    H1W 6630   1.591   4.145   2.690
    1STR    H1X 6631   1.190   4.027   2.683
    1STR    H1Y 6632   1.069   3.958   2.917
    1STR    H1Z 6633   1.044   4.037   3.152
    1STR    H20 6634   1.295   4.227   3.330
    1STR    H21 6635   1.144   4.308   3.295
    1STR    H22 6636   1.140   4.141   3.344
    1STR    H23 6637   1.441   4.302   3.200
    1STR    H27 6638   1.394   4.224   2.867
    1STR    H28 6639   1.082   3.763   3.240
    1STR    H29 6640   1.063   3.720   2.994
    1STR    H2A 6641   1.357   3.698   2.758
    1STR    H2B 6642   1.210   3.795   2.761
    1STR    H2C 6643   1.204   3.621   2.792
    1STR   BCK1 6644   1.566   3.674   4.687
    1STR    O03 6645   1.683   3.700   4.667
    1STR    N04 6646   1.518   3.608   4.791
    1STR    C05 6647   1.584   3.580   4.908
    1STR    C06 6648   1.720   3.552   4.909
    1STR    C07 6649   1.791   3.556   5.029
    1STR    N08 6650   1.927   3.558   5.022
    1STR    C09 6651   1.999   3.665   5.052
    1STR    O0A 6652   2.011   3.712   5.165
    1STR    O0B 6653   2.038   3.721   4.939
    1STR    C0C 6654   1.987   3.848   4.903
    1STR    C0D 6655   1.989   3.863   4.752
    1STR    C0E 6656   1.842   3.866   4.935
    1STR    O0F 6657   1.817   3.877   5.073
    1STR    C0G 6658   1.680   3.889   5.099
    1STR    C0H 6659   1.646   3.862   5.244
    1STR    C0I 6660   1.645   4.032   5.073
    1STR    O0J 6661   1.646   4.063   4.937
    1STR    C0K 6662   1.559   3.998   4.849
    1STR    C0M 6663   1.613   4.006   4.707
    1STR    C0N 6664   1.426   3.929   4.886
    1STR    O0O 6665   1.392   3.915   5.024
    1STR    C0P 6666   1.299   3.982   5.096
    1STR    O0Q 6667   1.234   3.926   5.183
    1STR    N0R 6668   1.285   4.114   5.083
    1STR    C0S 6669   1.353   4.196   4.997
    1STR    C0T 6670   1.471   4.260   5.039
    1STR    C0U 6671   1.553   4.318   4.941
    1STR    C0V 6672   1.516   4.311   4.806
    1STR    C0W 6673   1.615   4.340   4.698
    1STR    C0X 6674   1.389   4.264   4.768
    1STR    N0Y 6675   1.358   4.273   4.636
    1STR   BCK2 6676   1.257   4.224   4.568
    1STR    O10 6677   1.156   4.176   4.617
    1STR    C13 6678   1.307   4.205   4.866
    1STR    C14 6679   1.722   3.570   5.150
    1STR    C15 6680   1.584   3.586   5.150
    1STR    C16 6681   1.513   3.596   5.029
    1STR    C17 6682   1.364   3.622   5.030
    1STR    H1B 6683   1.418   3.586   4.793
    1STR    H1C 6684   1.772   3.542   4.817
    1STR    H1D 6685   1.961   3.494   4.950
    1STR    H1E 6686   2.044   3.924   4.956
    1STR    H1F 6687   1.929   3.785   4.708
    1STR    H1G 6688   1.937   3.948   4.710
    1STR    H1H 6689   2.090   3.868   4.715
    1STR    H1I 6690   1.781   3.790   4.887
    1STR    H1J 6691   1.820   3.957   4.883
    1STR    H1K 6692   1.623   3.823   5.034
    1STR    H1M 6693   1.706   3.781   5.284
    1STR    H1N 6694   1.540   3.837   5.250
    1STR    H1O 6695   1.665   3.949   5.307
    1STR    H1P 6696   1.550   4.050   5.120
    1STR    H1Q 6697   1.718   4.097   5.122
    1STR    H1R 6698   1.507   4.084   4.836
    1STR    H1S 6699   1.532   4.015   4.634
    1STR    H1T 6700   1.677   3.924   4.684
    1STR    H1U 6701   1.676   4.092   4.694
    1STR    H1V 6702   1.441   3.829   4.854
    1STR    H1W 6703   1.340   3.962   4.827
    1STR    H1X 6704   1.225   4.155   5.152
    1STR    H1Y 6705   1.504   4.259   5.141
    1STR    H1Z 6706   1.649   4.353   4.973
    1STR    H20 6707   1.603   4.277   4.611
    1STR    H21 6708   1.603   4.443   4.666
    1STR    H22 6709   1.713   4.318   4.739
    1STR    H23 6710   1.415   4.341   4.587
    1STR    H27 6711   1.212   4.162   4.840
    1STR    H28 6712   1.779   3.576   5.241
    1STR    H29 6713   1.535   3.600   5.244
    1STR    H2A 6714   1.333   3.698   4.960
    1STR    H2B 6715   1.332   3.652   5.129
    1STR    H2C 6716   1.307   3.536   4.998
    1STR   BCK1 6717   1.668   5.244   0.038
    1STR    O03 6718   1.755   5.303   0.102
    1STR    N04 6719   1.695   5.139   6.305
    1STR    C05 6720   1.774   5.128   6.193
    1STR    C06 6721   1.759   5.221   6.094
    1STR    C07 6722   1.808   5.210   5.965
    1STR    N08 6723   1.765   5.306   5.877
    1STR    C09 6724   1.634   5.324   5.861
    1STR    O0A 6725   1.549   5.241   5.890
    1STR    O0B 6726   1.606   5.450   5.827
    1STR    C0C 6727   1.526   5.530   5.914
    1STR    C0D 6728   1.378   5.502   5.911
    1STR    C0E 6729   1.571   5.507   6.055
    1STR    O0F 6730   1.709   5.529   6.059
    1STR    C0G 6731   1.765   5.515   6.187
    1STR    C0H 6732   1.916   5.520   6.172
    1STR    C0I 6733   1.702   5.611   6.281
    1STR    O0J 6734   1.622   5.545   0.038
    1STR    C0K 6735   1.632   5.601   0.169
    1STR    C0M 6736   1.510   5.550   0.243
    1STR    C0N 6737   1.766   5.574   0.244
    1STR    O0O 6738   1.877   5.614   0.166
    1STR    C0P 6739   1.968   5.698   0.210
    1STR    O0Q 6740   2.033   5.681   0.311
    1STR    N0R 6741   1.985   5.804   0.130
    1STR    C0S 6742   1.889   5.850   0.041
    1STR    C0T 6743   1.910   5.853   6.242
    1STR    C0U 6744   1.812   5.911   6.159
    1STR    C0V 6745   1.688   5.951   6.213
    1STR    C0W 6746   1.595   6.045   6.143
    1STR    C0X 6747   1.658   5.921   0.006
    1STR    N0Y 6748   1.529   5.919   0.055
    1STR   BCK2 6749   1.425   5.849   0.008
    1STR    O10 6750   1.334   5.814   0.079
    1STR    C13 6751   1.761   5.881   0.091
    1STR    C14 6752   1.880   5.096   5.930
    1STR    C15 6753   1.889   4.992   6.025
    1STR    C16 6754   1.830   5.007   6.153
    1STR    C17 6755   1.798   4.891   6.236
    1STR    H1B 6756   1.623   5.066   6.317
    1STR    H1C 6757   1.688   5.294   6.115
    1STR    H1D 6758   1.822   5.388   5.864
    1STR    H1E 6759   1.546   5.634   5.890
    1STR    H1F 6760   1.357   5.407   5.962
    1STR    H1G 6761   1.322   5.576   5.967
    1STR    H1H 6762   1.340   5.498   5.810
    1STR    H1I 6763   1.541   5.408   6.084
    1STR    H1J 6764   1.514   5.563   6.126
    1STR    H1K 6765   1.747   5.423   6.237
    1STR    H1M 6766   1.946   5.604   6.111
    1STR    H1N 6767   1.950   5.428   6.125
    1STR    H1O 6768   1.963   5.526   6.270
    1STR    H1P 6769   1.786   5.655   6.321
    1STR    H1Q 6770   1.655   5.692   6.229
    1STR    H1R 6771   1.612   5.706   0.162
    1STR    H1S 6772   1.508   5.585   0.345
    1STR    H1T 6773   1.511   5.444   0.249
    1STR    H1U 6774   1.419   5.580   0.191
    1STR    H1V 6775   1.780   5.469   0.266
    1STR    H1W 6776   1.768   5.626   0.339
    1STR    H1X 6777   2.057   5.865   0.161
    1STR    H1Y 6778   2.004   5.823   6.200
    1STR    H1Z 6779   1.839   5.935   6.058
    1STR    H20 6780   1.610   6.056   6.038
    1STR    H21 6781   1.491   6.028   6.164
    1STR    H22 6782   1.618   6.139   6.190
    1STR    H23 6783   1.519   5.947   0.151
    1STR    H27 6784   1.743   5.870   0.197
    1STR    H28 6785   1.913   5.081   5.829
    1STR    H29 6786   1.930   4.897   5.995
    1STR    H2A 6787   1.703   4.907   6.283
    1STR    H2B 6788   1.846   4.883   6.330
    1STR    H2C 6789   1.798   4.803   6.174
    1STR   BCK1 6790   1.556   5.174   1.564
    1STR    O03 6791   1.673   5.179   1.534
    1STR    N04 6792   1.517   5.161   1.691
    1STR    C05 6793   1.397   5.195   1.753
    1STR    C06 6794   1.303   5.278   1.691
    1STR    C07 6795   1.217   5.352   1.770
    1STR    N08 6796   1.229   5.487   1.757
    1STR    C09 6797   1.346   5.547   1.783
    1STR    O0A 6798   1.346   5.646   1.854
    1STR    O0B 6799   1.460   5.484   1.741
    1STR    C0C 6800   1.587   5.536   1.775
    1STR    C0D 6801   1.614   5.484   1.916
    1STR    C0E 6802   1.708   5.498   1.686
    1STR    O0F 6803   1.687   5.424   1.570
    1STR    C0G 6804   1.652   5.487   1.451
    1STR    C0H 6805   1.706   5.408   1.338
    1STR    C0I 6806   1.500   5.484   1.444
    1STR    O0J 6807   1.438   5.591   1.505
    1STR    C0K 6808   1.463   5.710   1.442
    1STR    C0M 6809   1.589   5.779   1.489
    1STR    C0N 6810   1.435   5.709   1.291
    1STR    O0O 6811   1.297   5.701   1.257
    1STR    C0P 6812   1.220   5.595   1.285
    1STR    O0Q 6813   1.237   5.485   1.233
    1STR    N0R 6814   1.117   5.616   1.369
    1STR    C0S 6815   1.106   5.719   1.461
    1STR    C0T 6816   1.076   5.691   1.595
    1STR    C0U 6817   1.129   5.774   1.695
    1STR    C0V 6818   1.219   5.875   1.659
    1STR    C0W 6819   1.328   5.911   1.756
    1STR    C0X 6820   1.227   5.918   1.525
    1STR    N0Y 6821   1.337   5.997   1.491
    1STR   BCK2 6822   1.397   6.031   1.377
    1STR    O10 6823   1.518   6.035   1.371
    1STR    C13 6824   1.156   5.845   1.430
    1STR    C14 6825   1.182   5.307   1.897
    1STR    C15 6826   1.262   5.210   1.957
    1STR    C16 6827   1.375   5.162   1.888
    1STR    C17 6828   1.476   5.085   1.963
    1STR    H1B 6829   1.596   5.137   1.748
    1STR    H1C 6830   1.318   5.317   1.592
    1STR    H1D 6831   1.150   5.544   1.780
    1STR    H1E 6832   1.579   5.644   1.773
    1STR    H1F 6833   1.615   5.375   1.914
    1STR    H1G 6834   1.710   5.521   1.951
    1STR    H1H 6835   1.535   5.516   1.985
    1STR    H1I 6836   1.772   5.429   1.740
    1STR    H1J 6837   1.770   5.585   1.663
    1STR    H1K 6838   1.702   5.581   1.440
    1STR    H1M 6839   1.649   5.316   1.333
    1STR    H1N 6840   1.810   5.381   1.350
    1STR    H1O 6841   1.691   5.463   1.245
    1STR    H1P 6842   1.458   5.458   1.347
    1STR    H1Q 6843   1.469   5.407   1.510
    1STR    H1R 6844   1.387   5.761   1.493
    1STR    H1S 6845   1.562   5.876   1.528
    1STR    H1T 6846   1.663   5.792   1.411
    1STR    H1U 6847   1.632   5.730   1.575
    1STR    H1V 6848   1.491   5.634   1.238
    1STR    H1W 6849   1.471   5.804   1.256
    1STR    H1X 6850   1.063   5.533   1.382
    1STR    H1Y 6851   1.031   5.597   1.622
    1STR    H1Z 6852   1.123   5.747   1.799
    1STR    H20 6853   1.363   6.009   1.731
    1STR    H21 6854   1.293   5.912   1.859
    1STR    H22 6855   1.414   5.846   1.746
    1STR    H23 6856   1.393   6.015   1.572
    1STR    H27 6857   1.168   5.859   1.326
    1STR    H28 6858   1.109   5.360   1.956
    1STR    H29 6859   1.242   5.179   2.058
    1STR    H2A 6860   1.476   4.983   1.929
    1STR    H2B 6861   1.460   5.089   2.070
    1STR    H2C 6862   1.569   5.132   1.936
    1STR   BCK1 6863   1.532   5.359   3.066
    1STR    O03 6864   1.607   5.335   2.972
    1STR    N04 6865   1.528   5.290   3.178
    1STR    C05 6866   1.624   5.209   3.232
    1STR    C06 6867   1.759   5.215   3.197
    1STR    C07 6868   1.857   5.161   3.282
    1STR    N08 6869   1.986   5.209   3.298
    1STR    C09 6870   2.054   5.304   3.236
    1STR    O0A 6871   2.159   5.354   3.277
    1STR    O0B 6872   1.998   5.339   3.124
    1STR    C0C 6873   1.960   5.470   3.115
    1STR    C0D 6874   1.903   5.492   2.975
    1STR    C0E 6875   1.858   5.498   3.222
    1STR    O0F 6876   1.877   5.454   3.355
    1STR    C0G 6877   1.763   5.471   3.437
    1STR    C0H 6878   1.772   5.383   3.557
    1STR    C0I 6879   1.766   5.615   3.478
    1STR    O0J 6880   1.733   5.691   3.367
    1STR    C0K 6881   1.618   5.659   3.288
    1STR    C0M 6882   1.636   5.661   3.135
    1STR    C0N 6883   1.482   5.629   3.354
    1STR    O0O 6884   1.484   5.640   3.496
    1STR    C0P 6885   1.431   5.742   3.569
    1STR    O0Q 6886   1.373   5.719   3.675
    1STR    N0R 6887   1.445   5.869   3.531
    1STR    C0S 6888   1.523   5.923   3.432
    1STR    C0T 6889   1.662   5.940   3.450
    1STR    C0U 6890   1.743   5.960   3.336
    1STR    C0V 6891   1.682   5.970   3.208
    1STR    C0W 6892   1.764   5.993   3.087
    1STR    C0X 6893   1.543   5.960   3.193
    1STR    N0Y 6894   1.493   5.949   3.066
    1STR   BCK2 6895   1.396   5.870   3.026
    1STR    O10 6896   1.331   5.792   3.095
    1STR    C13 6897   1.464   5.939   3.306
    1STR    C14 6898   1.817   5.062   3.369
    1STR    C15 6899   1.681   5.046   3.395
    1STR    C16 6900   1.585   5.128   3.337
    1STR    C17 6901   1.443   5.117   3.382
    1STR    H1B 6902   1.441   5.293   3.228
    1STR    H1C 6903   1.786   5.276   3.115
    1STR    H1D 6904   2.044   5.170   3.372
    1STR    H1E 6905   2.049   5.530   3.134
    1STR    H1F 6906   1.828   5.419   2.949
    1STR    H1G 6907   1.851   5.587   2.967
    1STR    H1H 6908   1.982   5.486   2.902
    1STR    H1I 6909   1.762   5.460   3.192
    1STR    H1J 6910   1.860   5.604   3.219
    1STR    H1K 6911   1.670   5.441   3.388
    1STR    H1M 6912   1.873   5.384   3.597
    1STR    H1N 6913   1.747   5.283   3.522
    1STR    H1O 6914   1.700   5.412   3.633
    1STR    H1P 6915   1.703   5.637   3.563
    1STR    H1Q 6916   1.868   5.640   3.508
    1STR    H1R 6917   1.604   5.758   3.285
    1STR    H1S 6918   1.556   5.710   3.086
    1STR    H1T 6919   1.638   5.568   3.085
    1STR    H1U 6920   1.726   5.715   3.106
    1STR    H1V 6921   1.455   5.528   3.329
    1STR    H1W 6922   1.403   5.692   3.312
    1STR    H1X 6923   1.383   5.934   3.578
    1STR    H1Y 6924   1.707   5.927   3.547
    1STR    H1Z 6925   1.849   5.969   3.347
    1STR    H20 6926   1.781   5.902   3.032
    1STR    H21 6927   1.719   6.069   3.024
    1STR    H22 6928   1.856   6.033   3.123
    1STR    H23 6929   1.533   6.015   3.001
    1STR    H27 6930   1.359   5.922   3.296
    1STR    H28 6931   1.891   5.002   3.419
    1STR    H29 6932   1.647   4.967   3.456
    1STR    H2A 6933   1.416   5.211   3.429
    1STR    H2B 6934   1.432   5.036   3.454
    1STR    H2C 6935   1.380   5.096   3.296
    1STR   BCK1 6936   1.539   5.085   4.666
    1STR    O03 6937   1.641   5.125   4.716
    1STR    N04 6938   1.514   5.085   4.535
    1STR    C05 6939   1.527   5.196   4.455
    1STR    C06 6940   1.501   5.312   4.520
    1STR    C07 6941   1.465   5.427   4.457
    1STR    N08 6942   1.410   5.511   4.547
    1STR    C09 6943   1.303   5.480   4.619
    1STR    O0A 6944   1.203   5.434   4.566
    1STR    O0B 6945   1.321   5.485   4.754
    1STR    C0C 6946   1.440   5.519   4.828
    1STR    C0D 6947   1.377   5.561   4.959
    1STR    C0E 6948   1.545   5.411   4.859
    1STR    O0F 6949   1.629   5.376   4.752
    1STR    C0G 6950   1.759   5.426   4.734
    1STR    C0H 6951   1.832   5.334   4.638
    1STR    C0I 6952   1.746   5.558   4.666
    1STR    O0J 6953   1.702   5.657   4.754
    1STR    C0K 6954   1.789   5.712   4.849
    1STR    C0M 6955   1.762   5.646   4.984
    1STR    C0N 6956   1.940   5.715   4.813
    1STR    O0O 6957   1.976   5.758   4.682
    1STR    C0P 6958   1.902   5.849   4.621
    1STR    O0Q 6959   1.857   5.951   4.671
    1STR    N0R 6960   1.871   5.803   4.501
    1STR    C0S 6961   1.742   5.804   4.449
    1STR    C0T 6962   1.723   5.774   4.313
    1STR    C0U 6963   1.593   5.759   4.262
    1STR    C0V 6964   1.482   5.765   4.349
    1STR    C0W 6965   1.341   5.745   4.297
    1STR    C0X 6966   1.502   5.787   4.486
    1STR    N0Y 6967   1.393   5.761   4.567
    1STR   BCK2 6968   1.358   5.776   4.694
    1STR    O10 6969   1.243   5.746   4.723
    1STR    C13 6970   1.630   5.817   4.534
    1STR    C14 6971   1.467   5.437   4.318
    1STR    C15 6972   1.492   5.320   4.246
    1STR    C16 6973   1.514   5.199   4.316
    1STR    C17 6974   1.502   5.075   4.242
    1STR    H1B 6975   1.432   5.032   4.505
    1STR    H1C 6976   1.481   5.307   4.624
    1STR    H1D 6977   1.459   5.597   4.574
    1STR    H1E 6978   1.490   5.602   4.784
    1STR    H1F 6979   1.326   5.476   5.003
    1STR    H1G 6980   1.450   5.600   5.029
    1STR    H1H 6981   1.302   5.639   4.942
    1STR    H1I 6982   1.492   5.321   4.887
    1STR    H1J 6983   1.606   5.437   4.944
    1STR    H1K 6984   1.815   5.426   4.827
    1STR    H1M 6985   1.773   5.321   4.547
    1STR    H1N 6986   1.849   5.238   4.685
    1STR    H1O 6987   1.929   5.375   4.611
    1STR    H1P 6988   1.839   5.582   4.616
    1STR    H1Q 6989   1.674   5.550   4.585
    1STR    H1R 6990   1.750   5.814   4.855
    1STR    H1S 6991   1.817   5.692   5.065
    1STR    H1T 6992   1.790   5.542   4.989
    1STR    H1U 6993   1.656   5.656   5.008
    1STR    H1V 6994   1.980   5.614   4.825
    1STR    H1W 6995   1.991   5.775   4.886
    1STR    H1X 6996   1.933   5.734   4.465
    1STR    H1Y 6997   1.808   5.765   4.247
    1STR    H1Z 6998   1.578   5.741   4.157
    1STR    H20 6999   1.293   5.659   4.343
    1STR    H21 7000   1.281   5.833   4.319
    1STR    H22 7001   1.342   5.729   4.189
    1STR    H23 7002   1.318   5.712   4.520
    1STR    H27 7003   1.641   5.841   4.638
    1STR    H28 7004   1.439   5.524   4.264
    1STR    H29 7005   1.481   5.322   4.139
    1STR    H2A 7006   1.575   5.002   4.274
    1STR    H2B 7007   1.519   5.110   4.142
    1STR    H2C 7008   1.400   5.038   4.250
    1STR   BCK1 7009   3.168   0.420   6.212
    1STR    O03 7010   3.290   0.421   6.212
    1STR    N04 7011   3.097   0.371   6.313
    1STR    C05 7012   3.119   0.375   0.110
    1STR    C06 7013   3.241   0.416   0.167
    1STR    C07 7014   3.239   0.466   0.299
    1STR    N08 7015   3.350   0.532   0.345
    1STR    C09 7016   3.340   0.660   0.330
    1STR    O0A 7017   3.268   0.733   0.397
    1STR    O0B 7018   3.398   0.681   0.215
    1STR    C0C 7019   3.334   0.762   0.121
    1STR    C0D 7020   3.447   0.815   0.035
    1STR    C0E 7021   3.224   0.703   0.039
    1STR    O0F 7022   3.118   0.654   0.121
    1STR    C0G 7023   2.989   0.688   0.074
    1STR    C0H 7024   2.881   0.590   0.101
    1STR    C0I 7025   2.946   0.804   0.148
    1STR    O0J 7026   2.878   0.887   0.056
    1STR    C0K 7027   2.750   0.862   0.002
    1STR    C0M 7028   2.760   0.775   6.215
    1STR    C0N 7029   2.637   0.829   0.103
    1STR    O0O 7030   2.671   0.857   0.239
    1STR    C0P 7031   2.701   0.982   0.267
    1STR    O0Q 7032   2.666   1.074   0.194
    1STR    N0R 7033   2.790   0.991   0.365
    1STR    C0S 7034   2.922   1.030   0.342
    1STR    C0T 7035   3.022   0.988   0.429
    1STR    C0U 7036   3.156   0.998   0.389
    1STR    C0V 7037   3.191   1.040   0.260
    1STR    C0W 7038   3.338   1.040   0.232
    1STR    C0X 7039   3.090   1.075   0.166
    1STR    N0Y 7040   3.112   1.077   0.026
    1STR   BCK2 7041   3.018   1.076   6.270
    1STR    O10 7042   2.906   1.127   6.282
    1STR    C13 7043   2.960   1.085   0.218
    1STR    C14 7044   3.123   0.465   0.377
    1STR    C15 7045   3.010   0.401   0.328
    1STR    C16 7046   3.010   0.354   0.196
    1STR    C17 7047   2.882   0.296   0.147
    1STR    H1B 7048   2.998   0.365   6.288
    1STR    H1C 7049   3.327   0.430   0.105
    1STR    H1D 7050   3.430   0.504   0.291
    1STR    H1E 7051   3.272   0.831   0.173
    1STR    H1F 7052   3.496   0.733   6.324
    1STR    H1G 7053   3.410   0.886   6.301
    1STR    H1H 7054   3.521   0.863   0.099
    1STR    H1I 7055   3.268   0.624   6.322
    1STR    H1J 7056   3.190   0.780   6.310
    1STR    H1K 7057   2.992   0.713   6.309
    1STR    H1M 7058   2.884   0.560   0.205
    1STR    H1N 7059   2.893   0.516   0.025
    1STR    H1O 7060   2.781   0.625   0.093
    1STR    H1P 7061   2.895   0.782   0.241
    1STR    H1Q 7062   3.039   0.848   0.180
    1STR    H1R 7063   2.726   0.962   6.308
    1STR    H1S 7064   2.679   0.798   6.147
    1STR    H1T 7065   2.760   0.668   6.233
    1STR    H1U 7066   2.855   0.795   6.166
    1STR    H1V 7067   2.604   0.726   0.096
    1STR    H1W 7068   2.551   0.890   0.075
    1STR    H1X 7069   2.781   0.916   0.430
    1STR    H1Y 7070   3.000   0.945   0.525
    1STR    H1Z 7071   3.234   0.969   0.457
    1STR    H20 7072   3.391   0.957   0.276
    1STR    H21 7073   3.357   1.045   0.125
    1STR    H22 7074   3.384   1.121   0.286
    1STR    H23 7075   3.207   1.076   6.333
    1STR    H27 7076   2.882   1.114   0.154
    1STR    H28 7077   3.123   0.506   0.477
    1STR    H29 7078   2.923   0.389   0.390
    1STR    H2A 7079   2.855   0.331   0.050
    1STR    H2B 7080   2.799   0.319   0.213
    1STR    H2C 7081   2.894   0.190   0.137
    1STR   BCK1 7082   3.193   0.422   1.417
    1STR    O03 7083   3.167   0.448   1.300
    1STR    N04 7084   3.305   0.363   1.456
    1STR    C05 7085   3.415   0.374   1.374
    1STR    C06 7086   3.510   0.469   1.411
    1STR    C07 7087   3.597   0.522   1.316
    1STR    N08 7088   3.630   0.654   1.326
    1STR    C09 7089   3.548   0.746   1.275
    1STR    O0A 7090   3.587   0.859   1.257
    1STR    O0B 7091   3.424   0.703   1.243
    1STR    C0C 7092   3.313   0.787   1.269
    1STR    C0D 7093   3.221   0.790   1.147
    1STR    C0E 7094   3.237   0.734   1.389
    1STR    O0F 7095   3.331   0.675   1.477
    1STR    C0G 7096   3.329   0.715   1.612
    1STR    C0H 7097   3.462   0.671   1.676
    1STR    C0I 7098   3.326   0.864   1.614
    1STR    O0J 7099   3.216   0.919   1.683
    1STR    C0K 7100   3.201   0.900   1.824
    1STR    C0M 7101   3.087   0.803   1.846
    1STR    C0N 7102   3.328   0.876   1.912
    1STR    O0O 7103   3.434   0.947   1.852
    1STR    C0P 7104   3.563   0.926   1.870
    1STR    O0Q 7105   3.610   0.851   1.954
    1STR    N0R 7106   3.641   0.985   1.777
    1STR    C0S 7107   3.605   1.048   1.657
    1STR    C0T 7108   3.679   1.029   1.540
    1STR    C0U 7109   3.626   1.071   1.416
    1STR    C0V 7110   3.494   1.121   1.405
    1STR    C0W 7111   3.436   1.156   1.271
    1STR    C0X 7112   3.423   1.142   1.522
    1STR    N0Y 7113   3.295   1.190   1.532
    1STR   BCK2 7114   3.177   1.138   1.503
    1STR    O10 7115   3.080   1.177   1.565
    1STR    C13 7116   3.484   1.116   1.644
    1STR    C14 7117   3.609   0.462   1.191
    1STR    C15 7118   3.524   0.357   1.159
    1STR    C16 7119   3.424   0.317   1.247
    1STR    C17 7120   3.322   0.217   1.206
    1STR    H1B 7121   3.314   0.364   1.557
    1STR    H1C 7122   3.497   0.520   1.501
    1STR    H1D 7123   3.716   0.684   1.368
    1STR    H1E 7124   3.348   0.886   1.295
    1STR    H1F 7125   3.190   0.688   1.123
    1STR    H1G 7126   3.132   0.849   1.168
    1STR    H1H 7127   3.273   0.833   1.062
    1STR    H1I 7128   3.167   0.664   1.352
    1STR    H1J 7129   3.169   0.804   1.437
    1STR    H1K 7130   3.243   0.674   1.663
    1STR    H1M 7131   3.547   0.705   1.617
    1STR    H1N 7132   3.469   0.566   1.685
    1STR    H1O 7133   3.477   0.706   1.776
    1STR    H1P 7134   3.422   0.891   1.646
    1STR    H1Q 7135   3.333   0.909   1.517
    1STR    H1R 7136   3.157   0.993   1.855
    1STR    H1S 7137   3.049   0.816   1.946
    1STR    H1T 7138   3.119   0.699   1.834
    1STR    H1U 7139   3.008   0.825   1.774
    1STR    H1V 7140   3.351   0.770   1.923
    1STR    H1W 7141   3.312   0.913   2.013
    1STR    H1X 7142   3.737   0.966   1.797
    1STR    H1Y 7143   3.772   0.976   1.542
    1STR    H1Z 7144   3.683   1.058   1.326
    1STR    H20 7145   3.513   1.193   1.204
    1STR    H21 7146   3.388   1.072   1.224
    1STR    H22 7147   3.361   1.233   1.285
    1STR    H23 7148   3.285   1.259   1.604
    1STR    H27 7149   3.429   1.136   1.730
    1STR    H28 7150   3.673   0.505   1.115
    1STR    H29 7151   3.533   0.315   1.062
    1STR    H2A 7152   3.317   0.157   1.295
    1STR    H2B 7153   3.352   0.158   1.122
    1STR    H2C 7154   3.225   0.259   1.183
    1STR   BCK1 7155   3.241   0.457   3.218
    1STR    O03 7156   3.349   0.514   3.216
    1STR    N04 7157   3.168   0.465   3.330
    1STR    C05 7158   3.033   0.468   3.360
    1STR    C06 7159   2.937   0.484   3.262
    1STR    C07 7160   2.803   0.509   3.291
    1STR    N08 7161   2.727   0.549   3.185
    1STR    C09 7162   2.770   0.662   3.130
    1STR    O0A 7163   2.758   0.675   3.009
    1STR    O0B 7164   2.825   0.745   3.225
    1STR    C0C 7165   2.950   0.816   3.219
    1STR    C0D 7166   2.988   0.846   3.363
    1STR    C0E 7167   3.069   0.747   3.153
    1STR    O0F 7168   3.028   0.721   3.023
    1STR    C0G 7169   3.127   0.692   2.929
    1STR    C0H 7170   3.039   0.624   2.829
    1STR    C0I 7171   3.217   0.794   2.865
    1STR    O0J 7172   3.245   0.896   2.954
    1STR    C0K 7173   3.134   0.979   2.969
    1STR    C0M 7174   3.176   1.061   3.085
    1STR    C0N 7175   3.108   1.048   2.839
    1STR    O0O 7176   2.985   1.023   2.764
    1STR    C0P 7177   2.906   0.913   2.767
    1STR    O0Q 7178   2.907   0.836   2.672
    1STR    N0R 7179   2.813   0.898   2.864
    1STR    C0S 7180   2.771   0.974   2.973
    1STR    C0T 7181   2.669   0.940   3.064
    1STR    C0U 7182   2.660   1.009   3.188
    1STR    C0V 7183   2.742   1.121   3.214
    1STR    C0W 7184   2.745   1.181   3.350
    1STR    C0X 7185   2.830   1.166   3.116
    1STR    N0Y 7186   2.915   1.274   3.126
    1STR   BCK2 7187   2.985   1.333   3.026
    1STR    O10 7188   3.107   1.329   3.023
    1STR    C13 7189   2.843   1.085   3.006
    1STR    C14 7190   2.759   0.516   3.424
    1STR    C15 7191   2.854   0.500   3.526
    1STR    C16 7192   2.989   0.481   3.494
    1STR    C17 7193   3.090   0.485   3.603
    1STR    H1B 7194   3.234   0.485   3.404
    1STR    H1C 7195   2.966   0.498   3.160
    1STR    H1D 7196   2.684   0.485   3.120
    1STR    H1E 7197   2.931   0.909   3.170
    1STR    H1F 7198   3.007   0.754   3.417
    1STR    H1G 7199   3.078   0.907   3.366
    1STR    H1H 7200   2.907   0.899   3.412
    1STR    H1I 7201   3.101   0.659   3.202
    1STR    H1J 7202   3.159   0.807   3.158
    1STR    H1K 7203   3.204   0.634   2.972
    1STR    H1M 7204   2.932   0.627   2.848
    1STR    H1N 7205   3.072   0.523   2.830
    1STR    H1O 7206   3.050   0.665   2.731
    1STR    H1P 7207   3.314   0.751   2.849
    1STR    H1Q 7208   3.181   0.826   2.767
    1STR    H1R 7209   3.041   0.933   2.995
    1STR    H1S 7210   3.091   1.105   3.134
    1STR    H1T 7211   3.244   1.137   3.050
    1STR    H1U 7212   3.224   1.001   3.161
    1STR    H1V 7213   3.196   1.032   2.781
    1STR    H1W 7214   3.115   1.153   2.859
    1STR    H1X 7215   2.779   0.802   2.867
    1STR    H1Y 7216   2.607   0.854   3.047
    1STR    H1Z 7217   2.595   0.971   3.264
    1STR    H20 7218   2.822   1.130   3.408
    1STR    H21 7219   2.773   1.285   3.344
    1STR    H22 7220   2.649   1.173   3.399
    1STR    H23 7221   2.937   1.307   3.219
    1STR    H27 7222   2.920   1.110   2.944
    1STR    H28 7223   2.657   0.541   3.445
    1STR    H29 7224   2.824   0.510   3.629
    1STR    H2A 7225   3.048   0.455   3.698
    1STR    H2B 7226   3.138   0.582   3.607
    1STR    H2C 7227   3.161   0.412   3.571
    1STR   BCK1 7228   3.196   0.652   4.545
    1STR    O03 7229   3.297   0.719   4.525
    1STR    N04 7230   3.179   0.562   4.642
    1STR    C05 7231   3.262   0.511   4.740
    1STR    C06 7232   3.399   0.538   4.739
    1STR    C07 7233   3.482   0.495   4.843
    1STR    N08 7234   3.606   0.553   4.855
    1STR    C09 7235   3.646   0.607   4.970
    1STR    O0A 7236   3.656   0.547   5.076
    1STR    O0B 7237   3.673   0.735   4.957
    1STR    C0C 7238   3.583   0.825   4.892
    1STR    C0D 7239   3.599   0.828   4.742
    1STR    C0E 7240   3.436   0.813   4.927
    1STR    O0F 7241   3.426   0.759   5.056
    1STR    C0G 7242   3.303   0.695   5.076
    1STR    C0H 7243   3.316   0.608   5.199
    1STR    C0I 7244   3.199   0.800   5.097
    1STR    O0J 7245   3.150   0.838   4.970
    1STR    C0K 7246   3.014   0.812   4.935
    1STR    C0M 7247   3.023   0.734   4.812
    1STR    C0N 7248   2.916   0.769   5.046
    1STR    O0O 7249   2.923   0.861   5.155
    1STR    C0P 7250   2.911   0.988   5.122
    1STR    O0Q 7251   2.812   1.028   5.060
    1STR    N0R 7252   3.031   1.048   5.132
    1STR    C0S 7253   3.106   1.099   5.025
    1STR    C0T 7254   3.244   1.121   5.038
    1STR    C0U 7255   3.322   1.146   4.923
    1STR    C0V 7256   3.264   1.139   4.795
    1STR    C0W 7257   3.347   1.158   4.673
    1STR    C0X 7258   3.127   1.116   4.782
    1STR    N0Y 7259   3.076   1.089   4.657
    1STR   BCK2 7260   2.965   1.028   4.621
    1STR    O10 7261   2.871   0.999   4.694
    1STR    C13 7262   3.049   1.111   4.896
    1STR    C14 7263   3.431   0.413   4.942
    1STR    C15 7264   3.294   0.386   4.945
    1STR    C16 7265   3.208   0.434   4.845
    1STR    C17 7266   3.060   0.410   4.864
    1STR    H1B 7267   3.085   0.520   4.644
    1STR    H1C 7268   3.439   0.597   4.660
    1STR    H1D 7269   3.641   0.604   4.775
    1STR    H1E 7270   3.612   0.918   4.935
    1STR    H1F 7271   3.574   0.738   4.689
    1STR    H1G 7272   3.537   0.904   4.698
    1STR    H1H 7273   3.704   0.843   4.725
    1STR    H1I 7274   3.383   0.755   4.852
    1STR    H1J 7275   3.388   0.909   4.921
    1STR    H1K 7276   3.274   0.634   4.991
    1STR    H1M 7277   3.340   0.668   5.286
    1STR    H1N 7278   3.396   0.537   5.183
    1STR    H1O 7279   3.223   0.554   5.217
    1STR    H1P 7280   3.127   0.763   5.168
    1STR    H1Q 7281   3.247   0.885   5.145
    1STR    H1R 7282   2.967   0.897   4.891
    1STR    H1S 7283   2.927   0.697   4.776
    1STR    H1T 7284   3.091   0.657   4.843
    1STR    H1U 7285   3.073   0.792   4.735
    1STR    H1V 7286   2.941   0.668   5.080
    1STR    H1W 7287   2.816   0.769   5.004
    1STR    H1X 7288   3.085   1.017   5.210
    1STR    H1Y 7289   3.291   1.118   5.135
    1STR    H1Z 7290   3.427   1.164   4.933
    1STR    H20 7291   3.408   1.070   4.657
    1STR    H21 7292   3.290   1.180   4.584
    1STR    H22 7293   3.406   1.246   4.689
    1STR    H23 7294   3.134   1.119   4.580
    1STR    H27 7295   2.943   1.103   4.883
    1STR    H28 7296   3.496   0.381   5.022
    1STR    H29 7297   3.254   0.340   5.033
    1STR    H2A 7298   2.995   0.484   4.820
    1STR    H2B 7299   3.036   0.408   4.970
    1STR    H2C 7300   3.034   0.316   4.817
    1STR   BCK1 7301   3.265   1.966   0.105
    1STR    O03 7302   3.319   1.938   0.210
    1STR    N04 7303   3.337   1.944   6.335
    1STR    C05 7304   3.316   1.978   6.203
    1STR    C06 7305   3.269   2.104   6.173
    1STR    C07 7306   3.233   2.144   6.044
    1STR    N08 7307   3.149   2.254   6.032
    1STR    C09 7308   3.019   2.229   6.038
    1STR    O0A 7309   2.973   2.133   5.981
    1STR    O0B 7310   2.944   2.296   6.127
    1STR    C0C 7311   2.982   2.403   6.211
    1STR    C0D 7312   2.852   2.480   6.206
    1STR    C0E 7313   3.005   2.372   0.019
    1STR    O0F 7314   3.115   2.290   0.048
    1STR    C0G 7315   3.238   2.343   0.086
    1STR    C0H 7316   3.331   2.254   0.165
    1STR    C0I 7317   3.309   2.379   6.297
    1STR    O0J 7318   3.300   2.509   6.256
    1STR    C0K 7319   3.358   2.594   0.008
    1STR    C0M 7320   3.240   2.634   0.095
    1STR    C0N 7321   3.497   2.556   0.061
    1STR    O0O 7322   3.582   2.471   6.322
    1STR    C0P 7323   3.615   2.493   6.192
    1STR    O0Q 7324   3.731   2.504   6.154
    1STR    N0R 7325   3.508   2.499   6.111
    1STR    C0S 7326   3.487   2.563   5.990
    1STR    C0T 7327   3.587   2.657   5.960
    1STR    C0U 7328   3.576   2.781   6.024
    1STR    C0V 7329   3.457   2.809   6.093
    1STR    C0W 7330   3.469   2.899   6.210
    1STR    C0X 7331   3.340   2.734   6.068
    1STR    N0Y 7332   3.224   2.769   6.134
    1STR   BCK2 7333   3.104   2.713   6.140
    1STR    O10 7334   3.031   2.745   6.233
    1STR    C13 7335   3.355   2.612   5.999
    1STR    C14 7336   3.258   2.055   5.938
    1STR    C15 7337   3.309   1.927   5.966
    1STR    C16 7338   3.334   1.888   6.099
    1STR    C17 7339   3.382   1.752   6.130
    1STR    H1B 7340   3.407   1.875   0.014
    1STR    H1C 7341   3.244   2.156   6.261
    1STR    H1D 7342   3.179   2.339   6.076
    1STR    H1E 7343   3.065   2.459   6.168
    1STR    H1F 7344   2.773   2.427   6.258
    1STR    H1G 7345   2.862   2.579   6.250
    1STR    H1H 7346   2.821   2.487   6.102
    1STR    H1I 7347   2.919   2.316   0.056
    1STR    H1J 7348   3.006   2.462   0.080
    1STR    H1K 7349   3.210   2.415   0.159
    1STR    H1M 7350   3.379   2.180   0.102
    1STR    H1N 7351   3.278   2.206   0.247
    1STR    H1O 7352   3.412   2.312   0.207
    1STR    H1P 7353   3.406   2.332   6.285
    1STR    H1Q 7354   3.255   2.344   6.213
    1STR    H1R 7355   3.381   2.684   6.297
    1STR    H1S 7356   3.240   2.738   0.096
    1STR    H1T 7357   3.242   2.601   0.198
    1STR    H1U 7358   3.144   2.610   0.052
    1STR    H1V 7359   3.485   2.511   0.160
    1STR    H1W 7360   3.553   2.648   0.077
    1STR    H1X 7361   3.422   2.493   6.167
    1STR    H1Y 7362   3.685   2.624   5.929
    1STR    H1Z 7363   3.662   2.845   6.036
    1STR    H20 7364   3.386   2.892   6.279
    1STR    H21 7365   3.556   2.872   6.269
    1STR    H22 7366   3.481   2.995   6.169
    1STR    H23 7367   3.229   2.854   6.193
    1STR    H27 7368   3.271   2.545   5.995
    1STR    H28 7369   3.229   2.081   5.838
    1STR    H29 7370   3.326   1.857   5.888
    1STR    H2A 7371   3.343   1.715   6.224
    1STR    H2B 7372   3.487   1.771   6.141
    1STR    H2C 7373   3.362   1.682   6.050
    1STR   BCK1 7374   3.261   2.053   1.570
    1STR    O03 7375   3.372   2.080   1.611
    1STR    N04 7376   3.156   2.010   1.641
    1STR    C05 7377   3.122   2.024   1.774
    1STR    C06 7378   3.210   2.081   1.865
    1STR    C07 7379   3.162   2.119   1.991
    1STR    N08 7380   3.241   2.205   2.061
    1STR    C09 7381   3.226   2.328   2.013
    1STR    O0A 7382   3.122   2.393   2.019
    1STR    O0B 7383   3.332   2.352   1.938
    1STR    C0C 7384   3.323   2.439   1.828
    1STR    C0D 7385   3.465   2.489   1.810
    1STR    C0E 7386   3.275   2.375   1.697
    1STR    O0F 7387   3.155   2.304   1.715
    1STR    C0G 7388   3.061   2.325   1.612
    1STR    C0H 7389   2.953   2.225   1.620
    1STR    C0I 7390   2.990   2.449   1.644
    1STR    O0J 7391   2.998   2.538   1.539
    1STR    C0K 7392   2.928   2.505   1.420
    1STR    C0M 7393   3.040   2.494   1.321
    1STR    C0N 7394   2.814   2.404   1.397
    1STR    O0O 7395   2.722   2.389   1.505
    1STR    C0P 7396   2.625   2.474   1.528
    1STR    O0Q 7397   2.582   2.555   1.446
    1STR    N0R 7398   2.595   2.472   1.659
    1STR    C0S 7399   2.669   2.554   1.744
    1STR    C0T 7400   2.725   2.503   1.863
    1STR    C0U 7401   2.844   2.560   1.915
    1STR    C0V 7402   2.910   2.660   1.842
    1STR    C0W 7403   3.057   2.684   1.866
    1STR    C0X 7404   2.849   2.715   1.729
    1STR    N0Y 7405   2.923   2.777   1.631
    1STR   BCK2 7406   2.872   2.861   1.544
    1STR    O10 7407   2.769   2.918   1.571
    1STR    C13 7408   2.721   2.671   1.690
    1STR    C14 7409   3.029   2.095   2.029
    1STR    C15 7410   2.943   2.034   1.939
    1STR    C16 7411   2.989   1.997   1.811
    1STR    C17 7412   2.889   1.950   1.709
    1STR    H1B 7413   3.074   1.991   1.587
    1STR    H1C 7414   3.310   2.107   1.835
    1STR    H1D 7415   3.338   2.177   2.054
    1STR    H1E 7416   3.258   2.522   1.853
    1STR    H1F 7417   3.536   2.406   1.812
    1STR    H1G 7418   3.473   2.536   1.712
    1STR    H1H 7419   3.488   2.561   1.888
    1STR    H1I 7420   3.351   2.308   1.660
    1STR    H1J 7421   3.265   2.454   1.622
    1STR    H1K 7422   3.111   2.323   1.516
    1STR    H1M 7423   2.925   2.212   1.724
    1STR    H1N 7424   2.991   2.143   1.570
    1STR    H1O 7425   2.862   2.238   1.568
    1STR    H1P 7426   2.887   2.436   1.674
    1STR    H1Q 7427   3.038   2.484   1.733
    1STR    H1R 7428   2.868   2.591   1.404
    1STR    H1S 7429   2.998   2.500   1.221
    1STR    H1T 7430   3.099   2.403   1.328
    1STR    H1U 7431   3.109   2.576   1.342
    1STR    H1V 7432   2.859   2.308   1.372
    1STR    H1W 7433   2.759   2.435   1.309
    1STR    H1X 7434   2.589   2.377   1.691
    1STR    H1Y 7435   2.689   2.412   1.908
    1STR    H1Z 7436   2.895   2.515   1.998
    1STR    H20 7437   3.119   2.659   1.780
    1STR    H21 7438   3.075   2.787   1.872
    1STR    H22 7439   3.095   2.637   1.956
    1STR    H23 7440   3.002   2.722   1.597
    1STR    H27 7441   2.678   2.708   1.599
    1STR    H28 7442   2.992   2.134   2.122
    1STR    H29 7443   2.839   2.026   1.964
    1STR    H2A 7444   2.827   2.024   1.660
    1STR    H2B 7445   2.817   1.887   1.751
    1STR    H2C 7446   2.938   1.888   1.636
    1STR   BCK1 7447   3.138   2.151   2.975
    1STR    O03 7448   3.232   2.132   2.900
    1STR    N04 7449   3.127   2.096   3.096
    1STR    C05 7450   3.225   2.030   3.167
    1STR    C06 7451   3.360   2.063   3.153
    1STR    C07 7452   3.457   2.004   3.236
    1STR    N08 7453   3.586   2.053   3.255
    1STR    C09 7454   3.663   2.133   3.182
    1STR    O0A 7455   3.774   2.172   3.216
    1STR    O0B 7456   3.609   2.160   3.065
    1STR    C0C 7457   3.625   2.287   3.013
    1STR    C0D 7458   3.564   2.280   2.873
    1STR    C0E 7459   3.543   2.374   3.105
    1STR    O0F 7460   3.560   2.356   3.246
    1STR    C0G 7461   3.440   2.329   3.318
    1STR    C0H 7462   3.461   2.262   3.450
    1STR    C0I 7463   3.382   2.460   3.336
    1STR    O0J 7464   3.340   2.494   3.206
    1STR    C0K 7465   3.229   2.438   3.143
    1STR    C0M 7466   3.250   2.442   2.991
    1STR    C0N 7467   3.099   2.395   3.217
    1STR    O0O 7468   3.095   2.386   3.357
    1STR    C0P 7469   3.067   2.485   3.444
    1STR    O0Q 7470   3.019   2.461   3.554
    1STR    N0R 7471   3.103   2.610   3.417
    1STR    C0S 7472   3.144   2.678   3.305
    1STR    C0T 7473   3.277   2.720   3.296
    1STR    C0U 7474   3.329   2.766   3.176
    1STR    C0V 7475   3.248   2.769   3.064
    1STR    C0W 7476   3.320   2.782   2.934
    1STR    C0X 7477   3.109   2.741   3.073
    1STR    N0Y 7478   3.042   2.717   2.954
    1STR   BCK2 7479   2.945   2.629   2.930
    1STR    O10 7480   2.894   2.555   3.013
    1STR    C13 7481   3.057   2.704   3.198
    1STR    C14 7482   3.419   1.894   3.313
    1STR    C15 7483   3.287   1.854   3.319
    1STR    C16 7484   3.189   1.934   3.261
    1STR    C17 7485   3.048   1.918   3.310
    1STR    H1B 7486   3.036   2.091   3.141
    1STR    H1C 7487   3.386   2.141   3.085
    1STR    H1D 7488   3.642   2.021   3.334
    1STR    H1E 7489   3.730   2.318   3.015
    1STR    H1F 7490   3.471   2.222   2.874
    1STR    H1G 7491   3.539   2.379   2.836
    1STR    H1H 7492   3.632   2.230   2.804
    1STR    H1I 7493   3.446   2.336   3.081
    1STR    H1J 7494   3.545   2.479   3.078
    1STR    H1K 7495   3.365   2.270   3.267
    1STR    H1M 7496   3.562   2.274   3.487
    1STR    H1N 7497   3.442   2.159   3.426
    1STR    H1O 7498   3.386   2.290   3.525
    1STR    H1P 7499   3.307   2.462   3.413
    1STR    H1Q 7500   3.461   2.528   3.369
    1STR    H1R 7501   3.190   2.532   3.126
    1STR    H1S 7502   3.161   2.473   2.937
    1STR    H1T 7503   3.286   2.350   2.951
    1STR    H1U 7504   3.325   2.515   2.964
    1STR    H1V 7505   3.075   2.296   3.190
    1STR    H1W 7506   3.012   2.450   3.185
    1STR    H1X 7507   3.110   2.664   3.503
    1STR    H1Y 7508   3.343   2.706   3.380
    1STR    H1Z 7509   3.435   2.780   3.173
    1STR    H20 7510   3.417   2.733   2.941
    1STR    H21 7511   3.267   2.741   2.849
    1STR    H22 7512   3.337   2.888   2.927
    1STR    H23 7513   3.088   2.755   2.873
    1STR    H27 7514   2.957   2.668   3.211
    1STR    H28 7515   3.492   1.842   3.372
    1STR    H29 7516   3.259   1.772   3.382
    1STR    H2A 7517   3.028   1.999   3.380
    1STR    H2B 7518   3.036   1.825   3.361
    1STR    H2C 7519   2.976   1.919   3.232
    1STR   BCK1 7520   3.143   2.019   4.580
    1STR    O03 7521   3.130   2.016   4.701
    1STR    N04 7522   3.105   2.120   4.502
    1STR    C05 7523   2.982   2.179   4.524
    1STR    C06 7524   2.942   2.214   4.653
    1STR    C07 7525   2.807   2.231   4.686
    1STR    N08 7526   2.773   2.237   4.819
    1STR    C09 7527   2.846   2.315   4.898
    1STR    O0A 7528   2.834   2.436   4.902
    1STR    O0B 7529   2.942   2.247   4.960
    1STR    C0C 7530   3.050   2.321   5.016
    1STR    C0D 7531   3.011   2.362   5.156
    1STR    C0E 7532   3.178   2.238   5.015
    1STR    O0F 7533   3.214   2.203   4.884
    1STR    C0G 7534   3.301   2.293   4.818
    1STR    C0H 7535   3.405   2.209   4.745
    1STR    C0I 7536   3.216   2.370   4.720
    1STR    O0J 7537   3.277   2.493   4.693
    1STR    C0K 7538   3.368   2.506   4.587
    1STR    C0M 7539   3.507   2.524   4.645
    1STR    C0N 7540   3.353   2.406   4.470
    1STR    O0O 7541   3.217   2.416   4.437
    1STR    C0P 7542   3.164   2.378   4.325
    1STR    O0Q 7543   3.225   2.319   4.237
    1STR    N0R 7544   3.036   2.414   4.313
    1STR    C0S 7545   2.950   2.477   4.403
    1STR    C0T 7546   2.812   2.481   4.375
    1STR    C0U 7547   2.719   2.523   4.473
    1STR    C0V 7548   2.764   2.562   4.600
    1STR    C0W 7549   2.665   2.592   4.710
    1STR    C0X 7550   2.902   2.572   4.622
    1STR    N0Y 7551   2.955   2.613   4.742
    1STR   BCK2 7552   3.033   2.717   4.754
    1STR    O10 7553   3.148   2.700   4.788
    1STR    C13 7554   2.993   2.536   4.524
    1STR    C14 7555   2.710   2.220   4.585
    1STR    C15 7556   2.750   2.194   4.452
    1STR    C16 7557   2.886   2.173   4.421
    1STR    C17 7558   2.928   2.134   4.281
    1STR    H1B 7559   3.129   2.111   4.405
    1STR    H1C 7560   3.015   2.212   4.731
    1STR    H1D 7561   2.755   2.146   4.856
    1STR    H1E 7562   3.069   2.413   4.960
    1STR    H1F 7563   2.995   2.274   5.218
    1STR    H1G 7564   3.090   2.423   5.199
    1STR    H1H 7565   2.919   2.421   5.154
    1STR    H1I 7566   3.161   2.145   5.068
    1STR    H1J 7567   3.259   2.291   5.065
    1STR    H1K 7568   3.351   2.362   4.884
    1STR    H1M 7569   3.357   2.131   4.685
    1STR    H1N 7570   3.473   2.163   4.816
    1STR    H1O 7571   3.468   2.262   4.677
    1STR    H1P 7572   3.191   2.309   4.635
    1STR    H1Q 7573   3.121   2.397   4.762
    1STR    H1R 7574   3.337   2.604   4.553
    1STR    H1S 7575   3.565   2.591   4.583
    1STR    H1T 7576   3.564   2.433   4.654
    1STR    H1U 7577   3.498   2.565   4.745
    1STR    H1V 7578   3.373   2.302   4.495
    1STR    H1W 7579   3.418   2.431   4.387
    1STR    H1X 7580   2.997   2.385   4.225
    1STR    H1Y 7581   2.774   2.441   4.282
    1STR    H1Z 7582   2.614   2.517   4.454
    1STR    H20 7583   2.714   2.628   4.801
    1STR    H21 7584   2.615   2.500   4.738
    1STR    H22 7585   2.595   2.668   4.677
    1STR    H23 7586   2.950   2.548   4.819
    1STR    H27 7587   3.096   2.555   4.548
    1STR    H28 7588   2.606   2.233   4.609
    1STR    H29 7589   2.676   2.188   4.374
    1STR    H2A 7590   3.017   2.184   4.246
    1STR    H2B 7591   2.848   2.151   4.209
    1STR    H2C 7592   2.958   2.031   4.280
    1STR   BCK1 7593   3.101   3.627   6.268
    1STR    O03 7594   3.170   3.607   6.170
    1STR    N04 7595   3.076   3.528   0.011
    1STR    C05 7596   3.128   3.540   0.136
    1STR    C06 7597   3.266   3.551   0.153
    1STR    C07 7598   3.318   3.599   0.274
    1STR    N08 7599   3.450   3.642   0.273
    1STR    C09 7600   3.478   3.770   0.297
    1STR    O0A 7601   3.433   3.838   0.389
    1STR    O0B 7602   3.539   3.819   0.189
    1STR    C0C 7603   3.465   3.912   0.110
    1STR    C0D 7604   3.549   3.970   6.339
    1STR    C0E 7605   3.340   3.846   0.050
    1STR    O0F 7606   3.249   3.828   0.156
    1STR    C0G 7607   3.131   3.897   0.155
    1STR    C0H 7608   3.067   3.878   0.289
    1STR    C0I 7609   3.157   4.042   0.127
    1STR    O0J 7610   3.154   4.050   6.329
    1STR    C0K 7611   3.030   4.078   6.271
    1STR    C0M 7612   3.058   4.043   6.127
    1STR    C0N 7613   2.893   4.024   6.327
    1STR    O0O 7614   2.869   4.037   0.126
    1STR    C0P 7615   2.769   3.973   0.193
    1STR    O0Q 7616   2.697   3.888   0.143
    1STR    N0R 7617   2.756   4.011   0.323
    1STR    C0S 7618   2.826   4.118   0.379
    1STR    C0T 7619   2.926   4.105   0.476
    1STR    C0U 7620   3.044   4.183   0.462
    1STR    C0V 7621   3.062   4.260   0.346
    1STR    C0W 7622   3.201   4.301   0.309
    1STR    C0X 7623   2.953   4.280   0.258
    1STR    N0Y 7624   2.969   4.333   0.131
    1STR   BCK2 7625   2.878   4.337   0.033
    1STR    O10 7626   2.765   4.290   0.037
    1STR    C13 7627   2.828   4.230   0.298
    1STR    C14 7628   3.231   3.624   0.381
    1STR    C15 7629   3.092   3.601   0.366
    1STR    C16 7630   3.040   3.559   0.243
    1STR    C17 7631   2.893   3.537   0.224
    1STR    H1B 7632   2.976   3.505   0.006
    1STR    H1C 7633   3.327   3.538   0.066
    1STR    H1D 7634   3.505   3.601   0.200
    1STR    H1E 7635   3.437   3.993   0.177
    1STR    H1F 7636   3.573   3.893   6.266
    1STR    H1G 7637   3.493   4.046   6.285
    1STR    H1H 7638   3.641   4.011   0.038
    1STR    H1I 7639   3.361   3.747   0.016
    1STR    H1J 7640   3.303   3.893   6.300
    1STR    H1K 7641   3.065   3.854   0.082
    1STR    H1M 7642   3.139   3.864   0.370
    1STR    H1N 7643   2.991   3.801   0.285
    1STR    H1O 7644   3.011   3.964   0.311
    1STR    H1P 7645   3.081   4.103   0.167
    1STR    H1Q 7646   3.249   4.077   0.171
    1STR    H1R 7647   3.037   4.184   6.279
    1STR    H1S 7648   2.976   4.072   6.062
    1STR    H1T 7649   3.079   3.936   6.119
    1STR    H1U 7650   3.149   4.095   6.096
    1STR    H1V 7651   2.878   3.921   6.309
    1STR    H1W 7652   2.810   4.071   6.274
    1STR    H1X 7653   2.691   3.957   0.376
    1STR    H1Y 7654   2.928   4.022   0.544
    1STR    H1Z 7655   3.128   4.167   0.527
    1STR    H20 7656   3.214   4.315   0.202
    1STR    H21 7657   3.226   4.392   0.362
    1STR    H22 7658   3.274   4.227   0.341
    1STR    H23 7659   3.057   4.376   0.104
    1STR    H27 7660   2.738   4.241   0.243
    1STR    H28 7661   3.271   3.663   0.473
    1STR    H29 7662   3.026   3.621   0.449
    1STR    H2A 7663   2.851   3.618   0.164
    1STR    H2B 7664   2.842   3.533   0.321
    1STR    H2C 7665   2.877   3.443   0.173
    1STR   BCK1 7666   3.168   3.469   1.598
    1STR    O03 7667   3.196   3.567   1.662
    1STR    N04 7668   3.234   3.441   1.486
    1STR    C05 7669   3.326   3.528   1.430
    1STR    C06 7670   3.286   3.652   1.390
    1STR    C07 7671   3.372   3.744   1.329
    1STR    N08 7672   3.318   3.866   1.302
    1STR    C09 7673   3.230   3.861   1.203
    1STR    O0A 7674   3.261   3.845   1.086
    1STR    O0B 7675   3.104   3.858   1.249
    1STR    C0C 7676   3.054   3.950   1.343
    1STR    C0D 7677   2.908   3.966   1.304
    1STR    C0E 7678   3.064   3.923   1.496
    1STR    O0F 7679   3.179   3.849   1.527
    1STR    C0G 7680   3.265   3.894   1.627
    1STR    C0H 7681   3.389   3.807   1.645
    1STR    C0I 7682   3.314   4.029   1.582
    1STR    O0J 7683   3.267   4.126   1.671
    1STR    C0K 7684   3.307   4.133   1.806
    1STR    C0M 7685   3.184   4.100   1.889
    1STR    C0N 7686   3.442   4.068   1.850
    1STR    O0O 7687   3.535   4.054   1.745
    1STR    C0P 7688   3.664   4.084   1.753
    1STR    O0Q 7689   3.730   4.087   1.855
    1STR    N0R 7690   3.716   4.117   1.633
    1STR    C0S 7691   3.641   4.164   1.526
    1STR    C0T 7692   3.664   4.133   1.391
    1STR    C0U 7693   3.574   4.181   1.292
    1STR    C0V 7694   3.463   4.260   1.328
    1STR    C0W 7695   3.371   4.310   1.222
    1STR    C0X 7696   3.441   4.292   1.463
    1STR    N0Y 7697   3.340   4.364   1.521
    1STR   BCK2 7698   3.210   4.348   1.532
    1STR    O10 7699   3.151   4.393   1.629
    1STR    C13 7700   3.533   4.246   1.555
    1STR    C14 7701   3.505   3.711   1.303
    1STR    C15 7702   3.546   3.580   1.333
    1STR    C16 7703   3.454   3.491   1.391
    1STR    C17 7704   3.472   3.348   1.383
    1STR    H1B 7705   3.190   3.375   1.425
    1STR    H1C 7706   3.183   3.673   1.406
    1STR    H1D 7707   3.272   3.888   1.390
    1STR    H1E 7708   3.111   4.037   1.316
    1STR    H1F 7709   2.854   3.872   1.305
    1STR    H1G 7710   2.855   4.030   1.373
    1STR    H1H 7711   2.903   4.005   1.202
    1STR    H1I 7712   2.976   3.869   1.531
    1STR    H1J 7713   3.062   4.015   1.553
    1STR    H1K 7714   3.207   3.896   1.718
    1STR    H1M 7715   3.457   3.812   1.561
    1STR    H1N 7716   3.367   3.703   1.659
    1STR    H1O 7717   3.446   3.835   1.733
    1STR    H1P 7718   3.420   4.028   1.561
    1STR    H1Q 7719   3.280   4.054   1.483
    1STR    H1R 7720   3.316   4.239   1.821
    1STR    H1S 7721   3.193   4.140   1.989
    1STR    H1T 7722   3.165   3.994   1.897
    1STR    H1U 7723   3.097   4.147   1.843
    1STR    H1V 7724   3.425   3.972   1.898
    1STR    H1W 7725   3.492   4.130   1.921
    1STR    H1X 7726   3.816   4.113   1.625
    1STR    H1Y 7727   3.746   4.070   1.363
    1STR    H1Z 7728   3.589   4.156   1.189
    1STR    H20 7729   3.427   4.330   1.131
    1STR    H21 7730   3.292   4.239   1.201
    1STR    H22 7731   3.328   4.403   1.259
    1STR    H23 7732   3.366   4.405   1.611
    1STR    H27 7733   3.513   4.260   1.658
    1STR    H28 7734   3.571   3.781   1.255
    1STR    H29 7735   3.644   3.550   1.306
    1STR    H2A 7736   3.445   3.297   1.474
    1STR    H2B 7737   3.560   3.318   1.328
    1STR    H2C 7738   3.386   3.327   1.323
    1STR   BCK1 7739   3.209   3.639   3.224
    1STR    O03 7740   3.323   3.670   3.253
    1STR    N04 7741   3.126   3.592   3.318
    1STR    C05 7742   2.991   3.617   3.344
    1STR    C06 7743   2.907   3.686   3.257
    1STR    C07 7744   2.791   3.747   3.308
    1STR    N08 7745   2.785   3.882   3.289
    1STR    C09 7746   2.862   3.963   3.364
    1STR    O0A 7747   2.858   4.084   3.352
    1STR    O0B 7748   2.947   3.902   3.446
    1STR    C0C 7749   3.075   3.962   3.466
    1STR    C0D 7750   3.127   3.907   3.597
    1STR    C0E 7751   3.172   3.925   3.353
    1STR    O0F 7752   3.094   3.881   3.243
    1STR    C0G 7753   3.117   3.941   3.121
    1STR    C0H 7754   3.025   3.887   3.010
    1STR    C0I 7755   3.075   4.083   3.141
    1STR    O0J 7756   3.134   4.131   3.028
    1STR    C0K 7757   3.056   4.228   2.972
    1STR    C0M 7758   3.171   4.320   2.955
    1STR    C0N 7759   2.986   4.163   2.851
    1STR    O0O 7760   2.866   4.106   2.902
    1STR    C0P 7761   2.796   4.009   2.840
    1STR    O0Q 7762   2.835   3.944   2.744
    1STR    N0R 7763   2.676   3.985   2.899
    1STR    C0S 7764   2.618   4.073   2.989
    1STR    C0T 7765   2.599   4.043   3.125
    1STR    C0U 7766   2.621   4.146   3.219
    1STR    C0V 7767   2.678   4.267   3.175
    1STR    C0W 7768   2.764   4.346   3.269
    1STR    C0X 7769   2.675   4.298   3.039
    1STR    N0Y 7770   2.762   4.396   2.996
    1STR   BCK2 7771   2.814   4.418   2.877
    1STR    O10 7772   2.926   4.463   2.877
    1STR    C13 7773   2.618   4.206   2.950
    1STR    C14 7774   2.733   3.701   3.427
    1STR    C15 7775   2.811   3.622   3.512
    1STR    C16 7776   2.942   3.591   3.473
    1STR    C17 7777   3.032   3.532   3.572
    1STR    H1B 7778   3.176   3.549   3.393
    1STR    H1C 7779   2.951   3.723   3.169
    1STR    H1D 7780   2.752   3.923   3.203
    1STR    H1E 7781   3.066   4.070   3.472
    1STR    H1F 7782   3.150   3.801   3.585
    1STR    H1G 7783   3.218   3.959   3.626
    1STR    H1H 7784   3.051   3.917   3.674
    1STR    H1I 7785   3.235   3.843   3.383
    1STR    H1J 7786   3.241   4.005   3.329
    1STR    H1K 7787   3.223   3.930   3.094
    1STR    H1M 7788   2.921   3.904   3.035
    1STR    H1N 7789   3.029   3.786   2.979
    1STR    H1O 7790   3.051   3.933   2.916
    1STR    H1P 7791   2.966   4.090   3.140
    1STR    H1Q 7792   3.113   4.137   3.227
    1STR    H1R 7793   2.985   4.276   3.040
    1STR    H1S 7794   3.150   4.416   2.911
    1STR    H1T 7795   3.253   4.266   2.910
    1STR    H1U 7796   3.206   4.346   3.051
    1STR    H1V 7797   3.050   4.095   2.796
    1STR    H1W 7798   2.957   4.236   2.778
    1STR    H1X 7799   2.628   3.903   2.866
    1STR    H1Y 7800   2.583   3.942   3.157
    1STR    H1Z 7801   2.621   4.123   3.325
    1STR    H20 7802   2.864   4.304   3.276
    1STR    H21 7803   2.779   4.446   3.231
    1STR    H22 7804   2.721   4.350   3.369
    1STR    H23 7805   2.825   4.427   3.069
    1STR    H27 7806   2.617   4.217   2.845
    1STR    H28 7807   2.643   3.747   3.465
    1STR    H29 7808   2.776   3.598   3.610
    1STR    H2A 7809   2.976   3.486   3.651
    1STR    H2B 7810   3.100   3.604   3.613
    1STR    H2C 7811   3.088   3.456   3.518
    1STR   BCK1 7812   3.012   3.751   4.704
    1STR    O03 7813   3.111   3.743   4.633
    1STR    N04 7814   3.001   3.689   4.821
    1STR    C05 7815   3.112   3.639   4.886
    1STR    C06 7816   3.237   3.695   4.870
    1STR    C07 7817   3.357   3.641   4.907
    1STR    N08 7818   3.474   3.711   4.881
    1STR    C09 7819   3.575   3.730   4.967
    1STR    O0A 7820   3.575   3.686   5.079
    1STR    O0B 7821   3.680   3.801   4.921
    1STR    C0C 7822   3.674   3.934   4.874
    1STR    C0D 7823   3.673   3.941   4.721
    1STR    C0E 7824   3.553   4.004   4.927
    1STR    O0F 7825   3.540   3.985   5.068
    1STR    C0G 7826   3.415   3.931   5.112
    1STR    C0H 7827   3.423   3.892   5.257
    1STR    C0I 7828   3.304   4.026   5.090
    1STR    O0J 7829   3.299   4.044   4.951
    1STR    C0K 7830   3.201   3.992   4.866
    1STR    C0M 7831   3.243   3.977   4.715
    1STR    C0N 7832   3.053   3.996   4.911
    1STR    O0O 7833   3.015   4.026   5.044
    1STR    C0P 7834   3.020   4.142   5.112
    1STR    O0Q 7835   2.968   4.148   5.222
    1STR    N0R 7836   3.086   4.249   5.067
    1STR    C0S 7837   3.149   4.280   4.949
    1STR    C0T 7838   3.287   4.304   4.952
    1STR    C0U 7839   3.359   4.306   4.832
    1STR    C0V 7840   3.293   4.286   4.710
    1STR    C0W 7841   3.375   4.276   4.584
    1STR    C0X 7842   3.153   4.268   4.706
    1STR    N0Y 7843   3.094   4.226   4.588
    1STR   BCK2 7844   2.976   4.168   4.568
    1STR    O10 7845   2.891   4.151   4.653
    1STR    C13 7846   3.080   4.281   4.826
    1STR    C14 7847   3.346   3.513   4.958
    1STR    C15 7848   3.221   3.464   5.001
    1STR    C16 7849   3.102   3.527   4.966
    1STR    C17 7850   2.969   3.470   5.001
    1STR    H1B 7851   2.912   3.684   4.865
    1STR    H1C 7852   3.248   3.781   4.820
    1STR    H1D 7853   3.490   3.747   4.789
    1STR    H1E 7854   3.762   3.982   4.914
    1STR    H1F 7855   3.596   3.879   4.677
    1STR    H1G 7856   3.645   4.038   4.685
    1STR    H1H 7857   3.772   3.917   4.682
    1STR    H1I 7858   3.475   3.957   4.869
    1STR    H1J 7859   3.553   4.109   4.902
    1STR    H1K 7860   3.380   3.844   5.059
    1STR    H1M 7861   3.464   3.973   5.316
    1STR    H1N 7862   3.487   3.805   5.267
    1STR    H1O 7863   3.325   3.864   5.294
    1STR    H1P 7864   3.215   3.986   5.135
    1STR    H1Q 7865   3.330   4.120   5.139
    1STR    H1R 7866   3.198   4.088   4.837
    1STR    H1S 7867   3.155   3.980   4.652
    1STR    H1T 7868   3.305   3.894   4.684
    1STR    H1U 7869   3.310   4.053   4.681
    1STR    H1V 7870   3.017   3.897   4.910
    1STR    H1W 7871   2.989   4.048   4.842
    1STR    H1X 7872   3.079   4.325   5.134
    1STR    H1Y 7873   3.338   4.312   5.046
    1STR    H1Z 7874   3.465   4.319   4.838
    1STR    H20 7875   3.469   4.227   4.607
    1STR    H21 7876   3.328   4.219   4.505
    1STR    H22 7877   3.393   4.378   4.550
    1STR    H23 7878   3.149   4.244   4.505
    1STR    H27 7879   2.973   4.271   4.828
    1STR    H28 7880   3.436   3.458   4.972
    1STR    H29 7881   3.216   3.372   5.054
    1STR    H2A 7882   2.913   3.545   5.055
    1STR    H2B 7883   2.980   3.381   5.063
    1STR    H2C 7884   2.920   3.443   4.908
    1STR   BCK1 7885   3.283   5.110   0.067
    1STR    O03 7886   3.289   5.225   0.105
    1STR    N04 7887   3.346   5.069   6.296
    1STR    C05 7888   3.325   5.122   6.168
    1STR    C06 7889   3.210   5.194   6.142
    1STR    C07 7890   3.192   5.276   6.030
    1STR    N08 7891   3.097   5.375   6.043
    1STR    C09 7892   2.966   5.353   6.041
    1STR    O0A 7893   2.911   5.283   5.958
    1STR    O0B 7894   2.896   5.406   6.144
    1STR    C0C 7895   2.946   5.501   6.237
    1STR    C0D 7896   2.822   5.564   6.296
    1STR    C0E 7897   3.038   5.458   0.010
    1STR    O0F 7898   3.157   5.399   6.300
    1STR    C0G 7899   3.281   5.468   6.314
    1STR    C0H 7900   3.407   5.408   6.251
    1STR    C0I 7901   3.264   5.597   6.244
    1STR    O0J 7902   3.194   5.687   6.324
    1STR    C0K 7903   3.257   5.731   0.101
    1STR    C0M 7904   3.198   5.673   0.230
    1STR    C0N 7905   3.412   5.728   0.097
    1STR    O0O 7906   3.444   5.815   6.331
    1STR    C0P 7907   3.565   5.820   6.284
    1STR    O0Q 7908   3.666   5.809   0.012
    1STR    N0R 7909   3.571   5.835   6.153
    1STR    C0S 7910   3.474   5.819   6.054
    1STR    C0T 7911   3.522   5.793   5.925
    1STR    C0U 7912   3.433   5.762   5.820
    1STR    C0V 7913   3.296   5.750   5.847
    1STR    C0W 7914   3.197   5.717   5.738
    1STR    C0X 7915   3.247   5.774   5.976
    1STR    N0Y 7916   3.115   5.741   5.993
    1STR   BCK2 7917   3.019   5.777   6.075
    1STR    O10 7918   2.908   5.730   6.053
    1STR    C13 7919   3.334   5.823   6.075
    1STR    C14 7920   3.293   5.279   5.934
    1STR    C15 7921   3.404   5.193   5.949
    1STR    C16 7922   3.423   5.119   6.068
    1STR    C17 7923   3.553   5.053   6.096
    1STR    H1B 7924   3.433   5.022   6.314
    1STR    H1C 7925   3.139   5.195   6.219
    1STR    H1D 7926   3.120   5.429   6.126
    1STR    H1E 7927   3.004   5.570   6.182
    1STR    H1F 7928   2.767   5.489   0.014
    1STR    H1G 7929   2.849   5.647   0.021
    1STR    H1H 7930   2.757   5.599   6.217
    1STR    H1I 7931   2.982   5.394   0.073
    1STR    H1J 7932   3.056   5.539   0.077
    1STR    H1K 7933   3.302   5.475   0.080
    1STR    H1M 7934   3.397   5.397   6.144
    1STR    H1N 7935   3.437   5.313   6.294
    1STR    H1O 7936   3.494   5.471   6.267
    1STR    H1P 7937   3.361   5.633   6.213
    1STR    H1Q 7938   3.214   5.581   6.150
    1STR    H1R 7939   3.221   5.834   0.095
    1STR    H1S 7940   3.241   5.725   0.315
    1STR    H1T 7941   3.218   5.567   0.243
    1STR    H1U 7942   3.091   5.690   0.232
    1STR    H1V 7943   3.455   5.630   0.080
    1STR    H1W 7944   3.457   5.757   0.190
    1STR    H1X 7945   3.666   5.847   6.122
    1STR    H1Y 7946   3.627   5.795   5.905
    1STR    H1Z 7947   3.470   5.745   5.721
    1STR    H20 7948   3.153   5.620   5.757
    1STR    H21 7949   3.118   5.793   5.739
    1STR    H22 7950   3.244   5.719   5.640
    1STR    H23 7951   3.074   5.684   5.921
    1STR    H27 7952   3.292   5.850   6.170
    1STR    H28 7953   3.283   5.346   5.850
    1STR    H29 7954   3.480   5.192   5.873
    1STR    H2A 7955   3.539   4.968   6.163
    1STR    H2B 7956   3.616   5.127   6.146
    1STR    H2C 7957   3.600   5.023   6.003
    1STR   BCK1 7958   3.317   5.162   1.521
    1STR    O03 7959   3.421   5.180   1.584
    1STR    N04 7960   3.198   5.138   1.576
    1STR    C05 7961   3.153   5.158   1.707
    1STR    C06 7962   3.232   5.225   1.801
    1STR    C07 7963   3.174   5.274   1.919
    1STR    N08 7964   3.256   5.348   1.999
    1STR    C09 7965   3.249   5.471   1.957
    1STR    O0A 7966   3.157   5.542   1.992
    1STR    O0B 7967   3.334   5.488   1.854
    1STR    C0C 7968   3.297   5.567   1.742
    1STR    C0D 7969   3.422   5.645   1.705
    1STR    C0E 7970   3.246   5.488   1.621
    1STR    O0F 7971   3.128   5.417   1.653
    1STR    C0G 7972   3.022   5.433   1.565
    1STR    C0H 7973   2.918   5.324   1.567
    1STR    C0I 7974   2.950   5.548   1.622
    1STR    O0J 7975   2.916   5.638   1.522
    1STR    C0K 7976   2.828   5.603   1.418
    1STR    C0M 7977   2.910   5.558   1.300
    1STR    C0N 7978   2.690   5.542   1.448
    1STR    O0O 7979   2.653   5.545   1.586
    1STR    C0P 7980   2.621   5.661   1.643
    1STR    O0Q 7981   2.582   5.760   1.582
    1STR    N0R 7982   2.655   5.660   1.772
    1STR    C0S 7983   2.768   5.728   1.819
    1STR    C0T 7984   2.826   5.697   1.943
    1STR    C0U 7985   2.958   5.737   1.971
    1STR    C0V 7986   3.040   5.792   1.871
    1STR    C0W 7987   3.183   5.833   1.899
    1STR    C0X 7988   2.983   5.821   1.747
    1STR    N0Y 7989   3.058   5.850   1.633
    1STR   BCK2 7990   3.013   5.941   1.550
    1STR    O10 7991   2.938   6.026   1.594
    1STR    C13 7992   2.845   5.802   1.729
    1STR    C14 7993   3.038   5.256   1.947
    1STR    C15 7994   2.962   5.175   1.862
    1STR    C16 7995   3.021   5.125   1.745
    1STR    C17 7996   2.939   5.031   1.665
    1STR    H1B 7997   3.122   5.124   1.512
    1STR    H1C 7998   3.335   5.252   1.781
    1STR    H1D 7999   3.350   5.310   1.996
    1STR    H1E 8000   3.217   5.633   1.768
    1STR    H1F 8001   3.501   5.576   1.677
    1STR    H1G 8002   3.401   5.713   1.623
    1STR    H1H 8003   3.454   5.702   1.791
    1STR    H1I 8004   3.322   5.419   1.587
    1STR    H1J 8005   3.228   5.558   1.539
    1STR    H1K 8006   3.062   5.446   1.465
    1STR    H1M 8007   2.875   5.311   1.666
    1STR    H1N 8008   2.962   5.234   1.534
    1STR    H1O 8009   2.836   5.341   1.500
    1STR    H1P 8010   2.866   5.522   1.685
    1STR    H1Q 8011   3.017   5.595   1.693
    1STR    H1R 8012   2.799   5.698   1.382
    1STR    H1S 8013   2.860   5.589   1.209
    1STR    H1T 8014   2.927   5.450   1.300
    1STR    H1U 8015   3.008   5.607   1.299
    1STR    H1V 8016   2.684   5.440   1.411
    1STR    H1W 8017   2.615   5.597   1.391
    1STR    H1X 8018   2.643   5.569   1.813
    1STR    H1Y 8019   2.772   5.639   2.016
    1STR    H1Z 8020   3.003   5.716   2.067
    1STR    H20 8021   3.236   5.851   1.807
    1STR    H21 8022   3.181   5.924   1.956
    1STR    H22 8023   3.238   5.760   1.957
    1STR    H23 8024   3.114   5.778   1.591
    1STR    H27 8025   2.806   5.825   1.632
    1STR    H28 8026   2.994   5.300   2.035
    1STR    H29 8027   2.859   5.149   1.886
    1STR    H2A 8028   2.849   5.076   1.625
    1STR    H2B 8029   2.916   4.947   1.730
    1STR    H2C 8030   2.998   4.988   1.587
    1STR   BCK1 8031   3.185   5.324   3.086
    1STR    O03 8032   3.169   5.359   2.969
    1STR    N04 8033   3.290   5.260   3.134
    1STR    C05 8034   3.396   5.214   3.060
    1STR    C06 8035   3.526   5.249   3.091
    1STR    C07 8036   3.635   5.211   3.014
    1STR    N08 8037   3.743   5.296   3.012
    1STR    C09 8038   3.727   5.415   2.953
    1STR    O0A 8039   3.804   5.508   2.972
    1STR    O0B 8040   3.614   5.421   2.878
    1STR    C0C 8041   3.528   5.534   2.883
    1STR    C0D 8042   3.426   5.510   2.771
    1STR    C0E 8043   3.452   5.543   3.016
    1STR    O0F 8044   3.538   5.522   3.128
    1STR    C0G 8045   3.469   5.505   3.252
    1STR    C0H 8046   3.563   5.456   3.362
    1STR    C0I 8047   3.423   5.638   3.287
    1STR    O0J 8048   3.292   5.671   3.247
    1STR    C0K 8049   3.183   5.665   3.340
    1STR    C0M 8050   3.104   5.558   3.286
    1STR    C0N 8051   3.199   5.648   3.491
    1STR    O0O 8052   3.324   5.673   3.546
    1STR    C0P 8053   3.358   5.788   3.599
    1STR    O0Q 8054   3.410   5.789   3.708
    1STR    N0R 8055   3.346   5.900   3.526
    1STR    C0S 8056   3.343   5.922   3.391
    1STR    C0T 8057   3.457   5.910   3.315
    1STR    C0U 8058   3.449   5.914   3.175
    1STR    C0V 8059   3.330   5.932   3.107
    1STR    C0W 8060   3.333   5.928   2.957
    1STR    C0X 8061   3.214   5.942   3.184
    1STR    N0Y 8062   3.088   5.920   3.135
    1STR   BCK2 8063   3.046   5.808   3.079
    1STR    O10 8064   2.945   5.760   3.128
    1STR    C13 8065   3.227   5.952   3.324
    1STR    C14 8066   3.618   5.110   2.922
    1STR    C15 8067   3.490   5.055   2.914
    1STR    C16 8068   3.377   5.113   2.970
    1STR    C17 8069   3.242   5.056   2.949
    1STR    H1B 8070   3.282   5.223   3.227
    1STR    H1C 8071   3.546   5.308   3.173
    1STR    H1D 8072   3.812   5.292   3.084
    1STR    H1E 8073   3.586   5.624   2.869
    1STR    H1F 8074   3.373   5.416   2.787
    1STR    H1G 8075   3.352   5.590   2.768
    1STR    H1H 8076   3.477   5.504   2.675
    1STR    H1I 8077   3.377   5.467   3.016
    1STR    H1J 8078   3.396   5.636   3.023
    1STR    H1K 8079   3.382   5.442   3.246
    1STR    H1M 8080   3.641   5.391   3.325
    1STR    H1N 8081   3.505   5.405   3.439
    1STR    H1O 8082   3.617   5.537   3.411
    1STR    H1P 8083   3.458   5.671   3.382
    1STR    H1Q 8084   3.490   5.694   3.225
    1STR    H1R 8085   3.115   5.746   3.323
    1STR    H1S 8086   3.005   5.549   3.330
    1STR    H1T 8087   3.167   5.474   3.311
    1STR    H1U 8088   3.095   5.567   3.177
    1STR    H1V 8089   3.178   5.545   3.520
    1STR    H1W 8090   3.125   5.710   3.542
    1STR    H1X 8091   3.363   5.988   3.576
    1STR    H1Y 8092   3.549   5.882   3.365
    1STR    H1Z 8093   3.534   5.884   3.120
    1STR    H20 8094   3.321   5.826   2.921
    1STR    H21 8095   3.255   5.990   2.916
    1STR    H22 8096   3.428   5.966   2.922
    1STR    H23 8097   3.020   5.961   3.197
    1STR    H27 8098   3.146   5.956   3.390
    1STR    H28 8099   3.700   5.073   2.862
    1STR    H29 8100   3.479   4.966   2.863
    1STR    H2A 8101   3.163   5.096   3.010
    1STR    H2B 8102   3.252   4.956   2.984
    1STR    H2C 8103   3.209   5.065   2.846
    1STR   BCK1 8104   3.155   5.197   4.734
    1STR    O03 8105   3.152   5.142   4.843
    1STR    N04 8106   3.051   5.251   4.672
    1STR    C05 8107   2.937   5.296   4.730
    1STR    C06 8108   2.940   5.329   4.865
    1STR    C07 8109   2.826   5.374   4.931
    1STR    N08 8110   2.837   5.394   5.067
    1STR    C09 8111   2.903   5.505   5.096
    1STR    O0A 8112   2.847   5.610   5.119
    1STR    O0B 8113   3.035   5.486   5.082
    1STR    C0C 8114   3.108   5.572   4.995
    1STR    C0D 8115   3.137   5.702   5.069
    1STR    C0E 8116   3.240   5.503   4.950
    1STR    O0F 8117   3.238   5.453   4.818
    1STR    C0G 8118   3.301   5.534   4.718
    1STR    C0H 8119   3.296   5.458   4.587
    1STR    C0I 8120   3.214   5.651   4.696
    1STR    O0J 8121   3.269   5.754   4.618
    1STR    C0K 8122   3.286   5.747   4.478
    1STR    C0M 8123   3.431   5.705   4.447
    1STR    C0N 8124   3.173   5.691   4.385
    1STR    O0O 8125   3.065   5.615   4.437
    1STR    C0P 8126   2.950   5.610   4.367
    1STR    O0Q 8127   2.946   5.616   4.245
    1STR    N0R 8128   2.836   5.603   4.437
    1STR    C0S 8129   2.810   5.635   4.570
    1STR    C0T 8130   2.683   5.624   4.630
    1STR    C0U 8131   2.659   5.675   4.759
    1STR    C0V 8132   2.759   5.746   4.829
    1STR    C0W 8133   2.731   5.818   4.958
    1STR    C0X 8134   2.883   5.761   4.768
    1STR    N0Y 8135   2.978   5.848   4.815
    1STR   BCK2 8136   3.060   5.928   4.748
    1STR    O10 8137   3.169   5.934   4.793
    1STR    C13 8138   2.905   5.702   4.645
    1STR    C14 8139   2.707   5.389   4.859
    1STR    C15 8140   2.700   5.345   4.725
    1STR    C16 8141   2.816   5.302   4.659
    1STR    C17 8142   2.808   5.258   4.516
    1STR    H1B 8143   3.057   5.255   4.572
    1STR    H1C 8144   3.032   5.319   4.920
    1STR    H1D 8145   2.887   5.317   5.107
    1STR    H1E 8146   3.045   5.592   4.907
    1STR    H1F 8147   3.194   5.681   5.159
    1STR    H1G 8148   3.192   5.772   5.007
    1STR    H1H 8149   3.045   5.752   5.100
    1STR    H1I 8150   3.259   5.418   5.015
    1STR    H1J 8151   3.324   5.572   4.961
    1STR    H1K 8152   3.402   5.563   4.744
    1STR    H1M 8153   3.201   5.407   4.580
    1STR    H1N 8154   3.384   5.397   4.575
    1STR    H1O 8155   3.284   5.509   4.495
    1STR    H1P 8156   3.122   5.605   4.663
    1STR    H1Q 8157   3.192   5.698   4.791
    1STR    H1R 8158   3.285   5.854   4.459
    1STR    H1S 8159   3.464   5.736   4.350
    1STR    H1T 8160   3.452   5.599   4.448
    1STR    H1U 8161   3.496   5.749   4.522
    1STR    H1V 8162   3.213   5.636   4.299
    1STR    H1W 8163   3.125   5.780   4.347
    1STR    H1X 8164   2.758   5.584   4.377
    1STR    H1Y 8165   2.604   5.572   4.577
    1STR    H1Z 8166   2.563   5.663   4.807
    1STR    H20 8167   2.823   5.840   5.012
    1STR    H21 8168   2.682   5.912   4.936
    1STR    H22 8169   2.668   5.757   5.022
    1STR    H23 8170   2.991   5.856   4.915
    1STR    H27 8171   2.995   5.730   4.598
    1STR    H28 8172   2.619   5.425   4.909
    1STR    H29 8173   2.607   5.348   4.671
    1STR    H2A 8174   2.855   5.333   4.453
    1STR    H2B 8175   2.705   5.240   4.486
    1STR    H2C 8176   2.858   5.164   4.502
    1STR   BCK1 8177   4.750   0.444   6.314
    1STR    O03 8178   4.809   0.432   6.207
    1STR    N04 8179   4.735   0.345   0.060
    1STR    C05 8180   4.795   0.367   0.183
    1STR    C06 8181   4.934   0.365   0.195
    1STR    C07 8182   5.001   0.419   0.307
    1STR    N08 8183   5.134   0.460   0.289
    1STR    C09 8184   5.167   0.589   0.291
    1STR    O0A 8185   5.140   0.669   0.381
    1STR    O0B 8186   5.210   0.626   0.168
    1STR    C0C 8187   5.124   0.705   0.088
    1STR    C0D 8188   5.174   0.741   6.289
    1STR    C0E 8189   4.995   0.629   0.065
    1STR    O0F 8190   4.926   0.637   0.188
    1STR    C0G 8191   4.812   0.712   0.199
    1STR    C0H 8192   4.771   0.727   0.345
    1STR    C0I 8193   4.840   0.840   0.132
    1STR    O0J 8194   4.828   0.821   6.336
    1STR    C0K 8195   4.705   0.853   6.280
    1STR    C0M 8196   4.729   0.813   6.136
    1STR    C0N 8197   4.561   0.825   0.006
    1STR    O0O 8198   4.557   0.790   0.144
    1STR    C0P 8199   4.464   0.838   0.227
    1STR    O0Q 8200   4.359   0.780   0.252
    1STR    N0R 8201   4.497   0.952   0.288
    1STR    C0S 8202   4.601   1.032   0.247
    1STR    C0T 8203   4.719   1.053   0.325
    1STR    C0U 8204   4.830   1.117   0.263
    1STR    C0V 8205   4.821   1.160   0.129
    1STR    C0W 8206   4.945   1.190   0.053
    1STR    C0X 8207   4.700   1.156   0.058
    1STR    N0Y 8208   4.688   1.205   6.269
    1STR   BCK2 8209   4.619   1.149   6.170
    1STR    O10 8210   4.553   1.047   6.176
    1STR    C13 8211   4.592   1.091   0.119
    1STR    C14 8212   4.922   0.461   0.415
    1STR    C15 8213   4.782   0.445   0.412
    1STR    C16 8214   4.717   0.405   0.293
    1STR    C17 8215   4.567   0.407   0.283
    1STR    H1B 8216   4.636   0.332   0.073
    1STR    H1C 8217   4.987   0.341   0.108
    1STR    H1D 8218   5.180   0.414   0.212
    1STR    H1E 8219   5.109   0.796   0.145
    1STR    H1F 8220   5.147   0.670   6.212
    1STR    H1G 8221   5.117   0.828   6.259
    1STR    H1H 8222   5.282   0.756   6.289
    1STR    H1I 8223   5.023   0.529   0.046
    1STR    H1J 8224   4.941   0.645   6.313
    1STR    H1K 8225   4.736   0.655   0.149
    1STR    H1M 8226   4.855   0.715   0.413
    1STR    H1N 8227   4.689   0.660   0.367
    1STR    H1O 8228   4.723   0.820   0.366
    1STR    H1P 8229   4.761   0.902   0.156
    1STR    H1Q 8230   4.930   0.890   0.166
    1STR    H1R 8231   4.727   0.956   6.282
    1STR    H1S 8232   4.643   0.835   6.073
    1STR    H1T 8233   4.758   0.708   6.132
    1STR    H1U 8234   4.815   0.868   6.097
    1STR    H1V 8235   4.502   0.755   6.291
    1STR    H1W 8236   4.490   0.904   6.335
    1STR    H1X 8237   4.430   0.984   0.356
    1STR    H1Y 8238   4.729   1.015   0.425
    1STR    H1Z 8239   4.925   1.123   0.315
    1STR    H20 8240   4.929   1.255   6.307
    1STR    H21 8241   5.016   1.234   0.122
    1STR    H22 8242   4.982   1.095   0.015
    1STR    H23 8243   4.724   1.299   6.253
    1STR    H27 8244   4.499   1.090   0.066
    1STR    H28 8245   4.967   0.511   0.498
    1STR    H29 8246   4.725   0.475   0.498
    1STR    H2A 8247   4.536   0.497   0.231
    1STR    H2B 8248   4.522   0.407   0.382
    1STR    H2C 8249   4.533   0.320   0.229
    1STR   BCK1 8250   4.735   0.335   1.562
    1STR    O03 8251   4.736   0.288   1.674
    1STR    N04 8252   4.833   0.294   1.483
    1STR    C05 8253   4.898   0.378   1.394
    1STR    C06 8254   4.834   0.478   1.325
    1STR    C07 8255   4.903   0.582   1.262
    1STR    N08 8256   4.833   0.697   1.234
    1STR    C09 8257   4.712   0.678   1.185
    1STR    O0A 8258   4.692   0.631   1.073
    1STR    O0B 8259   4.614   0.685   1.277
    1STR    C0C 8260   4.615   0.770   1.390
    1STR    C0D 8261   4.465   0.793   1.402
    1STR    C0E 8262   4.670   0.734   1.530
    1STR    O0F 8263   4.770   0.635   1.535
    1STR    C0G 8264   4.859   0.653   1.644
    1STR    C0H 8265   4.902   0.528   1.713
    1STR    C0I 8266   4.986   0.708   1.588
    1STR    O0J 8267   4.957   0.840   1.554
    1STR    C0K 8268   5.008   0.930   1.649
    1STR    C0M 8269   4.935   0.925   1.783
    1STR    C0N 8270   5.161   0.938   1.653
    1STR    O0O 8271   5.224   0.847   1.563
    1STR    C0P 8272   5.247   0.885   1.439
    1STR    O0Q 8273   5.355   0.934   1.406
    1STR    N0R 8274   5.136   0.881   1.364
    1STR    C0S 8275   5.091   0.992   1.296
    1STR    C0T 8276   5.183   1.082   1.243
    1STR    C0U 8277   5.175   1.215   1.284
    1STR    C0V 8278   5.073   1.255   1.371
    1STR    C0W 8279   5.091   1.383   1.445
    1STR    C0X 8280   4.965   1.170   1.399
    1STR    N0Y 8281   4.881   1.200   1.505
    1STR   BCK2 8282   4.772   1.139   1.550
    1STR    O10 8283   4.722   1.164   1.658
    1STR    C13 8284   4.970   1.040   1.347
    1STR    C14 8285   5.042   0.577   1.252
    1STR    C15 8286   5.109   0.466   1.307
    1STR    C16 8287   5.035   0.368   1.376
    1STR    C17 8288   5.099   0.247   1.426
    1STR    H1B 8289   4.896   0.234   1.534
    1STR    H1C 8290   4.728   0.478   1.329
    1STR    H1D 8291   4.840   0.757   1.314
    1STR    H1E 8292   4.671   0.853   1.351
    1STR    H1F 8293   4.412   0.700   1.418
    1STR    H1G 8294   4.441   0.854   1.488
    1STR    H1H 8295   4.426   0.836   1.311
    1STR    H1I 8296   4.591   0.696   1.596
    1STR    H1J 8297   4.703   0.827   1.576
    1STR    H1K 8298   4.815   0.713   1.723
    1STR    H1M 8299   4.950   0.462   1.642
    1STR    H1N 8300   4.815   0.484   1.757
    1STR    H1O 8301   4.972   0.550   1.794
    1STR    H1P 8302   5.068   0.699   1.659
    1STR    H1Q 8303   5.016   0.653   1.500
    1STR    H1R 8304   4.982   1.025   1.611
    1STR    H1S 8305   4.960   1.013   1.840
    1STR    H1T 8306   4.960   0.837   1.842
    1STR    H1U 8307   4.827   0.929   1.767
    1STR    H1V 8308   5.197   0.919   1.754
    1STR    H1W 8309   5.191   1.041   1.628
    1STR    H1X 8310   5.064   0.837   1.421
    1STR    H1Y 8311   5.275   1.047   1.198
    1STR    H1Z 8312   5.258   1.279   1.263
    1STR    H20 8313   5.081   1.470   1.381
    1STR    H21 8314   5.024   1.394   1.529
    1STR    H22 8315   5.190   1.378   1.488
    1STR    H23 8316   4.922   1.260   1.577
    1STR    H27 8317   4.897   0.969   1.380
    1STR    H28 8318   5.097   0.657   1.205
    1STR    H29 8319   5.216   0.456   1.297
    1STR    H2A 8320   5.101   0.259   1.533
    1STR    H2B 8321   5.198   0.241   1.383
    1STR    H2C 8322   5.043   0.156   1.402
    1STR   BCK1 8323   4.766   0.416   3.252
    1STR    O03 8324   4.883   0.429   3.279
    1STR    N04 8325   4.684   0.353   3.335
    1STR    C05 8326   4.552   0.391   3.355
    1STR    C06 8327   4.496   0.493   3.279
    1STR    C07 8328   4.399   0.573   3.337
    1STR    N08 8329   4.429   0.707   3.338
    1STR    C09 8330   4.547   0.755   3.380
    1STR    O0A 8331   4.553   0.866   3.427
    1STR    O0B 8332   4.656   0.676   3.368
    1STR    C0C 8333   4.786   0.730   3.344
    1STR    C0D 8334   4.877   0.676   3.452
    1STR    C0E 8335   4.834   0.708   3.196
    1STR    O0F 8336   4.717   0.682   3.117
    1STR    C0G 8337   4.721   0.697   2.975
    1STR    C0H 8338   4.594   0.626   2.931
    1STR    C0I 8339   4.717   0.838   2.916
    1STR    O0J 8340   4.752   0.937   3.006
    1STR    C0K 8341   4.668   0.947   3.119
    1STR    C0M 8342   4.743   1.052   3.193
    1STR    C0N 8343   4.517   0.939   3.113
    1STR    O0O 8344   4.454   0.832   3.043
    1STR    C0P 8345   4.324   0.787   3.046
    1STR    O0Q 8346   4.289   0.693   2.976
    1STR    N0R 8347   4.228   0.839   3.125
    1STR    C0S 8348   4.228   0.952   3.201
    1STR    C0T 8349   4.233   0.942   3.341
    1STR    C0U 8350   4.307   1.039   3.410
    1STR    C0V 8351   4.375   1.137   3.337
    1STR    C0W 8352   4.514   1.166   3.389
    1STR    C0X 8353   4.341   1.164   3.201
    1STR    N0Y 8354   4.418   1.253   3.127
    1STR   BCK2 8355   4.478   1.250   3.006
    1STR    O10 8356   4.596   1.266   3.012
    1STR    C13 8357   4.262   1.070   3.135
    1STR    C14 8358   4.321   0.525   3.442
    1STR    C15 8359   4.364   0.410   3.510
    1STR    C16 8360   4.488   0.354   3.475
    1STR    C17 8361   4.562   0.271   3.574
    1STR    H1B 8362   4.730   0.301   3.407
    1STR    H1C 8363   4.552   0.536   3.199
    1STR    H1D 8364   4.357   0.774   3.315
    1STR    H1E 8365   4.785   0.838   3.361
    1STR    H1F 8366   4.867   0.568   3.462
    1STR    H1G 8367   4.980   0.702   3.431
    1STR    H1H 8368   4.846   0.718   3.548
    1STR    H1I 8369   4.907   0.630   3.181
    1STR    H1J 8370   4.885   0.796   3.159
    1STR    H1K 8371   4.810   0.645   2.939
    1STR    H1M 8372   4.525   0.609   3.012
    1STR    H1N 8373   4.621   0.530   2.893
    1STR    H1O 8374   4.537   0.678   2.855
    1STR    H1P 8375   4.788   0.845   2.834
    1STR    H1Q 8376   4.621   0.867   2.874
    1STR    H1R 8377   4.673   0.873   3.192
    1STR    H1S 8378   4.721   1.051   3.299
    1STR    H1T 8379   4.729   1.149   3.150
    1STR    H1U 8380   4.849   1.030   3.186
    1STR    H1V 8381   4.493   1.024   3.062
    1STR    H1W 8382   4.480   0.946   3.213
    1STR    H1X 8383   4.143   0.785   3.116
    1STR    H1Y 8384   4.203   0.852   3.392
    1STR    H1Z 8385   4.337   1.019   3.512
    1STR    H20 8386   4.573   1.197   3.306
    1STR    H21 8387   4.529   1.232   3.470
    1STR    H22 8388   4.564   1.082   3.430
    1STR    H23 8389   4.462   1.321   3.190
    1STR    H27 8390   4.254   1.071   3.029
    1STR    H28 8391   4.242   0.585   3.484
    1STR    H29 8392   4.313   0.377   3.598
    1STR    H2A 8393   4.612   0.194   3.516
    1STR    H2B 8394   4.493   0.226   3.644
    1STR    H2C 8395   4.633   0.332   3.627
    1STR   BCK1 8396   4.760   0.579   4.569
    1STR    O03 8397   4.853   0.570   4.491
    1STR    N04 8398   4.756   0.523   4.691
    1STR    C05 8399   4.857   0.456   4.758
    1STR    C06 8400   4.993   0.471   4.728
    1STR    C07 8401   5.092   0.426   4.817
    1STR    N08 8402   5.220   0.477   4.831
    1STR    C09 8403   5.289   0.566   4.761
    1STR    O0A 8404   5.395   0.616   4.798
    1STR    O0B 8405   5.232   0.595   4.647
    1STR    C0C 8406   5.197   0.727   4.627
    1STR    C0D 8407   5.139   0.738   4.486
    1STR    C0E 8408   5.095   0.762   4.731
    1STR    O0F 8409   5.122   0.732   4.867
    1STR    C0G 8410   5.009   0.733   4.950
    1STR    C0H 8411   5.034   0.655   5.075
    1STR    C0I 8412   4.989   0.878   4.983
    1STR    O0J 8413   4.955   0.949   4.867
    1STR    C0K 8414   4.848   0.900   4.785
    1STR    C0M 8415   4.863   0.911   4.632
    1STR    C0N 8416   4.726   0.822   4.838
    1STR    O0O 8417   4.708   0.786   4.974
    1STR    C0P 8418   4.675   0.862   5.081
    1STR    O0Q 8419   4.642   0.810   5.186
    1STR    N0R 8420   4.687   0.995   5.079
    1STR    C0S 8421   4.704   1.084   4.977
    1STR    C0T 8422   4.816   1.166   4.979
    1STR    C0U 8423   4.852   1.230   4.860
    1STR    C0V 8424   4.775   1.218   4.744
    1STR    C0W 8425   4.848   1.243   4.615
    1STR    C0X 8426   4.651   1.150   4.747
    1STR    N0Y 8427   4.590   1.120   4.627
    1STR   BCK2 8428   4.498   1.027   4.599
    1STR    O10 8429   4.447   0.950   4.679
    1STR    C13 8430   4.616   1.086   4.868
    1STR    C14 8431   5.056   0.325   4.905
    1STR    C15 8432   4.922   0.302   4.927
    1STR    C16 8433   4.823   0.380   4.869
    1STR    C17 8434   4.685   0.375   4.928
    1STR    H1B 8435   4.669   0.523   4.741
    1STR    H1C 8436   5.021   0.527   4.642
    1STR    H1D 8437   5.278   0.444   4.907
    1STR    H1E 8438   5.284   0.791   4.641
    1STR    H1F 8439   5.075   0.653   4.463
    1STR    H1G 8440   5.078   0.828   4.473
    1STR    H1H 8441   5.219   0.738   4.412
    1STR    H1I 8442   5.000   0.718   4.706
    1STR    H1J 8443   5.094   0.869   4.721
    1STR    H1K 8444   4.923   0.684   4.905
    1STR    H1M 8445   5.131   0.677   5.117
    1STR    H1N 8446   5.029   0.552   5.044
    1STR    H1O 8447   4.955   0.673   5.148
    1STR    H1P 8448   4.919   0.893   5.064
    1STR    H1Q 8449   5.083   0.918   5.020
    1STR    H1R 8450   4.818   0.996   4.789
    1STR    H1S 8451   4.777   0.960   4.587
    1STR    H1T 8452   4.871   0.816   4.583
    1STR    H1U 8453   4.951   0.966   4.604
    1STR    H1V 8454   4.739   0.727   4.793
    1STR    H1W 8455   4.634   0.855   4.793
    1STR    H1X 8456   4.679   1.035   5.171
    1STR    H1Y 8457   4.881   1.166   5.065
    1STR    H1Z 8458   4.944   1.281   4.855
    1STR    H20 8459   4.906   1.160   4.582
    1STR    H21 8460   4.782   1.265   4.533
    1STR    H22 8461   4.918   1.324   4.630
    1STR    H23 8462   4.634   1.164   4.549
    1STR    H27 8463   4.527   1.027   4.874
    1STR    H28 8464   5.132   0.272   4.958
    1STR    H29 8465   4.892   0.224   4.992
    1STR    H2A 8466   4.613   0.342   4.855
    1STR    H2B 8467   4.659   0.472   4.969
    1STR    H2C 8468   4.681   0.302   5.008
    1STR   BCK1 8469   4.846   1.962   6.277
    1STR    O03 8470   4.960   1.942   6.315
    1STR    N04 8471   4.829   1.935   6.148
    1STR    C05 8472   4.735   1.984   6.058
    1STR    C06 8473   4.619   2.041   6.105
    1STR    C07 8474   4.526   2.107   6.026
    1STR    N08 8475   4.461   2.207   6.094
    1STR    C09 8476   4.554   2.289   6.142
    1STR    O0A 8477   4.648   2.329   6.074
    1STR    O0B 8478   4.542   2.300   6.275
    1STR    C0C 8479   4.650   2.352   0.014
    1STR    C0D 8480   4.597   2.374   0.156
    1STR    C0E 8481   4.782   2.272   0.018
    1STR    O0F 8482   4.813   2.219   6.230
    1STR    C0G 8483   4.946   2.230   6.180
    1STR    C0H 8484   4.964   2.184   6.039
    1STR    C0I 8485   4.976   2.372   6.172
    1STR    O0J 8486   5.051   2.384   6.287
    1STR    C0K 8487   5.030   2.506   0.004
    1STR    C0M 8488   5.067   2.471   0.148
    1STR    C0N 8489   5.116   2.597   6.252
    1STR    O0O 8490   5.053   2.629   6.129
    1STR    C0P 8491   4.930   2.675   6.135
    1STR    O0Q 8492   4.885   2.741   6.227
    1STR    N0R 8493   4.862   2.624   6.033
    1STR    C0S 8494   4.725   2.609   6.023
    1STR    C0T 8495   4.668   2.577   5.898
    1STR    C0U 8496   4.533   2.541   5.889
    1STR    C0V 8497   4.454   2.531   6.006
    1STR    C0W 8498   4.310   2.488   5.995
    1STR    C0X 8499   4.509   2.566   6.131
    1STR    N0Y 8500   4.439   2.546   6.249
    1STR   BCK2 8501   4.404   2.640   6.335
    1STR    O10 8502   4.380   2.617   0.112
    1STR    C13 8503   4.643   2.609   6.138
    1STR    C14 8504   4.546   2.114   5.888
    1STR    C15 8505   4.663   2.056   5.838
    1STR    C16 8506   4.757   1.991   5.921
    1STR    C17 8507   4.882   1.931   5.862
    1STR    H1B 8508   4.915   1.907   6.105
    1STR    H1C 8509   4.613   2.053   6.208
    1STR    H1D 8510   4.380   2.186   6.149
    1STR    H1E 8511   4.678   2.448   6.314
    1STR    H1F 8512   4.593   2.282   0.214
    1STR    H1G 8513   4.660   2.445   0.209
    1STR    H1H 8514   4.496   2.413   0.153
    1STR    H1I 8515   4.785   2.193   0.091
    1STR    H1J 8516   4.856   2.337   0.059
    1STR    H1K 8517   5.015   2.175   6.245
    1STR    H1M 8518   4.873   2.204   5.981
    1STR    H1N 8519   4.989   2.081   6.050
    1STR    H1O 8520   5.049   2.225   5.985
    1STR    H1P 8521   5.036   2.402   6.087
    1STR    H1Q 8522   4.880   2.424   6.168
    1STR    H1R 8523   4.924   2.535   0.007
    1STR    H1S 8524   4.999   2.521   0.217
    1STR    H1T 8525   5.171   2.495   0.169
    1STR    H1U 8526   5.050   2.367   0.171
    1STR    H1V 8527   5.214   2.554   6.234
    1STR    H1W 8528   5.132   2.692   6.293
    1STR    H1X 8529   4.915   2.583   5.959
    1STR    H1Y 8530   4.729   2.581   5.809
    1STR    H1Z 8531   4.490   2.519   5.793
    1STR    H20 8532   4.261   2.482   6.092
    1STR    H21 8533   4.256   2.562   5.935
    1STR    H22 8534   4.305   2.391   5.948
    1STR    H23 8535   4.433   2.451   6.283
    1STR    H27 8536   4.682   2.636   6.235
    1STR    H28 8537   4.484   2.176   5.826
    1STR    H29 8538   4.683   2.073   5.735
    1STR    H2A 8539   4.977   1.951   5.908
    1STR    H2B 8540   4.889   1.948   5.756
    1STR    H2C 8541   4.863   1.828   5.883
    1STR   BCK1 8542   4.835   1.946   1.576
    1STR    O03 8543   4.950   1.953   1.612
    1STR    N04 8544   4.739   1.931   1.669
    1STR    C05 8545   4.733   1.969   1.803
    1STR    C06 8546   4.847   2.019   1.867
    1STR    C07 8547   4.836   2.095   1.983
    1STR    N08 8548   4.948   2.163   2.020
    1STR    C09 8549   4.947   2.283   1.967
    1STR    O0A 8550   4.877   2.373   2.010
    1STR    O0B 8551   5.011   2.279   1.850
    1STR    C0C 8552   4.961   2.353   1.741
    1STR    C0D 8553   5.081   2.410   1.668
    1STR    C0E 8554   4.878   2.271   1.646
    1STR    O0F 8555   4.756   2.228   1.705
    1STR    C0G 8556   4.639   2.257   1.629
    1STR    C0H 8557   4.530   2.156   1.645
    1STR    C0I 8558   4.583   2.376   1.694
    1STR    O0J 8559   4.520   2.450   1.593
    1STR    C0K 8560   4.391   2.426   1.542
    1STR    C0M 8561   4.409   2.353   1.407
    1STR    C0N 8562   4.277   2.378   1.634
    1STR    O0O 8563   4.296   2.407   1.772
    1STR    C0P 8564   4.288   2.532   1.812
    1STR    O0Q 8565   4.232   2.620   1.747
    1STR    N0R 8566   4.372   2.553   1.914
    1STR    C0S 8567   4.498   2.606   1.891
    1STR    C0T 8568   4.601   2.582   1.983
    1STR    C0U 8569   4.734   2.610   1.946
    1STR    C0V 8570   4.766   2.646   1.815
    1STR    C0W 8571   4.911   2.664   1.784
    1STR    C0X 8572   4.665   2.665   1.718
    1STR    N0Y 8573   4.688   2.656   1.580
    1STR   BCK2 8574   4.599   2.699   1.490
    1STR    O10 8575   4.521   2.787   1.517
    1STR    C13 8576   4.532   2.656   1.765
    1STR    C14 8577   4.710   2.120   2.040
    1STR    C15 8578   4.597   2.058   1.986
    1STR    C16 8579   4.609   1.977   1.871
    1STR    C17 8580   4.480   1.914   1.822
    1STR    H1B 8581   4.649   1.900   1.630
    1STR    H1C 8582   4.945   2.013   1.823
    1STR    H1D 8583   5.030   2.112   1.991
    1STR    H1E 8584   4.890   2.426   1.775
    1STR    H1F 8585   5.142   2.329   1.629
    1STR    H1G 8586   5.050   2.473   1.584
    1STR    H1H 8587   5.142   2.470   1.736
    1STR    H1I 8588   4.940   2.186   1.623
    1STR    H1J 8589   4.862   2.326   1.554
    1STR    H1K 8590   4.660   2.274   1.524
    1STR    H1M 8591   4.500   2.151   1.749
    1STR    H1N 8592   4.563   2.063   1.607
    1STR    H1O 8593   4.439   2.176   1.594
    1STR    H1P 8594   4.525   2.358   1.783
    1STR    H1Q 8595   4.669   2.428   1.731
    1STR    H1R 8596   4.366   2.530   1.521
    1STR    H1S 8597   4.331   2.380   1.337
    1STR    H1T 8598   4.410   2.245   1.411
    1STR    H1U 8599   4.505   2.379   1.363
    1STR    H1V 8600   4.261   2.271   1.625
    1STR    H1W 8601   4.185   2.425   1.600
    1STR    H1X 8602   4.371   2.478   1.980
    1STR    H1Y 8603   4.582   2.543   2.082
    1STR    H1Z 8604   4.813   2.598   2.018
    1STR    H20 8605   4.933   2.661   1.677
    1STR    H21 8606   4.932   2.760   1.827
    1STR    H22 8607   4.977   2.598   1.840
    1STR    H23 8608   4.759   2.592   1.549
    1STR    H27 8609   4.453   2.667   1.693
    1STR    H28 8610   4.702   2.187   2.124
    1STR    H29 8611   4.500   2.072   2.032
    1STR    H2A 8612   4.458   1.928   1.718
    1STR    H2B 8613   4.394   1.953   1.875
    1STR    H2C 8614   4.482   1.808   1.838
    1STR   BCK1 8615   4.792   2.020   3.099
    1STR    O03 8616   4.786   2.030   2.977
    1STR    N04 8617   4.904   1.988   3.160
    1STR    C05 8618   5.020   1.993   3.085
    1STR    C06 8619   5.068   2.118   3.047
    1STR    C07 8620   5.110   2.138   2.917
    1STR    N08 8621   5.051   2.250   2.860
    1STR    C09 8622   4.982   2.235   2.748
    1STR    O0A 8623   5.027   2.180   2.647
    1STR    O0B 8624   4.854   2.275   2.753
    1STR    C0C 8625   4.798   2.374   2.838
    1STR    C0D 8626   4.673   2.404   2.759
    1STR    C0E 8627   4.752   2.331   2.977
    1STR    O0F 8628   4.860   2.310   3.064
    1STR    C0G 8629   4.842   2.353   3.198
    1STR    C0H 8630   4.950   2.294   3.286
    1STR    C0I 8631   4.875   2.497   3.187
    1STR    O0J 8632   4.818   2.586   3.279
    1STR    C0K 8633   4.852   2.587   3.416
    1STR    C0M 8634   4.749   2.503   3.489
    1STR    C0N 8635   5.000   2.568   3.461
    1STR    O0O 8636   5.088   2.518   3.366
    1STR    C0P 8637   5.218   2.533   3.374
    1STR    O0Q 8638   5.282   2.542   3.478
    1STR    N0R 8639   5.273   2.543   3.254
    1STR    C0S 8640   5.212   2.592   3.139
    1STR    C0T 8641   5.247   2.551   3.009
    1STR    C0U 8642   5.173   2.598   2.899
    1STR    C0V 8643   5.061   2.682   2.918
    1STR    C0W 8644   4.985   2.728   2.798
    1STR    C0X 8645   5.027   2.724   3.048
    1STR    N0Y 8646   4.913   2.790   3.093
    1STR   BCK2 8647   4.784   2.774   3.073
    1STR    O10 8648   4.709   2.817   3.158
    1STR    C13 8649   5.113   2.689   3.152
    1STR    C14 8650   5.165   2.027   2.849
    1STR    C15 8651   5.155   1.900   2.909
    1STR    C16 8652   5.070   1.882   3.019
    1STR    C17 8653   5.016   1.749   3.057
    1STR    H1B 8654   4.900   1.978   3.260
    1STR    H1C 8655   5.039   2.202   3.099
    1STR    H1D 8656   4.999   2.300   2.931
    1STR    H1E 8657   4.865   2.459   2.846
    1STR    H1F 8658   4.617   2.312   2.741
    1STR    H1G 8659   4.607   2.470   2.814
    1STR    H1H 8660   4.698   2.450   2.663
    1STR    H1I 8661   4.693   2.242   2.969
    1STR    H1J 8662   4.686   2.406   3.019
    1STR    H1K 8663   4.742   2.337   3.236
    1STR    H1M 8664   5.052   2.318   3.256
    1STR    H1N 8665   4.945   2.187   3.286
    1STR    H1O 8666   4.945   2.330   3.388
    1STR    H1P 8667   4.981   2.500   3.174
    1STR    H1Q 8668   4.848   2.531   3.091
    1STR    H1R 8669   4.827   2.690   3.440
    1STR    H1S 8670   4.751   2.528   3.595
    1STR    H1T 8671   4.766   2.397   3.478
    1STR    H1U 8672   4.650   2.527   3.450
    1STR    H1V 8673   5.009   2.515   3.556
    1STR    H1W 8674   5.041   2.666   3.473
    1STR    H1X 8675   5.371   2.521   3.250
    1STR    H1Y 8676   5.329   2.483   2.995
    1STR    H1Z 8677   5.199   2.565   2.800
    1STR    H20 8678   5.054   2.757   2.720
    1STR    H21 8679   4.920   2.650   2.760
    1STR    H22 8680   4.925   2.814   2.827
    1STR    H23 8681   4.923   2.835   3.183
    1STR    H27 8682   5.086   2.717   3.250
    1STR    H28 8683   5.201   2.036   2.748
    1STR    H29 8684   5.196   1.817   2.857
    1STR    H2A 8685   4.959   1.756   3.148
    1STR    H2B 8686   5.098   1.682   3.071
    1STR    H2C 8687   4.950   1.716   2.978
    1STR   BCK1 8688   4.874   2.040   4.830
    1STR    O03 8689   4.990   2.072   4.847
    1STR    N04 8690   4.797   2.042   4.940
    1STR    C05 8691   4.662   2.039   4.974
    1STR    C06 8692   4.566   2.026   4.876
    1STR    C07 8693   4.433   2.058   4.899
    1STR    N08 8694   4.360   2.088   4.786
    1STR    C09 8695   4.396   2.204   4.735
    1STR    O0A 8696   4.381   2.226   4.616
    1STR    O0B 8697   4.441   2.285   4.834
    1STR    C0C 8698   4.557   2.362   4.838
    1STR    C0D 8699   4.593   2.384   4.985
    1STR    C0E 8700   4.678   2.310   4.761
    1STR    O0F 8701   4.650   2.288   4.625
    1STR    C0G 8702   4.757   2.313   4.536
    1STR    C0H 8703   4.710   2.246   4.415
    1STR    C0I 8704   4.786   2.452   4.490
    1STR    O0J 8705   4.792   2.537   4.596
    1STR    C0K 8706   4.662   2.572   4.636
    1STR    C0M 8707   4.685   2.617   4.774
    1STR    C0N 8708   4.607   2.677   4.549
    1STR    O0O 8709   4.517   2.630   4.445
    1STR    C0P 8710   4.445   2.513   4.433
    1STR    O0Q 8711   4.457   2.444   4.332
    1STR    N0R 8712   4.357   2.471   4.526
    1STR    C0S 8713   4.316   2.512   4.653
    1STR    C0T 8714   4.236   2.440   4.744
    1STR    C0U 8715   4.237   2.475   4.882
    1STR    C0V 8716   4.300   2.594   4.924
    1STR    C0W 8717   4.320   2.632   5.068
    1STR    C0X 8718   4.348   2.678   4.826
    1STR    N0Y 8719   4.370   2.812   4.840
    1STR   BCK2 8720   4.317   2.894   4.750
    1STR    O10 8721   4.389   2.967   4.686
    1STR    C13 8722   4.363   2.630   4.698
    1STR    C14 8723   4.389   2.094   5.027
    1STR    C15 8724   4.481   2.097   5.131
    1STR    C16 8725   4.618   2.073   5.104
    1STR    C17 8726   4.713   2.107   5.214
    1STR    H1B 8727   4.860   2.050   5.017
    1STR    H1C 8728   4.593   2.020   4.776
    1STR    H1D 8729   4.333   2.020   4.714
    1STR    H1E 8730   4.516   2.455   4.806
    1STR    H1F 8731   4.656   2.304   5.020
    1STR    H1G 8732   4.649   2.475   5.002
    1STR    H1H 8733   4.503   2.391   5.045
    1STR    H1I 8734   4.706   2.219   4.804
    1STR    H1J 8735   4.770   2.368   4.773
    1STR    H1K 8736   4.852   2.276   4.572
    1STR    H1M 8737   4.602   2.250   4.400
    1STR    H1N 8738   4.744   2.146   4.425
    1STR    H1O 8739   4.756   2.292   4.328
    1STR    H1P 8740   4.884   2.449   4.443
    1STR    H1Q 8741   4.713   2.483   4.417
    1STR    H1R 8742   4.589   2.495   4.628
    1STR    H1S 8743   4.606   2.670   4.824
    1STR    H1T 8744   4.762   2.679   4.746
    1STR    H1U 8745   4.740   2.553   4.841
    1STR    H1V 8746   4.698   2.720   4.516
    1STR    H1W 8747   4.572   2.764   4.605
    1STR    H1X 8748   4.340   2.371   4.510
    1STR    H1Y 8749   4.191   2.348   4.714
    1STR    H1Z 8750   4.197   2.407   4.954
    1STR    H20 8751   4.428   2.641   5.084
    1STR    H21 8752   4.273   2.728   5.086
    1STR    H22 8753   4.280   2.555   5.134
    1STR    H23 8754   4.452   2.840   4.897
    1STR    H27 8755   4.393   2.697   4.624
    1STR    H28 8756   4.287   2.128   5.040
    1STR    H29 8757   4.450   2.129   5.229
    1STR    H2A 8758   4.706   2.027   5.289
    1STR    H2B 8759   4.682   2.200   5.260
    1STR    H2C 8760   4.815   2.121   5.179
    1STR   BCK1 8761   4.696   3.711   0.071
    1STR    O03 8762   4.792   3.732   6.337
    1STR    N04 8763   4.709   3.651   0.189
    1STR    C05 8764   4.831   3.599   0.224
    1STR    C06 8765   4.922   3.655   0.316
    1STR    C07 8766   5.057   3.616   0.309
    1STR    N08 8767   5.168   3.687   0.349
    1STR    C09 8768   5.168   3.819   0.347
    1STR    O0A 8769   5.137   3.891   0.441
    1STR    O0B 8770   5.202   3.855   0.223
    1STR    C0C 8771   5.121   3.945   0.148
    1STR    C0D 8772   5.166   3.938   0.005
    1STR    C0E 8773   4.979   3.897   0.142
    1STR    O0F 8774   4.930   3.917   0.272
    1STR    C0G 8775   4.794   3.940   0.287
    1STR    C0H 8776   4.742   3.909   0.427
    1STR    C0I 8777   4.794   4.083   0.259
    1STR    O0J 8778   4.781   4.102   0.120
    1STR    C0K 8779   4.661   4.066   0.054
    1STR    C0M 8780   4.687   4.016   6.253
    1STR    C0N 8781   4.524   4.043   0.121
    1STR    O0O 8782   4.514   4.064   0.260
    1STR    C0P 8783   4.457   4.171   0.315
    1STR    O0Q 8784   4.368   4.160   0.398
    1STR    N0R 8785   4.502   4.293   0.287
    1STR    C0S 8786   4.604   4.346   0.209
    1STR    C0T 8787   4.735   4.354   0.251
    1STR    C0U 8788   4.841   4.379   0.168
    1STR    C0V 8789   4.815   4.391   0.034
    1STR    C0W 8790   4.932   4.404   6.289
    1STR    C0X 8791   4.684   4.383   6.327
    1STR    N0Y 8792   4.663   4.343   6.197
    1STR   BCK2 8793   4.560   4.273   6.154
    1STR    O10 8794   4.465   4.234   6.220
    1STR    C13 8795   4.579   4.382   0.080
    1STR    C14 8796   5.082   3.494   0.253
    1STR    C15 8797   4.986   3.420   0.188
    1STR    C16 8798   4.874   3.490   0.150
    1STR    C17 8799   4.807   3.447   0.027
    1STR    H1B 8800   4.628   3.615   0.238
    1STR    H1C 8801   4.898   3.734   0.382
    1STR    H1D 8802   5.232   3.668   0.273
    1STR    H1E 8803   5.127   4.045   0.189
    1STR    H1F 8804   5.135   3.848   6.300
    1STR    H1G 8805   5.120   4.015   6.284
    1STR    H1H 8806   5.274   3.939   0.003
    1STR    H1I 8807   4.980   3.792   0.115
    1STR    H1J 8808   4.925   3.947   0.061
    1STR    H1K 8809   4.731   3.891   0.216
    1STR    H1M 8810   4.818   3.934   0.500
    1STR    H1N 8811   4.716   3.803   0.435
    1STR    H1O 8812   4.650   3.962   0.448
    1STR    H1P 8813   4.716   4.125   0.319
    1STR    H1Q 8814   4.886   4.130   0.292
    1STR    H1R 8815   4.640   4.163   0.026
    1STR    H1S 8816   4.598   4.022   6.192
    1STR    H1T 8817   4.718   3.915   6.247
    1STR    H1U 8818   4.767   4.074   6.206
    1STR    H1V 8819   4.495   3.941   0.108
    1STR    H1W 8820   4.446   4.101   0.073
    1STR    H1X 8821   4.458   4.362   0.347
    1STR    H1Y 8822   4.766   4.314   0.340
    1STR    H1Z 8823   4.941   4.366   0.205
    1STR    H20 8824   4.975   4.310   6.257
    1STR    H21 8825   4.909   4.469   6.210
    1STR    H22 8826   4.995   4.466   0.010
    1STR    H23 8827   4.740   4.357   6.134
    1STR    H27 8828   4.478   4.374   0.053
    1STR    H28 8829   5.180   3.452   0.262
    1STR    H29 8830   5.008   3.322   0.151
    1STR    H2A 8831   4.710   3.411   0.056
    1STR    H2B 8832   4.875   3.378   6.325
    1STR    H2C 8833   4.799   3.516   6.284
    1STR   BCK1 8834   4.802   3.537   1.572
    1STR    O03 8835   4.863   3.476   1.658
    1STR    N04 8836   4.813   3.500   1.445
    1STR    C05 8837   4.856   3.585   1.346
    1STR    C06 8838   4.913   3.706   1.383
    1STR    C07 8839   4.897   3.812   1.295
    1STR    N08 8840   4.824   3.912   1.354
    1STR    C09 8841   4.694   3.913   1.328
    1STR    O0A 8842   4.645   3.934   1.218
    1STR    O0B 8843   4.626   3.868   1.430
    1STR    C0C 8844   4.621   3.934   1.554
    1STR    C0D 8845   4.473   3.973   1.572
    1STR    C0E 8846   4.673   3.874   1.683
    1STR    O0F 8847   4.796   3.812   1.656
    1STR    C0G 8848   4.901   3.839   1.746
    1STR    C0H 8849   4.947   3.714   1.813
    1STR    C0I 8850   5.016   3.892   1.664
    1STR    O0J 8851   4.947   3.971   1.571
    1STR    C0K 8852   4.965   4.107   1.586
    1STR    C0M 8853   4.921   4.157   1.723
    1STR    C0N 8854   5.106   4.138   1.536
    1STR    O0O 8855   5.142   4.041   1.437
    1STR    C0P 8856   5.135   4.076   1.310
    1STR    O0Q 8857   5.233   4.122   1.251
    1STR    N0R 8858   5.010   4.073   1.263
    1STR    C0S 8859   4.940   4.175   1.201
    1STR    C0T 8860   5.021   4.264   1.131
    1STR    C0U 8861   5.063   4.377   1.203
    1STR    C0V 8862   5.004   4.406   1.327
    1STR    C0W 8863   5.080   4.501   1.417
    1STR    C0X 8864   4.885   4.340   1.366
    1STR    N0Y 8865   4.832   4.376   1.489
    1STR   BCK2 8866   4.723   4.353   1.563
    1STR    O10 8867   4.710   4.393   1.676
    1STR    C13 8868   4.846   4.228   1.291
    1STR    C14 8869   4.888   3.791   1.157
    1STR    C15 8870   4.853   3.664   1.113
    1STR    C16 8871   4.823   3.567   1.210
    1STR    C17 8872   4.749   3.449   1.165
    1STR    H1B 8873   4.736   3.435   1.426
    1STR    H1C 8874   4.929   3.723   1.487
    1STR    H1D 8875   4.846   3.915   1.455
    1STR    H1E 8876   4.695   4.011   1.542
    1STR    H1F 8877   4.410   3.888   1.597
    1STR    H1G 8878   4.462   4.045   1.653
    1STR    H1H 8879   4.435   4.014   1.479
    1STR    H1I 8880   4.602   3.806   1.727
    1STR    H1J 8881   4.682   3.956   1.754
    1STR    H1K 8882   4.872   3.910   1.823
    1STR    H1M 8883   4.999   3.651   1.741
    1STR    H1N 8884   4.862   3.660   1.852
    1STR    H1O 8885   5.016   3.737   1.893
    1STR    H1P 8886   5.090   3.944   1.724
    1STR    H1Q 8887   5.069   3.816   1.607
    1STR    H1R 8888   4.893   4.142   1.516
    1STR    H1S 8889   4.915   4.265   1.722
    1STR    H1T 8890   4.988   4.128   1.803
    1STR    H1U 8891   4.820   4.124   1.746
    1STR    H1V 8892   5.177   4.134   1.618
    1STR    H1W 8893   5.111   4.239   1.496
    1STR    H1X 8894   4.946   4.005   1.309
    1STR    H1Y 8895   5.084   4.227   1.052
    1STR    H1Z 8896   5.147   4.433   1.167
    1STR    H20 8897   5.065   4.604   1.387
    1STR    H21 8898   5.057   4.489   1.521
    1STR    H22 8899   5.186   4.480   1.407
    1STR    H23 8900   4.888   4.448   1.529
    1STR    H27 8901   4.770   4.163   1.331
    1STR    H28 8902   4.882   3.875   1.089
    1STR    H29 8903   4.832   3.648   1.009
    1STR    H2A 8904   4.754   3.376   1.243
    1STR    H2B 8905   4.801   3.408   1.081
    1STR    H2C 8906   4.648   3.475   1.139
    1STR   BCK1 8907   4.878   3.621   3.140
    1STR    O03 8908   4.977   3.659   3.201
    1STR    N04 8909   4.763   3.578   3.194
    1STR    C05 8910   4.706   3.600   3.320
    1STR    C06 8911   4.773   3.673   3.417
    1STR    C07 8912   4.705   3.722   3.529
    1STR    N08 8913   4.778   3.799   3.614
    1STR    C09 8914   4.783   3.922   3.567
    1STR    O0A 8915   4.691   4.002   3.579
    1STR    O0B 8916   4.890   3.933   3.490
    1STR    C0C 8917   4.892   4.020   3.379
    1STR    C0D 8918   5.034   4.070   3.377
    1STR    C0E 8919   4.851   3.956   3.245
    1STR    O0F 8920   4.735   3.876   3.261
    1STR    C0G 8921   4.627   3.905   3.178
    1STR    C0H 8922   4.520   3.800   3.185
    1STR    C0I 8923   4.566   4.027   3.238
    1STR    O0J 8924   4.576   4.122   3.139
    1STR    C0K 8925   4.488   4.113   3.029
    1STR    C0M 8926   4.587   4.126   2.913
    1STR    C0N 8927   4.374   4.012   3.004
    1STR    O0O 8928   4.295   3.983   3.120
    1STR    C0P 8929   4.202   4.068   3.162
    1STR    O0Q 8930   4.143   4.147   3.089
    1STR    N0R 8931   4.200   4.072   3.296
    1STR    C0S 8932   4.282   4.164   3.362
    1STR    C0T 8933   4.352   4.128   3.478
    1STR    C0U 8934   4.473   4.193   3.509
    1STR    C0V 8935   4.532   4.280   3.416
    1STR    C0W 8936   4.680   4.308   3.425
    1STR    C0X 8937   4.456   4.324   3.306
    1STR    N0Y 8938   4.514   4.381   3.195
    1STR   BCK2 8939   4.448   4.457   3.108
    1STR    O10 8940   4.341   4.509   3.130
    1STR    C13 8941   4.325   4.276   3.291
    1STR    C14 8942   4.567   3.698   3.547
    1STR    C15 8943   4.501   3.615   3.456
    1STR    C16 8944   4.571   3.564   3.344
    1STR    C17 8945   4.495   3.478   3.249
    1STR    H1B 8946   4.695   3.548   3.128
    1STR    H1C 8947   4.876   3.701   3.403
    1STR    H1D 8948   4.872   3.762   3.615
    1STR    H1E 8949   4.824   4.102   3.396
    1STR    H1F 8950   5.103   3.987   3.385
    1STR    H1G 8951   5.056   4.119   3.284
    1STR    H1H 8952   5.049   4.139   3.460
    1STR    H1I 8953   4.931   3.892   3.209
    1STR    H1J 8954   4.837   4.033   3.170
    1STR    H1K 8955   4.664   3.915   3.077
    1STR    H1M 8956   4.479   3.791   3.284
    1STR    H1N 8957   4.564   3.711   3.155
    1STR    H1O 8958   4.436   3.805   3.118
    1STR    H1P 8959   4.465   4.011   3.274
    1STR    H1Q 8960   4.620   4.057   3.327
    1STR    H1R 8961   4.426   4.197   3.049
    1STR    H1S 8962   4.538   4.156   2.821
    1STR    H1T 8963   4.642   4.034   2.896
    1STR    H1U 8964   4.661   4.203   2.937
    1STR    H1V 8965   4.414   3.923   2.958
    1STR    H1W 8966   4.309   4.055   2.928
    1STR    H1X 8967   4.205   3.979   3.334
    1STR    H1Y 8968   4.324   4.042   3.537
    1STR    H1Z 8969   4.529   4.161   3.595
    1STR    H20 8970   4.728   4.285   3.330
    1STR    H21 8971   4.700   4.410   3.451
    1STR    H22 8972   4.725   4.250   3.504
    1STR    H23 8973   4.597   4.335   3.161
    1STR    H27 8974   4.268   4.307   3.205
    1STR    H28 8975   4.516   3.740   3.632
    1STR    H29 8976   4.396   3.590   3.469
    1STR    H2A 8977   4.402   3.525   3.218
    1STR    H2B 8978   4.478   3.385   3.301
    1STR    H2C 8979   4.552   3.448   3.164
    1STR   BCK1 8980   4.800   3.699   4.728
    1STR    O03 8981   4.774   3.739   4.615
    1STR    N04 8982   4.911   3.639   4.753
    1STR    C05 8983   5.017   3.620   4.668
    1STR    C06 8984   5.146   3.664   4.698
    1STR    C07 8985   5.246   3.662   4.602
    1STR    N08 8986   5.352   3.748   4.623
    1STR    C09 8987   5.354   3.866   4.559
    1STR    O0A 8988   5.423   3.959   4.597
    1STR    O0B 8989   5.266   3.873   4.457
    1STR    C0C 8990   5.162   3.968   4.460
    1STR    C0D 8991   5.090   3.959   4.326
    1STR    C0E 8992   5.061   3.938   4.568
    1STR    O0F 8993   5.123   3.960   4.694
    1STR    C0G 8994   5.039   3.930   4.803
    1STR    C0H 8995   5.110   3.933   4.939
    1STR    C0I 8996   4.912   4.002   4.795
    1STR    O0J 8997   4.804   3.948   4.730
    1STR    C0K 8998   4.679   4.011   4.734
    1STR    C0M 8999   4.595   3.973   4.613
    1STR    C0N 9000   4.608   4.029   4.869
    1STR    O0O 9001   4.692   3.991   4.974
    1STR    C0P 9002   4.728   4.070   5.070
    1STR    O0Q 9003   4.697   4.040   5.184
    1STR    N0R 9004   4.805   4.178   5.042
    1STR    C0S 9005   4.854   4.241   4.926
    1STR    C0T 9006   4.993   4.253   4.912
    1STR    C0U 9007   5.049   4.287   4.788
    1STR    C0V 9008   4.966   4.308   4.677
    1STR    C0W 9009   5.021   4.286   4.539
    1STR    C0X 9010   4.827   4.314   4.693
    1STR    N0Y 9011   4.752   4.302   4.576
    1STR   BCK2 9012   4.625   4.270   4.558
    1STR    O10 9013   4.545   4.256   4.648
    1STR    C13 9014   4.772   4.290   4.822
    1STR    C14 9015   5.219   3.606   4.477
    1STR    C15 9016   5.092   3.555   4.450
    1STR    C16 9017   4.992   3.560   4.546
    1STR    C17 9018   4.861   3.498   4.522
    1STR    H1B 9019   4.919   3.599   4.846
    1STR    H1C 9020   5.166   3.713   4.791
    1STR    H1D 9021   5.399   3.750   4.711
    1STR    H1E 9022   5.204   4.067   4.477
    1STR    H1F 9023   5.054   3.857   4.311
    1STR    H1G 9024   5.004   4.025   4.322
    1STR    H1H 9025   5.159   3.984   4.246
    1STR    H1I 9026   5.021   3.838   4.558
    1STR    H1J 9027   4.972   3.998   4.553
    1STR    H1K 9028   5.001   3.834   4.801
    1STR    H1M 9029   5.190   4.006   4.939
    1STR    H1N 9030   5.149   3.835   4.963
    1STR    H1O 9031   5.041   3.955   5.021
    1STR    H1P 9032   4.892   4.015   4.896
    1STR    H1Q 9033   4.930   4.088   4.738
    1STR    H1R 9034   4.714   4.103   4.704
    1STR    H1S 9035   4.497   4.018   4.618
    1STR    H1T 9036   4.583   3.868   4.596
    1STR    H1U 9037   4.649   4.004   4.524
    1STR    H1V 9038   4.524   3.964   4.883
    1STR    H1W 9039   4.566   4.128   4.883
    1STR    H1X 9040   4.833   4.218   5.132
    1STR    H1Y 9041   5.058   4.230   4.995
    1STR    H1Z 9042   5.157   4.286   4.777
    1STR    H20 9043   4.978   4.197   4.496
    1STR    H21 9044   4.989   4.368   4.478
    1STR    H22 9045   5.129   4.276   4.540
    1STR    H23 9046   4.802   4.313   4.489
    1STR    H27 9047   4.667   4.298   4.838
    1STR    H28 9048   5.293   3.611   4.399
    1STR    H29 9049   5.069   3.518   4.354
    1STR    H2A 9050   4.779   3.515   4.587
    1STR    H2B 9051   4.881   3.398   4.555
    1STR    H2C 9052   4.826   3.517   4.421
    1STR   BCK1 9053   4.833   5.249   5.882
    1STR    O03 9054   4.925   5.268   5.804
    1STR    N04 9055   4.720   5.317   5.863
    1STR    C05 9056   4.603   5.318   5.936
    1STR    C06 9057   4.610   5.351   6.071
    1STR    C07 9058   4.498   5.344   6.157
    1STR    N08 9059   4.520   5.367   6.292
    1STR    C09 9060   4.432   5.374   0.051
    1STR    O0A 9061   4.314   5.345   0.042
    1STR    O0B 9062   4.484   5.417   0.165
    1STR    C0C 9063   4.582   5.520   0.168
    1STR    C0D 9064   4.546   5.601   0.290
    1STR    C0E 9065   4.720   5.460   0.189
    1STR    O0F 9066   4.769   5.398   0.071
    1STR    C0G 9067   4.871   5.474   0.010
    1STR    C0H 9068   4.984   5.380   6.311
    1STR    C0I 9069   4.807   5.536   6.229
    1STR    O0J 9070   4.782   5.670   6.243
    1STR    C0K 9071   4.821   5.740   6.129
    1STR    C0M 9072   4.962   5.778   6.154
    1STR    C0N 9073   4.786   5.691   5.988
    1STR    O0O 9074   4.654   5.649   6.007
    1STR    C0P 9075   4.575   5.605   5.911
    1STR    O0Q 9076   4.613   5.578   5.797
    1STR    N0R 9077   4.449   5.581   5.957
    1STR    C0S 9078   4.400   5.639   6.075
    1STR    C0T 9079   4.324   5.585   6.180
    1STR    C0U 9080   4.314   5.654   6.302
    1STR    C0V 9081   4.376   5.779   6.317
    1STR    C0W 9082   4.366   5.852   0.106
    1STR    C0X 9083   4.440   5.837   6.208
    1STR    N0Y 9084   4.497   5.962   6.211
    1STR   BCK2 9085   4.592   6.008   6.130
    1STR    O10 9086   4.697   6.022   6.189
    1STR    C13 9087   4.438   5.769   6.090
    1STR    C14 9088   4.377   5.295   6.102
    1STR    C15 9089   4.363   5.282   5.964
    1STR    C16 9090   4.475   5.299   5.881
    1STR    C17 9091   4.454   5.311   5.735
    1STR    H1B 9092   4.722   5.383   5.787
    1STR    H1C 9093   4.709   5.363   6.105
    1STR    H1D 9094   4.614   5.389   6.325
    1STR    H1E 9095   4.580   5.584   0.079
    1STR    H1F 9096   4.550   5.538   0.378
    1STR    H1G 9097   4.616   5.684   0.302
    1STR    H1H 9098   4.446   5.640   0.280
    1STR    H1I 9099   4.709   5.387   0.268
    1STR    H1J 9100   4.788   5.534   0.230
    1STR    H1K 9101   4.913   5.554   0.071
    1STR    H1M 9102   4.955   5.310   6.234
    1STR    H1N 9103   5.017   5.325   0.059
    1STR    H1O 9104   5.067   5.437   6.271
    1STR    H1P 9105   4.859   5.506   6.138
    1STR    H1Q 9106   4.702   5.513   6.224
    1STR    H1R 9107   4.760   5.824   6.142
    1STR    H1S 9108   4.990   5.862   6.092
    1STR    H1T 9109   5.031   5.694   6.145
    1STR    H1U 9110   4.955   5.808   6.257
    1STR    H1V 9111   4.847   5.610   5.952
    1STR    H1W 9112   4.793   5.774   5.918
    1STR    H1X 9113   4.400   5.505   5.914
    1STR    H1Y 9114   4.275   5.491   6.175
    1STR    H1Z 9115   4.263   5.609   0.045
    1STR    H20 9116   4.466   5.869   0.144
    1STR    H21 9117   4.314   5.946   0.085
    1STR    H22 9118   4.308   5.798   0.180
    1STR    H23 9119   4.507   5.998   6.306
    1STR    H27 9120   4.475   5.805   6.000
    1STR    H28 9121   4.290   5.277   6.163
    1STR    H29 9122   4.265   5.262   5.923
    1STR    H2A 9123   4.548   5.303   5.683
    1STR    H2B 9124   4.415   5.409   5.711
    1STR    H2C 9125   4.382   5.235   5.707
    1STR   BCK1 9126   4.744   5.321   1.467
    1STR    O03 9127   4.857   5.365   1.457
    1STR    N04 9128   4.698   5.238   1.562
    1STR    C05 9129   4.756   5.199   1.680
    1STR    C06 9130   4.895   5.188   1.695
    1STR    C07 9131   4.955   5.199   1.822
    1STR    N08 9132   5.089   5.226   1.825
    1STR    C09 9133   5.122   5.351   1.858
    1STR    O0A 9134   5.100   5.404   1.966
    1STR    O0B 9135   5.159   5.414   1.747
    1STR    C0C 9136   5.096   5.537   1.715
    1STR    C0D 9137   5.149   5.580   1.579
    1STR    C0E 9138   4.945   5.518   1.703
    1STR    O0F 9139   4.880   5.551   1.825
    1STR    C0G 9140   4.747   5.507   1.824
    1STR    C0H 9141   4.688   5.490   1.964
    1STR    C0I 9142   4.659   5.588   1.736
    1STR    O0J 9143   4.562   5.514   1.669
    1STR    C0K 9144   4.446   5.592   1.648
    1STR    C0M 9145   4.399   5.547   1.511
    1STR    C0N 9146   4.347   5.562   1.762
    1STR    O0O 9147   4.389   5.614   1.888
    1STR    C0P 9148   4.362   5.741   1.919
    1STR    O0Q 9149   4.277   5.810   1.863
    1STR    N0R 9150   4.456   5.790   2.001
    1STR    C0S 9151   4.572   5.842   1.946
    1STR    C0T 9152   4.697   5.825   2.009
    1STR    C0U 9153   4.816   5.841   1.936
    1STR    C0V 9154   4.811   5.865   1.798
    1STR    C0W 9155   4.937   5.853   1.718
    1STR    C0X 9156   4.688   5.887   1.735
    1STR    N0Y 9157   4.673   5.873   1.598
    1STR   BCK2 9158   4.571   5.925   1.531
    1STR    O10 9159   4.504   6.014   1.579
    1STR    C13 9160   4.571   5.884   1.813
    1STR    C14 9161   4.874   5.210   1.936
    1STR    C15 9162   4.734   5.208   1.923
    1STR    C16 9163   4.674   5.200   1.795
    1STR    C17 9164   4.524   5.201   1.782
    1STR    H1B 9165   4.601   5.208   1.554
    1STR    H1C 9166   4.955   5.196   1.607
    1STR    H1D 9167   5.135   5.189   1.744
    1STR    H1E 9168   5.116   5.610   1.793
    1STR    H1F 9169   5.132   5.500   1.506
    1STR    H1G 9170   5.097   5.669   1.543
    1STR    H1H 9171   5.255   5.601   1.586
    1STR    H1I 9172   4.927   5.418   1.673
    1STR    H1J 9173   4.903   5.573   1.619
    1STR    H1K 9174   4.746   5.416   1.772
    1STR    H1M 9175   4.756   5.436   2.028
    1STR    H1N 9176   4.592   5.437   1.957
    1STR    H1O 9177   4.668   5.584   2.013
    1STR    H1P 9178   4.612   5.653   1.805
    1STR    H1Q 9179   4.715   5.645   1.664
    1STR    H1R 9180   4.467   5.699   1.642
    1STR    H1S 9181   4.307   5.596   1.482
    1STR    H1T 9182   4.388   5.439   1.508
    1STR    H1U 9183   4.475   5.573   1.438
    1STR    H1V 9184   4.338   5.454   1.772
    1STR    H1W 9185   4.249   5.601   1.735
    1STR    H1X 9186   4.473   5.731   2.081
    1STR    H1Y 9187   4.704   5.795   2.113
    1STR    H1Z 9188   4.911   5.823   1.983
    1STR    H20 9189   4.932   5.897   1.619
    1STR    H21 9190   5.019   5.891   1.778
    1STR    H22 9191   4.958   5.752   1.702
    1STR    H23 9192   4.728   5.803   1.551
    1STR    H27 9193   4.476   5.890   1.763
    1STR    H28 9194   4.920   5.224   2.033
    1STR    H29 9195   4.673   5.216   2.011
    1STR    H2A 9196   4.492   5.281   1.716
    1STR    H2B 9197   4.476   5.211   1.878
    1STR    H2C 9198   4.496   5.106   1.739
    1STR   BCK1 9199   4.719   5.099   3.102
    1STR    O03 9200   4.782   5.107   3.205
    1STR    N04 9201   4.773   5.044   2.995
    1STR    C05 9202   4.880   5.109   2.941
    1STR    C06 9203   4.855   5.211   2.853
    1STR    C07 9204   4.952   5.308   2.825
    1STR    N08 9205   4.904   5.434   2.802
    1STR    C09 9206   4.802   5.442   2.718
    1STR    O0A 9207   4.817   5.431   2.597
    1STR    O0B 9208   4.680   5.436   2.779
    1STR    C0C 9209   4.646   5.487   2.908
    1STR    C0D 9210   4.498   5.508   2.897
    1STR    C0E 9211   4.665   5.414   3.042
    1STR    O0F 9212   4.793   5.362   3.057
    1STR    C0G 9213   4.866   5.416   3.161
    1STR    C0H 9214   4.995   5.344   3.188
    1STR    C0I 9215   4.896   5.553   3.112
    1STR    O0J 9216   4.806   5.642   3.172
    1STR    C0K 9217   4.808   5.663   3.311
    1STR    C0M 9218   4.682   5.601   3.372
    1STR    C0N 9219   4.943   5.653   3.393
    1STR    O0O 9220   5.053   5.639   3.309
    1STR    C0P 9221   5.165   5.708   3.319
    1STR    O0Q 9222   5.229   5.724   3.422
    1STR    N0R 9223   5.206   5.752   3.200
    1STR    C0S 9224   5.125   5.777   3.090
    1STR    C0T 9225   5.168   5.758   2.958
    1STR    C0U 9226   5.087   5.803   2.851
    1STR    C0V 9227   4.962   5.864   2.874
    1STR    C0W 9228   4.903   5.948   2.764
    1STR    C0X 9229   4.911   5.867   3.006
    1STR    N0Y 9230   4.789   5.915   3.050
    1STR   BCK2 9231   4.668   5.867   3.025
    1STR    O10 9232   4.582   5.877   3.110
    1STR    C13 9233   4.996   5.830   3.109
    1STR    C14 9234   5.085   5.284   2.862
    1STR    C15 9235   5.116   5.165   2.930
    1STR    C16 9236   5.012   5.080   2.969
    1STR    C17 9237   5.039   4.949   3.024
    1STR    H1B 9238   4.705   5.001   2.932
    1STR    H1C 9239   4.753   5.227   2.831
    1STR    H1D 9240   4.877   5.463   2.895
    1STR    H1E 9241   4.702   5.578   2.917
    1STR    H1F 9242   4.436   5.420   2.897
    1STR    H1G 9243   4.465   5.566   2.983
    1STR    H1H 9244   4.480   5.555   2.800
    1STR    H1I 9245   4.595   5.334   3.057
    1STR    H1J 9246   4.638   5.482   3.122
    1STR    H1K 9247   4.808   5.411   3.252
    1STR    H1M 9248   5.065   5.355   3.106
    1STR    H1N 9249   4.975   5.239   3.202
    1STR    H1O 9250   5.043   5.383   3.278
    1STR    H1P 9251   5.001   5.571   3.114
    1STR    H1Q 9252   4.884   5.569   3.007
    1STR    H1R 9253   4.779   5.765   3.296
    1STR    H1S 9254   4.640   5.662   3.452
    1STR    H1T 9255   4.700   5.501   3.411
    1STR    H1U 9256   4.603   5.598   3.298
    1STR    H1V 9257   4.943   5.567   3.460
    1STR    H1W 9258   4.963   5.741   3.455
    1STR    H1X 9259   5.301   5.785   3.201
    1STR    H1Y 9260   5.265   5.715   2.940
    1STR    H1Z 9261   5.126   5.798   2.751
    1STR    H20 9262   4.944   5.920   2.667
    1STR    H21 9263   4.796   5.944   2.755
    1STR    H22 9264   4.927   6.052   2.786
    1STR    H23 9265   4.790   5.962   3.140
    1STR    H27 9266   4.957   5.840   3.208
    1STR    H28 9267   5.161   5.358   2.844
    1STR    H29 9268   5.217   5.140   2.958
    1STR    H2A 9269   5.034   4.962   3.129
    1STR    H2B 9270   5.134   4.917   2.982
    1STR    H2C 9271   4.962   4.879   2.993
    1STR   BCK1 9272   4.752   5.167   4.775
    1STR    O03 9273   4.871   5.190   4.780
    1STR    N04 9274   4.682   5.147   4.886
    1STR    C05 9275   4.553   5.190   4.911
    1STR    C06 9276   4.484   5.262   4.815
    1STR    C07 9277   4.380   5.344   4.854
    1STR    N08 9278   4.396   5.473   4.813
    1STR    C09 9279   4.509   5.541   4.838
    1STR    O0A 9280   4.519   5.655   4.804
    1STR    O0B 9281   4.608   5.476   4.901
    1STR    C0C 9282   4.742   5.523   4.894
    1STR    C0D 9283   4.804   5.471   5.022
    1STR    C0E 9284   4.821   5.473   4.770
    1STR    O0F 9285   4.728   5.415   4.681
    1STR    C0G 9286   4.747   5.404   4.540
    1STR    C0H 9287   4.601   5.389   4.498
    1STR    C0I 9288   4.813   5.514   4.457
    1STR    O0J 9289   4.818   5.641   4.512
    1STR    C0K 9290   4.702   5.682   4.577
    1STR    C0M 9291   4.765   5.782   4.669
    1STR    C0N 9292   4.583   5.730   4.498
    1STR    O0O 9293   4.489   5.642   4.436
    1STR    C0P 9294   4.359   5.599   4.467
    1STR    O0Q 9295   4.311   5.510   4.398
    1STR    N0R 9296   4.275   5.642   4.565
    1STR    C0S 9297   4.275   5.740   4.663
    1STR    C0T 9298   4.228   5.719   4.794
    1STR    C0U 9299   4.286   5.796   4.897
    1STR    C0V 9300   4.392   5.883   4.868
    1STR    C0W 9301   4.495   5.897   4.977
    1STR    C0X 9302   4.417   5.921   4.733
    1STR    N0Y 9303   4.531   5.990   4.695
    1STR   BCK2 9304   4.583   6.034   4.579
    1STR    O10 9305   4.702   6.051   4.567
    1STR    C13 9306   4.341   5.856   4.635
    1STR    C14 9307   4.312   5.320   4.974
    1STR    C15 9308   4.370   5.232   5.067
    1STR    C16 9309   4.497   5.180   5.040
    1STR    C17 9310   4.577   5.124   5.151
    1STR    H1B 9311   4.740   5.115   4.961
    1STR    H1C 9312   4.533   5.286   4.723
    1STR    H1D 9313   4.331   5.521   4.752
    1STR    H1E 9314   4.742   5.632   4.895
    1STR    H1F 9315   4.803   5.363   5.020
    1STR    H1G 9316   4.907   5.506   5.032
    1STR    H1H 9317   4.745   5.505   5.107
    1STR    H1I 9318   4.901   5.407   4.799
    1STR    H1J 9319   4.879   5.549   4.722
    1STR    H1K 9320   4.807   5.317   4.518
    1STR    H1M 9321   4.530   5.429   4.569
    1STR    H1N 9322   4.576   5.287   4.484
    1STR    H1O 9323   4.578   5.436   4.404
    1STR    H1P 9324   4.916   5.485   4.435
    1STR    H1Q 9325   4.763   5.527   4.363
    1STR    H1R 9326   4.659   5.610   4.639
    1STR    H1S 9327   4.693   5.819   4.740
    1STR    H1T 9328   4.808   5.860   4.609
    1STR    H1U 9329   4.847   5.744   4.728
    1STR    H1V 9330   4.616   5.806   4.428
    1STR    H1W 9331   4.540   5.774   4.582
    1STR    H1X 9332   4.190   5.588   4.557
    1STR    H1Y 9333   4.169   5.634   4.820
    1STR    H1Z 9334   4.268   5.768   5.000
    1STR    H20 9335   4.573   5.964   4.948
    1STR    H21 9336   4.449   5.932   5.069
    1STR    H22 9337   4.545   5.803   4.996
    1STR    H23 9338   4.598   5.994   4.770
    1STR    H27 9339   4.364   5.863   4.531
    1STR    H28 9340   4.229   5.381   5.004
    1STR    H29 9341   4.325   5.217   5.163
    1STR    H2A 9342   4.639   5.048   5.105
    1STR    H2B 9343   4.513   5.080   5.227
    1STR    H2C 9344   4.639   5.202   5.194
    1STR   BCK1 9345   0.259   6.214   0.615
    1STR    O03 9346   0.237   6.150   0.717
    1STR    N04 9347   0.217   6.175   0.495
    1STR    C05 9348   0.149   6.056   0.483
    1STR    C06 9349   0.012   6.052   0.453
    1STR    C07 9350   6.278   5.937   0.479
    1STR    N08 9351   6.142   5.941   0.458
    1STR    C09 9352   6.052   5.939   0.555
    1STR    O0A 9353   5.932   5.925   0.533
    1STR    O0B 9354   6.098   5.948   0.677
    1STR    C0C 9355   6.178   6.054   0.729
    1STR    C0D 9356   6.305   5.996   0.782
    1STR    C0E 9357   6.212   6.191   0.667
    1STR    O0F 9358   6.114   6.245   0.579
    1STR    C0G 9359   6.106   0.047   0.588
    1STR    C0H 9360   6.004   0.122   0.504
    1STR    C0I 9361   6.050   0.068   0.722
    1STR    O0J 9362   6.153   0.125   0.799
    1STR    C0K 9363   6.131   0.253   0.853
    1STR    C0M 9364   6.198   0.347   0.758
    1STR    C0N 9365   5.982   0.283   0.890
    1STR    O0O 9366   5.911   0.163   0.927
    1STR    C0P 9367   5.977   0.091   1.011
    1STR    O0Q 9368   6.040   0.148   1.095
    1STR    N0R 9369   5.984   6.299   0.988
    1STR    C0S 9370   6.094   6.220   1.018
    1STR    C0T 9371   6.079   6.082   1.040
    1STR    C0U 9372   6.192   6.000   1.063
    1STR    C0V 9373   6.322   6.054   1.063
    1STR    C0W 9374   0.106   5.967   1.052
    1STR    C0X 9375   6.337   6.189   1.034
    1STR    N0Y 9376   0.126   6.229   1.010
    1STR   BCK2 9377   0.179   6.317   0.928
    1STR    O10 9378   0.117   0.056   0.858
    1STR    C13 9379   6.226   6.269   1.009
    1STR    C14 9380   6.338   5.824   0.537
    1STR    C15 9381   0.136   5.827   0.564
    1STR    C16 9382   0.213   5.940   0.530
    1STR    C17 9383   0.363   5.937   0.541
    1STR    H1B 9384   0.248   6.227   0.411
    1STR    H1C 9385   6.295   6.139   0.426
    1STR    H1D 9386   6.107   5.969   0.366
    1STR    H1E 9387   6.112   6.080   0.808
    1STR    H1F 9388   0.041   5.980   0.711
    1STR    H1G 9389   0.021   6.075   0.829
    1STR    H1H 9390   6.292   5.907   0.842
    1STR    H1I 9391   6.311   6.202   0.627
    1STR    H1J 9392   6.232   6.252   0.754
    1STR    H1K 9393   6.205   0.090   0.576
    1STR    H1M 9394   5.908   0.071   0.507
    1STR    H1N 9395   6.037   0.138   0.404
    1STR    H1O 9396   5.990   0.223   0.539
    1STR    H1P 9397   5.956   0.119   0.719
    1STR    H1Q 9398   6.019   6.312   0.761
    1STR    H1R 9399   6.194   0.254   0.943
    1STR    H1S 9400   6.201   0.447   0.800
    1STR    H1T 9401   6.146   0.346   0.663
    1STR    H1U 9402   6.301   0.313   0.744
    1STR    H1V 9403   5.929   0.327   0.805
    1STR    H1W 9404   5.980   0.355   0.972
    1STR    H1X 9405   5.912   6.260   0.930
    1STR    H1Y 9406   5.983   6.034   1.036
    1STR    H1Z 9407   6.175   5.895   1.073
    1STR    H20 9408   0.167   5.990   0.964
    1STR    H21 9409   0.171   5.984   1.138
    1STR    H22 9410   0.080   5.863   1.035
    1STR    H23 9411   0.194   6.180   1.067
    1STR    H27 9412   6.245   0.031   0.982
    1STR    H28 9413   6.279   5.738   0.561
    1STR    H29 9414   0.184   5.740   0.606
    1STR    H2A 9415   0.394   5.980   0.636
    1STR    H2B 9416   0.407   5.997   0.461
    1STR    H2C 9417   0.400   5.835   0.535
    1STR   BCK1 9418   0.062   6.089   2.053
    1STR    O03 9419   0.041   5.970   2.034
    1STR    N04 9420   0.186   6.130   2.020
    1STR    C05 9421   0.263   6.246   2.012
    1STR    C06 9422   0.219   0.033   2.051
    1STR    C07 9423   0.292   0.151   2.036
    1STR    N08 9424   0.226   0.265   2.073
    1STR    C09 9425   0.232   0.310   2.196
    1STR    O0A 9426   0.335   0.326   2.261
    1STR    O0B 9427   0.107   0.307   2.241
    1STR    C0C 9428   0.085   0.285   2.378
    1STR    C0D 9429   6.279   0.327   2.398
    1STR    C0E 9430   0.113   0.140   2.421
    1STR    O0F 9431   0.211   0.085   2.336
    1STR    C0G 9432   0.272   6.307   2.382
    1STR    C0H 9433   0.175   6.194   2.355
    1STR    C0I 9434   0.397   6.273   2.304
    1STR    O0J 9435   0.502   0.025   2.288
    1STR    C0K 9436   0.598   0.024   2.388
    1STR    C0M 9437   0.548   0.131   2.484
    1STR    C0N 9438   0.623   6.221   2.441
    1STR    O0O 9439   0.741   6.214   2.518
    1STR    C0P 9440   0.729   6.164   2.638
    1STR    O0Q 9441   0.680   6.054   2.665
    1STR    N0R 9442   0.743   6.265   2.723
    1STR    C0S 9443   0.632   6.335   2.765
    1STR    C0T 9444   0.649   0.130   2.802
    1STR    C0U 9445   0.537   0.212   2.816
    1STR    C0V 9446   0.409   0.160   2.793
    1STR    C0W 9447   0.290   0.245   2.816
    1STR    C0X 9448   0.390   0.026   2.760
    1STR    N0Y 9449   0.260   6.326   2.740
    1STR   BCK2 9450   0.203   6.224   2.679
    1STR    O10 9451   0.098   6.255   2.626
    1STR    C13 9452   0.502   6.284   2.748
    1STR    C14 9453   0.421   0.146   1.986
    1STR    C15 9454   0.474   0.019   1.953
    1STR    C16 9455   0.397   6.241   1.967
    1STR    C17 9456   0.462   6.108   1.952
    1STR    H1B 9457   0.231   6.051   1.975
    1STR    H1C 9458   0.125   0.042   2.093
    1STR    H1D 9459   0.133   0.273   2.035
    1STR    H1E 9460   0.154   0.349   2.433
    1STR    H1F 9461   6.213   0.273   2.331
    1STR    H1G 9462   6.244   0.309   2.499
    1STR    H1H 9463   6.270   0.433   2.377
    1STR    H1I 9464   0.022   0.079   2.421
    1STR    H1J 9465   0.150   0.139   2.523
    1STR    H1K 9466   0.300   6.321   2.484
    1STR    H1M 9467   0.166   6.196   2.250
    1STR    H1N 9468   0.076   6.203   2.398
    1STR    H1O 9469   0.213   6.094   2.373
    1STR    H1P 9470   0.422   6.168   2.308
    1STR    H1Q 9471   0.368   6.281   2.206
    1STR    H1R 9472   0.689   0.061   2.341
    1STR    H1S 9473   0.624   0.159   2.554
    1STR    H1T 9474   0.458   0.101   2.535
    1STR    H1U 9475   0.519   0.221   2.429
    1STR    H1V 9476   0.635   6.152   2.358
    1STR    H1W 9477   0.536   6.185   2.497
    1STR    H1X 9478   0.813   6.326   2.684
    1STR    H1Y 9479   0.746   0.173   2.815
    1STR    H1Z 9480   0.547   0.315   2.847
    1STR    H20 9481   0.244   0.259   2.719
    1STR    H21 9482   0.221   0.198   2.887
    1STR    H22 9483   0.318   0.342   2.858
    1STR    H23 9484   0.193   0.059   2.757
    1STR    H27 9485   0.490   6.182   2.720
    1STR    H28 9486   0.479   0.237   1.977
    1STR    H29 9487   0.577   0.014   1.922
    1STR    H2A 9488   0.399   6.041   1.896
    1STR    H2B 9489   0.476   6.065   2.051
    1STR    H2C 9490   0.558   6.118   1.903
    1STR   BCK1 9491   0.037   0.106   3.736
    1STR    O03 9492   0.003   6.328   3.750
    1STR    N04 9493   6.322   0.181   3.643
    1STR    C05 9494   6.200   0.178   3.582
    1STR    C06 9495   6.112   0.074   3.604
    1STR    C07 9496   5.975   0.100   3.593
    1STR    N08 9497   5.897   6.339   3.640
    1STR    C09 9498   5.786   0.019   3.707
    1STR    O0A 9499   5.693   0.090   3.674
    1STR    O0B 9500   5.797   6.292   3.819
    1STR    C0C 9501   5.920   6.287   3.891
    1STR    C0D 9502   6.004   6.158   3.874
    1STR    C0E 9503   6.010   0.073   3.895
    1STR    O0F 9504   5.940   0.194   3.879
    1STR    C0G 9505   6.023   0.300   3.837
    1STR    C0H 9506   5.934   0.405   3.774
    1STR    C0I 9507   6.102   0.363   3.945
    1STR    O0J 9508   6.242   0.334   3.941
    1STR    C0K 9509   6.328   0.416   4.021
    1STR    C0M 9510   0.115   0.430   3.940
    1STR    C0N 9511   6.276   0.552   4.070
    1STR    O0O 9512   6.153   0.530   4.137
    1STR    C0P 9513   6.138   0.554   4.262
    1STR    O0Q 9514   6.208   0.629   4.323
    1STR    N0R 9515   6.045   0.480   4.320
    1STR    C0S 9516   6.018   0.353   4.278
    1STR    C0T 9517   5.889   0.308   4.254
    1STR    C0U 9518   5.867   0.173   4.225
    1STR    C0V 9519   5.976   0.085   4.212
    1STR    C0W 9520   5.954   6.278   4.192
    1STR    C0X 9521   6.106   0.137   4.213
    1STR    N0Y 9522   6.212   0.066   4.161
    1STR   BCK2 9523   6.337   0.104   4.142
    1STR    O10 9524   0.067   0.161   4.226
    1STR    C13 9525   6.125   0.268   4.251
    1STR    C14 9526   5.927   0.214   3.527
    1STR    C15 9527   6.020   0.308   3.482
    1STR    C16 9528   6.155   0.291   3.514
    1STR    C17 9529   6.252   0.399   3.485
    1STR    H1B 9530   0.053   0.238   3.597
    1STR    H1C 9531   6.146   6.320   3.644
    1STR    H1D 9532   5.948   6.263   3.680
    1STR    H1E 9533   5.865   6.286   3.982
    1STR    H1F 9534   6.038   6.142   3.772
    1STR    H1G 9535   6.095   6.161   3.934
    1STR    H1H 9536   5.947   6.071   3.905
    1STR    H1I 9537   6.100   0.062   3.836
    1STR    H1J 9538   6.061   0.081   3.986
    1STR    H1K 9539   6.098   0.270   3.767
    1STR    H1M 9540   5.859   0.360   3.711
    1STR    H1N 9541   5.996   0.474   3.715
    1STR    H1O 9542   5.881   0.461   3.851
    1STR    H1P 9543   6.089   0.469   3.932
    1STR    H1Q 9544   6.053   0.334   4.035
    1STR    H1R 9545   0.017   0.361   4.109
    1STR    H1S 9546   0.163   0.333   3.937
    1STR    H1T 9547   0.184   0.500   3.986
    1STR    H1U 9548   0.092   0.461   3.839
    1STR    H1V 9549   6.256   0.618   3.986
    1STR    H1W 9550   0.010   0.600   4.133
    1STR    H1X 9551   6.024   0.496   4.418
    1STR    H1Y 9552   5.808   0.377   4.265
    1STR    H1Z 9553   5.766   0.137   4.216
    1STR    H20 9554   6.019   6.238   4.115
    1STR    H21 9555   5.985   6.218   4.272
    1STR    H22 9556   5.849   6.255   4.178
    1STR    H23 9557   6.191   6.322   4.109
    1STR    H27 9558   6.223   0.308   4.248
    1STR    H28 9559   5.822   0.228   3.510
    1STR    H29 9560   5.986   0.396   3.430
    1STR    H2A 9561   6.298   0.431   3.579
    1STR    H2B 9562   6.203   0.484   3.437
    1STR    H2C 9563   6.326   0.357   3.417
    1STR   BCK1 9564   0.120   6.270   5.211
    1STR    O03 9565   0.227   6.307   5.249
    1STR    N04 9566   0.094   6.141   5.183
    1STR    C05 9567   0.158   6.026   5.228
    1STR    C06 9568   0.278   6.035   5.297
    1STR    C07 9569   0.319   5.937   5.387
    1STR    N08 9570   0.400   5.982   5.488
    1STR    C09 9571   0.504   6.056   5.450
    1STR    O0A 9572   0.592   6.012   5.377
    1STR    O0B 9573   0.492   6.188   5.475
    1STR    C0C 9574   0.404   6.249   5.569
    1STR    C0D 9575   0.480   0.038   5.595
    1STR    C0E 9576   0.265   6.293   5.524
    1STR    O0F 9577   0.174   6.191   5.483
    1STR    C0G 9578   0.036   6.226   5.493
    1STR    C0H 9579   6.275   6.137   5.415
    1STR    C0I 9580   0.006   6.201   5.631
    1STR    O0J 9581   6.268   6.297   5.694
    1STR    C0K 9582   6.130   6.293   5.671
    1STR    C0M 9583   6.091   0.046   5.557
    1STR    C0N 9584   6.067   6.152   5.681
    1STR    O0O 9585   6.111   6.039   5.609
    1STR    C0P 9586   6.091   5.917   5.654
    1STR    O0Q 9587   5.987   5.857   5.637
    1STR    N0R 9588   6.192   5.857   5.718
    1STR    C0S 9589   6.324   5.889   5.748
    1STR    C0T 9590   0.080   5.805   5.690
    1STR    C0U 9591   0.216   5.827   5.712
    1STR    C0V 9592   0.259   5.936   5.787
    1STR    C0W 9593   0.406   5.949   5.813
    1STR    C0X 9594   0.167   6.028   5.840
    1STR    N0Y 9595   0.219   6.142   5.901
    1STR   BCK2 9596   0.246   6.261   5.848
    1STR    O10 9597   0.163   0.008   5.823
    1STR    C13 9598   0.028   5.997   5.830
    1STR    C14 9599   0.255   5.813   5.390
    1STR    C15 9600   0.148   5.792   5.302
    1STR    C16 9601   0.098   5.899   5.226
    1STR    C17 9602   6.318   5.872   5.146
    1STR    H1B 9603   0.006   6.133   5.136
    1STR    H1C 9604   0.331   6.126   5.298
    1STR    H1D 9605   0.339   6.024   5.557
    1STR    H1E 9606   0.396   6.186   5.657
    1STR    H1F 9607   0.499   0.090   5.500
    1STR    H1G 9608   0.424   0.106   5.657
    1STR    H1H 9609   0.576   0.015   5.642
    1STR    H1I 9610   0.285   0.027   5.449
    1STR    H1J 9611   0.219   0.015   5.599
    1STR    H1K 9612   0.020   6.333   5.483
    1STR    H1M 9613   6.298   6.031   5.424
    1STR    H1N 9614   6.254   6.160   5.314
    1STR    H1O 9615   6.175   6.156   5.444
    1STR    H1P 9616   6.315   6.101   5.634
    1STR    H1Q 9617   0.098   6.190   5.679
    1STR    H1R 9618   6.095   0.008   5.757
    1STR    H1S 9619   5.987   0.075   5.567
    1STR    H1T 9620   6.105   0.005   5.457
    1STR    H1U 9621   6.153   0.135   5.564
    1STR    H1V 9622   5.958   6.156   5.684
    1STR    H1W 9623   6.107   6.124   5.776
    1STR    H1X 9624   6.167   5.761   5.733
    1STR    H1Y 9625   0.050   5.718   5.634
    1STR    H1Z 9626   0.289   5.755   5.677
    1STR    H20 9627   0.461   5.985   5.728
    1STR    H21 9628   0.423   6.017   5.894
    1STR    H22 9629   0.448   5.853   5.844
    1STR    H23 9630   0.282   6.121   5.978
    1STR    H27 9631   6.296   6.064   5.871
    1STR    H28 9632   0.285   5.736   5.458
    1STR    H29 9633   0.098   5.696   5.299
    1STR    H2A 9634   6.326   5.937   5.061
    1STR    H2B 9635   6.230   5.882   5.206
    1STR    H2C 9636   6.322   5.770   5.116
    1STR   BCK1 9637   0.235   1.673   0.573
    1STR    O03 9638   0.122   1.643   0.609
    1STR    N04 9639   0.268   1.777   0.494
    1STR    C05 9640   0.193   1.882   0.444
    1STR    C06 9641   0.055   1.873   0.438
    1STR    C07 9642   6.310   1.984   0.420
    1STR    N08 9643   6.174   1.968   0.443
    1STR    C09 9644   6.119   2.025   0.549
    1STR    O0A 9645   6.135   2.141   0.585
    1STR    O0B 9646   6.067   1.928   0.625
    1STR    C0C 9647   6.134   1.896   0.746
    1STR    C0D 9648   6.075   1.769   0.805
    1STR    C0E 9649   6.280   1.868   0.718
    1STR    O0F 9650   0.013   1.990   0.691
    1STR    C0G 9651   0.143   1.991   0.744
    1STR    C0H 9652   0.257   2.072   0.687
    1STR    C0I 9653   0.127   2.039   0.886
    1STR    O0J 9654   0.249   2.011   0.950
    1STR    C0K 9655   0.286   1.875   0.952
    1STR    C0M 9656   0.189   1.766   0.919
    1STR    C0N 9657   0.429   1.837   0.922
    1STR    O0O 9658   0.508   1.921   1.003
    1STR    C0P 9659   0.599   1.867   1.083
    1STR    O0Q 9660   0.715   1.851   1.050
    1STR    N0R 9661   0.557   1.827   1.204
    1STR    C0S 9662   0.426   1.821   1.246
    1STR    C0T 9663   0.356   1.937   1.285
    1STR    C0U 9664   0.216   1.937   1.280
    1STR    C0V 9665   0.145   1.820   1.242
    1STR    C0W 9666   0.005   1.837   1.185
    1STR    C0X 9667   0.216   1.699   1.223
    1STR    N0Y 9668   0.140   1.591   1.181
    1STR   BCK2 9669   0.137   1.512   1.074
    1STR    O10 9670   0.030   1.493   1.019
    1STR    C13 9671   0.356   1.702   1.221
    1STR    C14 9672   0.029   2.109   0.396
    1STR    C15 9673   0.169   2.116   0.384
    1STR    C16 9674   0.252   2.004   0.406
    1STR    C17 9675   0.402   2.015   0.396
    1STR    H1B 9676   0.368   1.776   0.467
    1STR    H1C 9677   0.016   1.776   0.458
    1STR    H1D 9678   6.137   1.876   0.430
    1STR    H1E 9679   6.129   1.979   0.816
    1STR    H1F 9680   6.089   1.686   0.736
    1STR    H1G 9681   6.126   1.739   0.897
    1STR    H1H 9682   5.968   1.781   0.825
    1STR    H1I 9683   6.279   1.798   0.636
    1STR    H1J 9684   6.321   1.804   0.793
    1STR    H1K 9685   0.179   1.892   0.725
    1STR    H1M 9686   0.223   2.153   0.624
    1STR    H1N 9687   0.321   2.001   0.637
    1STR    H1O 9688   0.327   2.112   0.760
    1STR    H1P 9689   0.111   2.146   0.885
    1STR    H1Q 9690   0.041   1.994   0.935
    1STR    H1R 9691   0.284   1.874   1.056
    1STR    H1S 9692   0.231   1.692   0.977
    1STR    H1T 9693   0.192   1.719   0.823
    1STR    H1U 9694   0.089   1.782   0.953
    1STR    H1V 9695   0.449   1.848   0.815
    1STR    H1W 9696   0.444   1.732   0.947
    1STR    H1X 9697   0.630   1.793   1.264
    1STR    H1Y 9698   0.409   2.030   1.298
    1STR    H1Z 9699   0.167   2.032   1.289
    1STR    H20 9700  -0.001   1.931   1.132
    1STR    H21 9701   6.317   1.760   1.115
    1STR    H22 9702   6.264   1.835   1.255
    1STR    H23 9703   0.048   1.589   1.222
    1STR    H27 9704   0.412   1.620   1.181
    1STR    H28 9705   6.308   2.197   0.392
    1STR    H29 9706   0.212   2.212   0.366
    1STR    H2A 9707   0.452   1.973   0.482
    1STR    H2B 9708   0.433   2.118   0.389
    1STR    H2C 9709   0.436   1.959   0.310
    1STR   BCK1 9710   0.047   1.648   2.056
    1STR    O03 9711   0.109   1.645   2.161
    1STR    N04 9712   6.325   1.548   1.996
    1STR    C05 9713   6.277   1.424   2.031
    1STR    C06 9714   6.138   1.419   2.029
    1STR    C07 9715   6.067   1.306   2.068
    1STR    N08 9716   5.934   1.324   2.095
    1STR    C09 9717   5.888   1.353   2.216
    1STR    O0A 9718   5.768   1.364   2.237
    1STR    O0B 9719   5.978   1.356   2.313
    1STR    C0C 9720   6.103   1.425   2.313
    1STR    C0D 9721   6.228   1.341   2.341
    1STR    C0E 9722   6.129   1.569   2.276
    1STR    O0F 9723   6.022   1.631   2.209
    1STR    C0G 9724   6.045   1.769   2.192
    1STR    C0H 9725   5.954   1.822   2.085
    1STR    C0I 9726   6.015   1.839   2.320
    1STR    O0J 9727   6.135   1.844   2.394
    1STR    C0K 9728   6.145   1.946   2.490
    1STR    C0M 9729   6.182   2.074   2.419
    1STR    C0N 9730   6.026   1.951   2.586
    1STR    O0O 9731   5.961   1.829   2.575
    1STR    C0P 9732   5.862   1.787   2.643
    1STR    O0Q 9733   5.791   1.854   2.716
    1STR    N0R 9734   5.850   1.655   2.627
    1STR    C0S 9735   5.949   1.563   2.592
    1STR    C0T 9736   5.915   1.427   2.582
    1STR    C0U 9737   6.014   1.328   2.600
    1STR    C0V 9738   6.149   1.364   2.617
    1STR    C0W 9739   6.253   1.258   2.641
    1STR    C0X 9740   6.187   1.498   2.594
    1STR    N0Y 9741   6.320   1.527   2.569
    1STR   BCK2 9742   0.044   1.639   2.537
    1STR    O10 9743   0.020   1.745   2.592
    1STR    C13 9744   6.088   1.596   2.592
    1STR    C14 9745   6.138   1.195   2.113
    1STR    C15 9746   6.279   1.195   2.111
    1STR    C16 9747   0.009   1.309   2.067
    1STR    C17 9748   0.156   1.312   2.087
    1STR    H1B 9749   6.289   1.574   1.905
    1STR    H1C 9750   6.084   1.510   2.015
    1STR    H1D 9751   5.861   1.320   2.025
    1STR    H1E 9752   6.067   1.455   2.403
    1STR    H1F 9753   6.309   1.373   2.280
    1STR    H1G 9754   6.290   1.362   2.422
    1STR    H1H 9755   6.210   1.234   2.349
    1STR    H1I 9756   6.220   1.576   2.220
    1STR    H1J 9757   6.162   1.624   2.363
    1STR    H1K 9758   6.148   1.789   2.170
    1STR    H1M 9759   5.881   1.744   2.062
    1STR    H1N 9760   6.015   1.850   1.999
    1STR    H1O 9761   5.898   1.910   2.112
    1STR    H1P 9762   5.978   1.940   2.304
    1STR    H1Q 9763   5.934   1.781   2.364
    1STR    H1R 9764   6.232   1.924   2.550
    1STR    H1S 9765   6.266   2.053   2.354
    1STR    H1T 9766   6.212   2.149   2.492
    1STR    H1U 9767   6.099   2.112   2.360
    1STR    H1V 9768   5.957   2.034   2.573
    1STR    H1W 9769   6.070   1.946   2.683
    1STR    H1X 9770   5.766   1.615   2.665
    1STR    H1Y 9771   5.811   1.398   2.574
    1STR    H1Z 9772   5.987   1.223   2.600
    1STR    H20 9773   0.007   1.266   2.588
    1STR    H21 9774   6.278   1.272   2.744
    1STR    H22 9775   6.213   1.158   2.625
    1STR    H23 9776   0.037   1.444   2.570
    1STR    H27 9777   6.126   1.695   2.588
    1STR    H28 9778   6.086   1.112   2.158
    1STR    H29 9779   6.333   1.109   2.146
    1STR    H2A 9780   0.191   1.414   2.091
    1STR    H2B 9781   0.199   1.256   2.005
    1STR    H2C 9782   0.182   1.265   2.181
    1STR   BCK1 9783   6.229   1.524   3.688
    1STR    O03 9784   6.120   1.475   3.707
    1STR    N04 9785   6.331   1.438   3.670
    1STR    C05 9786   0.128   1.440   3.679
    1STR    C06 9787   0.190   1.549   3.733
    1STR    C07 9788   0.327   1.575   3.728
    1STR    N08 9789   0.387   1.679   3.799
    1STR    C09 9790   0.337   1.751   3.900
    1STR    O0A 9791   0.411   1.813   3.975
    1STR    O0B 9792   0.204   1.747   3.913
    1STR    C0C 9793   0.142   1.714   4.034
    1STR    C0D 9794   0.079   1.843   4.083
    1STR    C0E 9795   0.038   1.598   4.029
    1STR    O0F 9796   0.097   1.474   3.994
    1STR    C0G 9797   0.027   1.356   4.028
    1STR    C0H 9798   6.242   1.338   3.944
    1STR    C0I 9799   0.115   1.228   4.020
    1STR    O0J 9800   0.207   1.217   3.912
    1STR    C0K 9801   0.346   1.248   3.932
    1STR    C0M 9802   0.369   1.392   3.969
    1STR    C0N 9803   0.424   1.155   4.024
    1STR    O0O 9804   0.562   1.194   4.014
    1STR    C0P 9805   0.621   1.240   4.123
    1STR    O0Q 9806   0.600   1.196   4.236
    1STR    N0R 9807   0.682   1.356   4.097
    1STR    C0S 9808   0.653   1.474   4.166
    1STR    C0T 9809   0.732   1.589   4.158
    1STR    C0U 9810   0.683   1.711   4.209
    1STR    C0V 9811   0.555   1.718   4.267
    1STR    C0W 9812   0.501   1.846   4.322
    1STR    C0X 9813   0.476   1.605   4.271
    1STR    N0Y 9814   0.344   1.624   4.304
    1STR   BCK2 9815   0.239   1.548   4.311
    1STR    O10 9816   0.137   1.610   4.299
    1STR    C13 9817   0.528   1.485   4.224
    1STR    C14 9818   0.407   1.475   3.670
    1STR    C15 9819   0.348   1.355   3.623
    1STR    C16 9820   0.209   1.336   3.630
    1STR    C17 9821   0.148   1.201   3.605
    1STR    H1B 9822   6.296   1.352   3.633
    1STR    H1C 9823   0.120   1.606   3.787
    1STR    H1D 9824   0.484   1.697   3.785
    1STR    H1E 9825   0.224   1.683   4.097
    1STR    H1F 9826   0.004   1.878   4.013
    1STR    H1G 9827   0.031   1.829   4.180
    1STR    H1H 9828   0.155   1.920   4.094
    1STR    H1I 9829   6.298   1.620   3.962
    1STR    H1J 9830   6.325   1.589   4.123
    1STR    H1K 9831   6.335   1.368   4.131
    1STR    H1M 9832   6.268   1.301   3.847
    1STR    H1N 9833   6.185   1.430   3.937
    1STR    H1O 9834   6.176   1.263   3.982
    1STR    H1P 9835   0.164   1.205   4.113
    1STR    H1Q 9836   0.047   1.144   4.007
    1STR    H1R 9837   0.390   1.235   3.834
    1STR    H1S 9838   0.468   1.431   3.950
    1STR    H1T 9839   0.336   1.422   4.064
    1STR    H1U 9840   0.300   1.449   3.915
    1STR    H1V 9841   0.413   1.052   3.991
    1STR    H1W 9842   0.384   1.163   4.125
    1STR    H1X 9843   0.712   1.368   4.003
    1STR    H1Y 9844   0.829   1.585   4.113
    1STR    H1Z 9845   0.741   1.802   4.205
    1STR    H20 9846   0.435   1.817   4.403
    1STR    H21 9847   0.577   1.907   4.367
    1STR    H22 9848   0.446   1.901   4.246
    1STR    H23 9849   0.315   1.720   4.310
    1STR    H27 9850   0.468   1.399   4.218
    1STR    H28 9851   0.514   1.486   3.672
    1STR    H29 9852   0.411   1.275   3.588
    1STR    H2A 9853   0.057   1.208   3.548
    1STR    H2B 9854   0.121   1.156   3.700
    1STR    H2C 9855   0.218   1.135   3.554
    1STR   BCK1 9856   0.132   1.709   5.322
    1STR    O03 9857   0.051   1.620   5.346
    1STR    N04 9858   0.115   1.803   5.229
    1STR    C05 9859   6.337   1.852   5.178
    1STR    C06 9860   6.214   1.790   5.202
    1STR    C07 9861   6.099   1.868   5.208
    1STR    N08 9862   6.012   1.825   5.304
    1STR    C09 9863   5.907   1.874   5.365
    1STR    O0A 9864   5.838   1.965   5.322
    1STR    O0B 9865   5.884   1.808   5.482
    1STR    C0C 9866   5.982   1.731   5.557
    1STR    C0D 9867   5.971   1.581   5.532
    1STR    C0E 9868   6.128   1.775   5.550
    1STR    O0F 9869   6.127   1.918   5.555
    1STR    C0G 9870   6.228   1.982   5.480
    1STR    C0H 9871   6.182   2.117   5.435
    1STR    C0I 9872   0.020   1.989   5.546
    1STR    O0J 9873   0.050   1.856   5.568
    1STR    C0K 9874   0.177   1.825   5.612
    1STR    C0M 9875   0.165   1.673   5.625
    1STR    C0N 9876   0.298   1.899   5.550
    1STR    O0O 9877   0.336   2.001   5.640
    1STR    C0P 9878   0.316   2.128   5.614
    1STR    O0Q 9879   0.336   2.181   5.506
    1STR    N0R 9880   0.263   2.196   5.716
    1STR    C0S 9881   0.189   2.138   5.817
    1STR    C0T 9882   0.054   2.176   5.824
    1STR    C0U 9883   6.301   2.079   5.861
    1STR    C0V 9884   0.005   1.951   5.894
    1STR    C0W 9885   6.249   1.849   5.846
    1STR    C0X 9886   0.142   1.922   5.923
    1STR    N0Y 9887   0.189   1.789   5.927
    1STR   BCK2 9888   0.317   1.748   5.940
    1STR    O10 9889   0.407   1.819   5.980
    1STR    C13 9890   0.233   2.024   5.887
    1STR    C14 9891   6.094   1.995   5.152
    1STR    C15 9892   6.216   2.052   5.111
    1STR    C16 9893   6.337   1.984   5.131
    1STR    C17 9894   0.130   2.051   5.109
    1STR    H1B 9895   0.201   1.835   5.188
    1STR    H1C 9896   6.210   1.689   5.239
    1STR    H1D 9897   6.050   1.749   5.357
    1STR    H1E 9898   5.953   1.752   5.659
    1STR    H1F 9899   5.999   1.557   5.431
    1STR    H1G 9900   6.038   1.525   5.597
    1STR    H1H 9901   5.869   1.546   5.548
    1STR    H1I 9902   6.182   1.735   5.464
    1STR    H1J 9903   6.184   1.729   5.631
    1STR    H1K 9904   6.252   1.924   5.394
    1STR    H1M 9905   6.085   2.107   5.387
    1STR    H1N 9906   6.254   2.157   5.364
    1STR    H1O 9907   6.172   2.184   5.520
    1STR    H1P 9908   0.092   2.039   5.482
    1STR    H1Q 9909   0.009   2.045   5.634
    1STR    H1R 9910   0.187   1.856   5.709
    1STR    H1S 9911   0.257   1.619   5.608
    1STR    H1T 9912   0.086   1.630   5.566
    1STR    H1U 9913   0.130   1.652   5.723
    1STR    H1V 9914   0.278   1.936   5.450
    1STR    H1W 9915   0.385   1.834   5.547
    1STR    H1X 9916   0.254   2.293   5.695
    1STR    H1Y 9917   0.017   2.267   5.782
    1STR    H1Z 9918   6.196   2.099   5.850
    1STR    H20 9919   6.301   1.762   5.809
    1STR    H21 9920   6.164   1.831   5.909
    1STR    H22 9921   6.200   1.893   5.761
    1STR    H23 9922   0.119   1.721   5.899
    1STR    H27 9923   0.338   2.005   5.881
    1STR    H28 9924   6.003   2.052   5.152
    1STR    H29 9925   6.213   2.150   5.069
    1STR    H2A 9926   0.192   2.048   5.198
    1STR    H2B 9927   0.115   2.154   5.077
    1STR    H2C 9928   0.178   1.997   5.028
    1STR   BCK1 9929   0.100   3.379   0.638
    1STR    O03 9930   0.187   3.333   0.710
    1STR    N04 9931   0.051   3.322   0.529
    1STR    C05 9932   0.049   3.193   0.481
    1STR    C06 9933   6.260   3.138   0.469
    1STR    C07 9934   6.251   3.000   0.457
    1STR    N08 9935   6.151   2.926   0.520
    1STR    C09 9936   6.170   2.813   0.588
    1STR    O0A 9937   6.075   2.741   0.617
    1STR    O0B 9938   6.297   2.786   0.618
    1STR    C0C 9939   0.039   2.875   0.693
    1STR    C0D 9940   0.191   2.852   0.678
    1STR    C0E 9941   0.003   3.025   0.740
    1STR    O0F 9942   6.216   3.088   0.716
    1STR    C0G 9943   6.099   3.089   0.796
    1STR    C0H 9944   5.990   3.145   0.708
    1STR    C0I 9945   6.060   2.953   0.857
    1STR    O0J 9946   6.171   2.867   0.877
    1STR    C0K 9947   6.254   2.887   0.990
    1STR    C0M 9948   0.058   2.842   0.978
    1STR    C0N 9949   6.256   3.031   1.044
    1STR    O0O 9950   6.150   3.057   1.129
    1STR    C0P 9951   6.114   2.964   1.210
    1STR    O0Q 9952   6.016   2.902   1.183
    1STR    N0R 9953   6.199   2.922   1.304
    1STR    C0S 9954   6.336   2.903   1.293
    1STR    C0T 9955   0.032   2.773   1.261
    1STR    C0U 9956   0.164   2.744   1.228
    1STR    C0V 9957   0.265   2.839   1.237
    1STR    C0W 9958   0.401   2.800   1.186
    1STR    C0X 9959   0.229   2.972   1.262
    1STR    N0Y 9960   0.312   3.075   1.221
    1STR   BCK2 9961   0.326   3.108   1.091
    1STR    O10 9962   0.293   3.036   0.998
    1STR    C13 9963   0.096   3.003   1.296
    1STR    C14 9964   0.021   2.931   0.412
    1STR    C15 9965   0.148   2.981   0.422
    1STR    C16 9966   0.164   3.112   0.464
    1STR    C17 9967   0.302   3.145   0.504
    1STR    H1B 9968   6.331   3.382   0.476
    1STR    H1C 9969   6.174   3.194   0.499
    1STR    H1D 9970   6.057   2.957   0.525
    1STR    H1E 9971   0.012   2.802   0.765
    1STR    H1F 9972   0.243   2.948   0.672
    1STR    H1G 9973   0.234   2.800   0.763
    1STR    H1H 9974   0.213   2.793   0.590
    1STR    H1I 9975   0.073   3.089   0.690
    1STR    H1J 9976   0.046   3.056   0.833
    1STR    H1K 9977   6.108   3.168   0.870
    1STR    H1M 9978   5.969   3.080   0.624
    1STR    H1N 9979   6.021   3.243   0.670
    1STR    H1O 9980   5.899   3.158   0.766
    1STR    H1P 9981   6.000   2.965   0.947
    1STR    H1Q 9982   5.996   2.900   0.788
    1STR    H1R 9983   6.211   2.814   1.057
    1STR    H1S 9984   0.113   2.884   1.056
    1STR    H1T 9985   0.123   2.893   0.912
    1STR    H1U 9986   0.072   2.734   0.969
    1STR    H1V 9987   6.258   3.108   0.972
    1STR    H1W 9988   0.010   3.056   1.089
    1STR    H1X 9989   6.147   2.855   1.360
    1STR    H1Y 9990   6.294   2.703   1.236
    1STR    H1Z 9991   0.180   2.655   1.170
    1STR    H20 9992   0.418   2.844   1.088
    1STR    H21 9993   0.476   2.837   1.256
    1STR    H22 9994   0.409   2.692   1.176
    1STR    H23 9995   0.365   3.122   1.293
    1STR    H27 9996   0.070   3.105   1.308
    1STR    H28 9997   0.013   2.828   0.409
    1STR    H29 9998   0.230   2.913   0.410
    1STR    H2A 9999   0.326   3.226   0.442
    1STR    H2B10000   0.372   3.065   0.482
    1STR    H2C10001   0.312   3.169   0.609
    1STR   BCK110002   0.305   2.943   2.056
    1STR    O0310003   0.244   2.955   2.161
    1STR    N0410004   0.345   3.042   1.974
    1STR    C0510005   0.335   3.180   1.989
    1STR    C0610006   0.215   3.242   2.018
    1STR    C0710007   0.202   3.375   2.054
    1STR    N0810008   0.074   3.410   2.090
    1STR    C0910009   0.033   3.508   2.168
    1STR    O0A10010   0.089   3.616   2.186
    1STR    O0B10011   6.271   3.461   2.237
    1STR    C0C10012   6.299   3.382   2.353
    1STR    C0D10013   6.168   3.387   2.429
    1STR    C0E10014   0.001   3.235   2.327
    1STR    O0F10015   0.128   3.214   2.268
    1STR    C0G10016   0.243   3.232   2.346
    1STR    C0H10017   0.363   3.148   2.306
    1STR    C0I10018   0.289   3.379   2.359
    1STR    O0J10019   0.281   3.431   2.488
    1STR    C0K10020   0.339   3.354   2.589
    1STR    C0M10021   0.235   3.261   2.648
    1STR    C0N10022   0.465   3.281   2.549
    1STR    O0O10023   0.567   3.364   2.495
    1STR    C0P10024   0.696   3.329   2.506
    1STR    O0Q10025   0.764   3.299   2.409
    1STR    N0R10026   0.749   3.331   2.629
    1STR    C0S10027   0.677   3.346   2.744
    1STR    C0T10028   0.615   3.469   2.774
    1STR    C0U10029   0.501   3.471   2.856
    1STR    C0V10030   0.443   3.349   2.897
    1STR    C0W10031   0.317   3.349   2.977
    1STR    C0X10032   0.504   3.227   2.863
    1STR    N0Y10033   0.443   3.107   2.891
    1STR   BCK210034   0.429   3.003   2.808
    1STR    O1010035   0.441   3.006   2.687
    1STR    C1310036   0.630   3.227   2.801
    1STR    C1410037   0.316   3.457   2.060
    1STR    C1510038   0.441   3.397   2.036
    1STR    C1610039   0.449   3.259   2.005
    1STR    C1710040   0.578   3.189   2.020
    1STR    H1B10041   0.374   3.017   1.881
    1STR    H1C10042   0.133   3.178   2.034
    1STR    H1D10043   0.016   3.328   2.098
    1STR    H1E10044   0.036   3.433   2.410
    1STR    H1F10045   6.087   3.348   2.366
    1STR    H1G10046   6.171   3.326   2.518
    1STR    H1H10047   6.144   3.489   2.457
    1STR    H1I10048   6.266   3.190   2.263
    1STR    H1J10049   6.338   3.174   2.415
    1STR    H1K10050   0.213   3.182   2.435
    1STR    H1M10051   0.365   3.136   2.205
    1STR    H1N10052   0.362   3.049   2.352
    1STR    H1O10053   0.461   3.194   2.313
    1STR    H1P10054   0.390   3.395   2.322
    1STR    H1Q10055   0.230   3.446   2.301
    1STR    H1R10056   0.363   3.429   2.662
    1STR    H1S10057   0.225   3.267   2.753
    1STR    H1T10058   0.251   3.155   2.629
    1STR    H1U10059   0.140   3.292   2.608
    1STR    H1V10060   0.453   3.184   2.507
    1STR    H1W10061   0.491   3.227   2.632
    1STR    H1X10062   0.845   3.300   2.631
    1STR    H1Y10063   0.646   3.559   2.725
    1STR    H1Z10064   0.451   3.564   2.876
    1STR    H2010065   0.239   3.289   2.938
    1STR    H2110066   0.347   3.296   3.066
    1STR    H2210067   0.279   3.448   3.000
    1STR    H2310068   0.420   3.090   2.989
    1STR    H2710069   0.673   3.132   2.772
    1STR    H2810070   0.309   3.561   2.086
    1STR    H2910071   0.530   3.456   2.047
    1STR    H2A10072   0.595   3.160   2.123
    1STR    H2B10073   0.647   3.267   1.994
    1STR    H2C10074   0.586   3.101   1.958
    1STR   BCK110075   0.105   3.501   3.662
    1STR    O0310076   0.098   3.401   3.733
    1STR    N0410077   0.032   3.516   3.551
    1STR    C0510078   6.256   3.449   3.519
    1STR    C0610079   6.243   3.312   3.537
    1STR    C0710080   6.115   3.254   3.544
    1STR    N0810081   6.112   3.121   3.579
    1STR    C0910082   6.024   3.063   3.659
    1STR    O0A10083   5.904   3.086   3.667
    1STR    O0B10084   6.091   2.990   3.740
    1STR    C0C10085   6.156   3.057   3.847
    1STR    C0D10086   6.266   2.958   3.882
    1STR    C0E10087   6.210   3.201   3.824
    1STR    O0F10088   6.107   3.297   3.799
    1STR    C0G10089   6.141   3.431   3.834
    1STR    C0H10090   6.064   3.546   3.774
    1STR    C0I10091   6.116   3.441   3.976
    1STR    O0J10092   6.234   3.481   4.043
    1STR    C0K10093   6.259   3.618   4.063
    1STR    C0M10094   6.332   3.678   3.945
    1STR    C0N10095   6.135   3.693   4.116
    1STR    O0O10096   6.069   3.595   4.191
    1STR    C0P10097   5.958   3.612   4.250
    1STR    O0Q10098   5.918   3.721   4.287
    1STR    N0R10099   5.892   3.497   4.270
    1STR    C0S10100   5.922   3.363   4.244
    1STR    C0T10101   5.820   3.267   4.235
    1STR    C0U10102   5.852   3.134   4.198
    1STR    C0V10103   5.985   3.097   4.168
    1STR    C0W10104   6.015   2.953   4.134
    1STR    C0X10105   6.088   3.193   4.178
    1STR    N0Y10106   6.217   3.171   4.128
    1STR   BCK210107   6.330   3.243   4.144
    1STR    O1010108   0.015   3.313   4.241
    1STR    C1310109   6.052   3.319   4.225
    1STR    C1410110   6.001   3.336   3.537
    1STR    C1510111   6.015   3.468   3.493
    1STR    C1610112   6.143   3.523   3.480
    1STR    C1710113   6.160   3.668   3.456
    1STR    H1B10114   0.074   3.573   3.478
    1STR    H1C10115   6.331   3.253   3.555
    1STR    H1D10116   6.201   3.075   3.577
    1STR    H1E10117   6.079   3.067   3.922
    1STR    H1F10118   6.333   2.943   3.797
    1STR    H1G10119   6.327   2.992   3.964
    1STR    H1H10120   6.223   2.862   3.909
    1STR    H1I10121   6.290   3.199   3.751
    1STR    H1J10122   6.262   3.238   3.907
    1STR    H1K10123   6.245   3.449   3.821
    1STR    H1M10124   5.969   3.512   3.733
    1STR    H1N10125   6.130   3.592   3.704
    1STR    H1O10126   6.045   3.627   3.842
    1STR    H1P10127   6.021   3.488   4.000
    1STR    H1Q10128   6.091   3.341   3.999
    1STR    H1R10129   6.335   3.619   4.140
    1STR    H1S10130   0.076   3.612   3.920
    1STR    H1T10131   0.032   3.775   3.972
    1STR    H1U10132   6.270   3.688   3.857
    1STR    H1V10133   6.068   3.725   4.036
    1STR    H1W10134   6.160   3.777   4.180
    1STR    H1X10135   5.808   3.517   4.324
    1STR    H1Y10136   5.718   3.294   4.254
    1STR    H1Z10137   5.774   3.060   4.194
    1STR    H2010138   6.120   2.935   4.118
    1STR    H2110139   5.984   2.891   4.218
    1STR    H2210140   5.960   2.924   4.045
    1STR    H2310141   6.227   3.091   4.069
    1STR    H2710142   6.132   3.387   4.231
    1STR    H2810143   5.902   3.296   3.553
    1STR    H2910144   5.926   3.528   3.477
    1STR    H2A10145   6.182   3.722   3.548
    1STR    H2B10146   6.068   3.705   3.413
    1STR    H2C10147   6.247   3.676   3.391
    1STR   BCK110148  -0.000   3.121   5.240
    1STR    O0310149   6.236   3.062   5.260
    1STR    N0410150   0.105   3.063   5.180
    1STR    C0510151   0.196   2.965   5.224
    1STR    C0610152   0.306   3.019   5.287
    1STR    C0710153   0.392   2.943   5.369
    1STR    N0810154   0.459   3.008   5.470
    1STR    C0910155   0.517   3.125   5.445
    1STR    O0A10156   0.632   3.133   5.405
    1STR    O0B10157   0.433   3.231   5.445
    1STR    C0C10158   0.317   3.244   5.526
    1STR    C0D10159   0.305   3.394   5.554
    1STR    C0E10160   0.182   3.172   5.501
    1STR    O0F10161   0.171   3.030   5.515
    1STR    C0G10162   0.036   2.986   5.497
    1STR    C0H10163   0.013   2.852   5.427
    1STR    C0I10164   6.316   2.962   5.623
    1STR    O0J10165   6.223   3.058   5.660
    1STR    C0K10166   6.089   3.035   5.628
    1STR    C0M10167   6.054   3.147   5.533
    1STR    C0N10168   6.048   2.891   5.589
    1STR    O0O10169   6.110   2.802   5.682
    1STR    C0P10170   6.109   2.673   5.670
    1STR    O0Q10171   6.022   2.612   5.610
    1STR    N0R10172   6.209   2.610   5.731
    1STR    C0S10173   6.336   2.650   5.776
    1STR    C0T10174   0.102   2.566   5.740
    1STR    C0U10175   0.237   2.602   5.762
    1STR    C0V10176   0.267   2.723   5.823
    1STR    C0W10177   0.410   2.760   5.856
    1STR    C0X10178   0.164   2.812   5.852
    1STR    N0Y10179   0.204   2.941   5.880
    1STR   BCK210180   0.242   3.027   5.787
    1STR    O1010181   0.167   3.119   5.762
    1STR    C1310182   0.028   2.772   5.840
    1STR    C1410183   0.385   2.805   5.366
    1STR    C1510184   0.290   2.745   5.283
    1STR    C1610185   0.194   2.823   5.216
    1STR    C1710186   0.094   2.743   5.140
    1STR    H1B10187   0.143   3.128   5.110
    1STR    H1C10188   0.313   3.124   5.284
    1STR    H1D10189   0.393   3.008   5.547
    1STR    H1E10190   0.355   3.199   5.610
    1STR    H1F10191   0.308   3.456   5.467
    1STR    H1G10192   0.214   3.418   5.608
    1STR    H1H10193   0.392   3.425   5.612
    1STR    H1I10194   0.158   3.187   5.400
    1STR    H1J10195   0.102   3.218   5.560
    1STR    H1K10196   6.313   3.067   5.466
    1STR    H1M10197   0.096   2.784   5.445
    1STR    H1N10198   6.333   2.870   5.325
    1STR    H1O10199   6.263   2.797   5.450
    1STR    H1P10200   6.300   2.859   5.636
    1STR    H1Q10201   0.051   2.956   5.690
    1STR    H1R10202   6.040   3.062   5.720
    1STR    H1S10203   5.946   3.157   5.528
    1STR    H1T10204   6.093   3.128   5.435
    1STR    H1U10205   6.097   3.240   5.571
    1STR    H1V10206   6.077   2.868   5.488
    1STR    H1W10207   5.940   2.879   5.594
    1STR    H1X10208   6.196   2.511   5.722
    1STR    H1Y10209   0.081   2.471   5.694
    1STR    H1Z10210   0.317   2.535   5.739
    1STR    H2010211   0.452   2.816   5.773
    1STR    H2110212   0.413   2.822   5.946
    1STR    H2210213   0.468   2.671   5.876
    1STR    H2310214   0.194   2.986   5.972
    1STR    H2710215   6.289   2.843   5.861
    1STR    H2810216   0.450   2.744   5.427
    1STR    H2910217   0.287   2.638   5.277
    1STR    H2A10218   0.062   2.784   5.046
    1STR    H2B10219   0.012   2.705   5.200
    1STR    H2C10220   0.153   2.657   5.116
    1STR   BCK110221   0.052   4.737   0.488
    1STR    O0310222   6.285   4.680   0.503
    1STR    N0410223   0.067   4.870   0.455
    1STR    C0510224   6.314   4.980   0.454
    1STR    C0610225   6.186   4.964   0.509
    1STR    C0710226   6.091   5.067   0.520
    1STR    N0810227   5.982   5.047   0.600
    1STR    C0910228   6.026   5.043   0.724
    1STR    O0A10229   6.052   5.139   0.795
    1STR    O0B10230   6.056   4.916   0.742
    1STR    C0C10231   6.160   4.870   0.819
    1STR    C0D10232   6.100   4.739   0.863
    1STR    C0E10233   6.300   4.859   0.763
    1STR    O0F10234   0.025   4.976   0.714
    1STR    C0G10235   0.168   4.966   0.720
    1STR    C0H10236   0.247   5.049   0.623
    1STR    C0I10237   0.205   5.023   0.849
    1STR    O0J10238   0.284   4.933   0.922
    1STR    C0K10239   0.424   4.939   0.924
    1STR    C0M10240   0.474   4.835   0.829
    1STR    C0N10241   0.486   5.078   0.904
    1STR    O0O10242   0.410   5.171   0.979
    1STR    C0P10243   0.426   5.172   1.108
    1STR    O0Q10244   0.534   5.176   1.166
    1STR    N0R10245   0.313   5.160   1.175
    1STR    C0S10246   0.189   5.126   1.127
    1STR    C0T10247   0.099   5.217   1.065
    1STR    C0U10248   6.303   5.181   1.052
    1STR    C0V10249   6.265   5.049   1.079
    1STR    C0W10250   6.118   5.020   1.094
    1STR    C0X10251   0.025   4.951   1.101
    1STR    N0Y10252   6.339   4.819   1.066
    1STR   BCK210253   0.080   4.717   1.032
    1STR    O1010254   0.036   4.626   0.962
    1STR    C1310255   0.150   4.994   1.147
    1STR    C1410256   6.117   5.193   0.469
    1STR    C1510257   6.243   5.216   0.414
    1STR    C1610258  -0.000   5.113   0.411
    1STR    C1710259   0.131   5.164   0.371
    1STR    H1B10260   0.164   4.893   0.432
    1STR    H1C10261   6.162   4.868   0.550
    1STR    H1D10262   5.943   4.954   0.589
    1STR    H1E10263   6.174   4.943   0.892
    1STR    H1F10264   6.090   4.670   0.780
    1STR    H1G10265   6.159   4.690   0.938
    1STR    H1H10266   6.001   4.754   0.906
    1STR    H1I10267   6.300   4.774   0.701
    1STR    H1J10268   0.027   4.823   0.835
    1STR    H1K10269   0.200   4.862   0.718
    1STR    H1M10270   0.201   5.147   0.620
    1STR    H1N10271   0.256   5.001   0.528
    1STR    H1O10272   0.350   5.061   0.653
    1STR    H1P10273   0.235   5.127   0.844
    1STR    H1Q10274   0.110   5.031   0.897
    1STR    H1R10275   0.448   4.904   1.024
    1STR    H1S10276   0.419   4.742   0.841
    1STR    H1T10277   0.581   4.815   0.841
    1STR    H1U10278   0.457   4.872   0.730
    1STR    H1V10279   0.486   5.109   0.801
    1STR    H1W10280   0.589   5.077   0.937
    1STR    H1X10281   0.327   5.164   1.275
    1STR    H1Y10282   0.127   5.318   1.041
    1STR    H1Z10283   6.229   5.254   1.024
    1STR    H2010284   6.057   5.065   1.017
    1STR    H2110285   6.096   4.913   1.099
    1STR    H2210286   6.088   5.066   1.186
    1STR    H2310287   6.243   4.801   1.042
    1STR    H2710288   0.225   4.926   1.182
    1STR    H2810289   6.046   5.273   0.482
    1STR    H2910290   6.269   5.315   0.381
    1STR    H2A10291   0.200   5.082   0.358
    1STR    H2B10292   0.171   5.236   0.442
    1STR    H2C10293   0.116   5.221   0.281
    1STR   BCK110294   0.041   4.717   2.166
    1STR    O0310295   0.098   4.689   2.270
    1STR    N0410296   6.326   4.633   2.079
    1STR    C0510297   6.304   4.499   2.092
    1STR    C0610298   6.170   4.464   2.095
    1STR    C0710299   6.128   4.341   2.141
    1STR    N0810300   5.996   4.330   2.176
    1STR    C0910301   5.966   4.342   2.305
    1STR    O0A10302   5.852   4.359   2.347
    1STR    O0B10303   6.074   4.331   2.381
    1STR    C0C10304   6.152   4.443   2.417
    1STR    C0D10305   6.302   4.413   2.431
    1STR    C0E10306   6.134   4.587   2.362
    1STR    O0F10307   6.008   4.633   2.323
    1STR    C0G10308   6.017   4.751   2.244
    1STR    C0H10309   5.877   4.754   2.187
    1STR    C0I10310   6.042   4.883   2.316
    1STR    O0J10311   6.174   4.900   2.364
    1STR    C0K10312   6.214   5.029   2.415
    1STR    C0M10313   6.265   5.123   2.310
    1STR    C0N10314   6.124   5.108   2.512
    1STR    O0O10315   5.986   5.081   2.501
    1STR    C0P10316   5.919   5.035   2.605
    1STR    O0Q10317   5.831   5.099   2.660
    1STR    N0R10318   5.947   4.913   2.650
    1STR    C0S10319   6.038   4.814   2.622
    1STR    C0T10320   5.984   4.686   2.622
    1STR    C0U10321   6.064   4.582   2.667
    1STR    C0V10322   6.203   4.594   2.666
    1STR    C0W10323   6.285   4.474   2.707
    1STR    C0X10324   6.263   4.716   2.629
    1STR    N0Y10325   0.059   4.724   2.606
    1STR   BCK210326   0.140   4.830   2.602
    1STR    O1010327   0.111   4.944   2.636
    1STR    C1310328   6.178   4.827   2.630
    1STR    C1410329   6.223   4.243   2.177
    1STR    C1510330   0.020   4.272   2.166
    1STR    C1610331   0.061   4.401   2.125
    1STR    C1710332   0.208   4.426   2.116
    1STR    H1B10333   6.287   4.680   1.998
    1STR    H1C10334   6.097   4.542   2.090
    1STR    H1D10335   5.920   4.341   2.112
    1STR    H1E10336   6.106   4.430   2.510
    1STR    H1F10337   0.016   4.428   2.343
    1STR    H1G10338   0.015   4.492   2.481
    1STR    H1H10339   6.323   4.315   2.471
    1STR    H1I10340   6.205   4.602   2.286
    1STR    H1J10341   6.175   4.663   2.424
    1STR    H1K10342   6.092   4.743   2.166
    1STR    H1M10343   5.804   4.760   2.268
    1STR    H1N10344   5.857   4.661   2.133
    1STR    H1O10345   5.862   4.840   2.122
    1STR    H1P10346   6.020   4.968   2.251
    1STR    H1Q10347   5.968   4.883   2.394
    1STR    H1R10348   6.306   5.006   2.468
    1STR    H1S10349   0.013   5.081   2.267
    1STR    H1T10350   6.298   5.217   2.352
    1STR    H1U10351   6.189   5.139   2.236
    1STR    H1V10352   6.132   5.215   2.493
    1STR    H1W10353   6.158   5.102   2.615
    1STR    H1X10354   5.880   4.880   2.720
    1STR    H1Y10355   5.878   4.669   2.611
    1STR    H1Z10356   6.019   4.487   2.689
    1STR    H2010357   0.050   4.478   2.683
    1STR    H2110358   6.277   4.456   2.812
    1STR    H2210359   6.243   4.386   2.663
    1STR    H2310360   0.103   4.637   2.580
    1STR    H2710361   6.225   4.921   2.642
    1STR    H2810362   6.191   4.148   2.215
    1STR    H2910363   0.093   4.196   2.189
    1STR    H2A10364   0.235   4.510   2.181
    1STR    H2B10365   0.227   4.447   2.012
    1STR    H2C10366   0.266   4.340   2.145
    1STR   BCK110367   0.063   4.552   3.646
    1STR    O0310368   0.028   4.437   3.667
    1STR    N0410369   0.196   4.561   3.619
    1STR    C0510370   0.296   4.656   3.613
    1STR    C0610371   0.263   4.788   3.629
    1STR    C0710372   0.353   4.881   3.676
    1STR    N0810373   0.289   4.954   3.771
    1STR    C0910374   0.284   5.080   3.806
    1STR    O0A10375   0.363   5.165   3.768
    1STR    O0B10376   0.173   5.103   3.876
    1STR    C0C10377   0.125   5.015   3.978
    1STR    C0D10378   0.023   5.105   4.046
    1STR    C0E10379   0.052   4.883   3.944
    1STR    O0F10380   0.131   4.784   3.878
    1STR    C0G10381   0.146   4.662   3.950
    1STR    C0H10382   0.014   4.581   3.968
    1STR    C0I10383   0.258   4.564   3.911
    1STR    O0J10384   0.378   4.623   3.870
    1STR    C0K10385   0.483   4.657   3.957
    1STR    C0M10386   0.444   4.784   4.029
    1STR    C0N10387   0.536   4.539   4.040
    1STR    O0O10388   0.649   4.582   4.113
    1STR    C0P10389   0.639   4.582   4.244
    1STR    O0Q10390   0.594   4.488   4.310
    1STR    N0R10391   0.657   4.706   4.288
    1STR    C0S10392   0.552   4.788   4.330
    1STR    C0T10393   0.563   4.929   4.326
    1STR    C0U10394   0.450   5.011   4.336
    1STR    C0V10395   0.324   4.952   4.335
    1STR    C0W10396   0.200   5.036   4.317
    1STR    C0X10397   0.311   4.814   4.340
    1STR    N0Y10398   0.185   4.768   4.318
    1STR   BCK210399   0.136   4.659   4.265
    1STR    O1010400   0.029   4.676   4.212
    1STR    C1310401   0.424   4.733   4.344
    1STR    C1410402   0.490   4.853   3.672
    1STR    C1510403   0.530   4.724   3.632
    1STR    C1610404   0.433   4.622   3.613
    1STR    C1710405   0.475   4.479   3.633
    1STR    H1B10406   0.231   4.468   3.609
    1STR    H1C10407   0.161   4.805   3.635
    1STR    H1D10408   0.221   4.894   3.820
    1STR    H1E10409   0.211   4.990   4.040
    1STR    H1F10410   6.288   5.139   3.975
    1STR    H1G10411   6.310   5.054   4.126
    1STR    H1H10412   0.072   5.193   4.088
    1STR    H1I10413   6.303   4.906   3.888
    1STR    H1J10414   0.011   4.844   4.037
    1STR    H1K10415   0.181   4.708   4.038
    1STR    H1M10416   6.334   4.512   3.888
    1STR    H1N10417   6.266   4.644   3.982
    1STR    H1O10418   0.017   4.510   4.050
    1STR    H1P10419   0.278   4.482   3.978
    1STR    H1Q10420   0.221   4.499   3.835
    1STR    H1R10421   0.564   4.685   3.891
    1STR    H1S10422   0.529   4.827   4.080
    1STR    H1T10423   0.364   4.768   4.099
    1STR    H1U10424   0.410   4.859   3.959
    1STR    H1V10425   0.564   4.457   3.974
    1STR    H1W10426   0.459   4.499   4.105
    1STR    H1X10427   0.729   4.754   4.238
    1STR    H1Y10428   0.656   4.979   4.307
    1STR    H1Z10429   0.461   5.118   4.333
    1STR    H2010430   0.146   5.000   4.232
    1STR    H2110431   0.132   5.018   4.399
    1STR    H2210432   0.222   5.141   4.303
    1STR    H2310433   0.114   4.840   4.321
    1STR    H2710434   0.415   4.628   4.340
    1STR    H2810435   0.559   4.924   3.714
    1STR    H2910436   0.634   4.697   3.640
    1STR    H2A10437   0.521   4.471   3.731
    1STR    H2B10438   0.547   4.449   3.559
    1STR    H2C10439   0.391   4.411   3.637
    1STR   BCK110440   0.023   4.783   5.328
    1STR    O0310441   6.303   4.677   5.343
    1STR    N0410442   6.328   4.881   5.246
    1STR    C0510443   6.209   4.935   5.200
    1STR    C0610444   6.089   4.897   5.258
    1STR    C0710445   5.970   4.970   5.245
    1STR    N0810446   5.854   4.917   5.299
    1STR    C0910447   5.856   4.891   5.429
    1STR    O0A10448   5.808   4.965   5.514
    1STR    O0B10449   5.923   4.778   5.454
    1STR    C0C10450   6.009   4.771   5.566
    1STR    C0D10451   6.060   4.627   5.575
    1STR    C0E10452   6.131   4.866   5.560
    1STR    O0F10453   6.093   5.002   5.545
    1STR    C0G10454   6.184   5.089   5.481
    1STR    C0H10455   6.115   5.220   5.453
    1STR    C0I10456   6.318   5.103   5.541
    1STR    O0J10457   0.079   5.136   5.450
    1STR    C0K10458   0.196   5.169   5.523
    1STR    C0M10459   0.315   5.097   5.464
    1STR    C0N10460   0.204   5.320   5.518
    1STR    O0O10461   0.117   5.368   5.618
    1STR    C0P10462   0.172   5.422   5.725
    1STR    O0Q10463   0.271   5.493   5.724
    1STR    N0R10464   0.111   5.387   5.838
    1STR    C0S10465   0.014   5.291   5.847
    1STR    C0T10466   6.217   5.321   5.843
    1STR    C0U10467   6.126   5.215   5.839
    1STR    C0V10468   6.170   5.082   5.831
    1STR    C0W10469   6.056   4.983   5.824
    1STR    C0X10470   6.311   5.053   5.828
    1STR    N0Y10471   0.025   4.928   5.793
    1STR   BCK210472   0.151   4.896   5.760
    1STR    O1010473   0.253   4.960   5.781
    1STR    C1310474   0.059   5.160   5.846
    1STR    C1410475   5.971   5.085   5.165
    1STR    C1510476   6.093   5.130   5.110
    1STR    C1610477   6.212   5.058   5.134
    1STR    C1710478   0.004   5.121   5.108
    1STR    H1B10479   0.073   4.928   5.212
    1STR    H1C10480   6.091   4.813   5.321
    1STR    H1D10481   5.839   4.833   5.246
    1STR    H1E10482   5.949   4.796   5.652
    1STR    H1F10483   6.127   4.603   5.493
    1STR    H1G10484   6.117   4.611   5.666
    1STR    H1H10485   5.976   4.558   5.573
    1STR    H1I10486   6.199   4.839   5.483
    1STR    H1J10487   6.194   4.849   5.644
    1STR    H1K10488   6.214   5.051   5.390
    1STR    H1M10489   6.020   5.199   5.403
    1STR    H1N10490   6.178   5.279   5.387
    1STR    H1O10491   6.096   5.273   5.545
    1STR    H1P10492   6.308   5.178   5.617
    1STR    H1Q10493   0.009   5.006   5.576
    1STR    H1R10494   0.193   5.137   5.627
    1STR    H1S10495   0.311   4.992   5.494
    1STR    H1T10496   0.407   5.136   5.505
    1STR    H1U10497   0.313   5.103   5.356
    1STR    H1V10498   0.172   5.356   5.421
    1STR    H1W10499   0.307   5.350   5.535
    1STR    H1X10500   0.162   5.414   5.922
    1STR    H1Y10501   6.182   5.422   5.843
    1STR    H1Z10502   6.020   5.234   5.837
    1STR    H2010503   6.085   4.880   5.818
    1STR    H2110504   5.989   4.995   5.908
    1STR    H2210505   5.990   5.006   5.742
    1STR    H2310506   6.300   4.853   5.778
    1STR    H2710507   0.166   5.149   5.853
    1STR    H2810508   5.879   5.140   5.148
    1STR    H2910509   6.096   5.222   5.055
    1STR    H2A10510   0.065   5.126   5.198
    1STR    H2B10511   6.327   5.223   5.075
    1STR    H2C10512   0.055   5.061   5.034
    1STR   BCK110513   1.702   6.307   0.443
    1STR    O0310514   1.820   6.304   0.464
    1STR    N0410515   1.631   6.203   0.395
    1STR    C0510516   1.662   6.065   0.400
    1STR    C0610517   1.782   6.023   0.458
    1STR    C0710518   1.795   5.905   0.530
    1STR    N0810519   1.883   5.911   0.636
    1STR    C0910520   2.004   5.959   0.608
    1STR    O0A10521   2.081   5.906   0.530
    1STR    O0B10522   2.025   6.086   0.650
    1STR    C0C10523   1.960   6.150   0.758
    1STR    C0D10524   2.065   6.253   0.793
    1STR    C0E10525   1.829   6.226   0.734
    1STR    O0F10526   1.725   6.142   0.688
    1STR    C0G10527   1.593   6.188   0.710
    1STR    C0H10528   1.487   6.106   0.637
    1STR    C0I10529   1.571   6.171   0.851
    1STR    O0J10530   1.528   6.289   0.912
    1STR    C0K10531   1.393   6.331   0.904
    1STR    C0M10532   1.387   0.114   0.819
    1STR    C0N10533   1.286   6.227   0.880
    1STR    O0O10534   1.326   6.115   0.956
    1STR    C0P10535   1.295   5.993   0.916
    1STR    O0Q10536   1.195   5.969   0.849
    1STR    N0R10537   1.382   5.897   0.947
    1STR    C0S10538   1.507   5.885   1.011
    1STR    C0T10539   1.557   5.754   1.011
    1STR    C0U10540   1.677   5.723   1.076
    1STR    C0V10541   1.751   5.823   1.141
    1STR    C0W10542   1.879   5.786   1.210
    1STR    C0X10543   1.707   5.956   1.140
    1STR    N0Y10544   1.791   6.051   1.196
    1STR   BCK210545   1.863   6.137   1.126
    1STR    O1010546   1.836   6.167   1.014
    1STR    C1310547   1.583   5.986   1.078
    1STR    C1410548   1.695   5.808   0.519
    1STR    C1510549   1.585   5.836   0.436
    1STR    C1610550   1.567   5.963   0.379
    1STR    C1710551   1.432   5.989   0.319
    1STR    H1B10552   1.533   6.223   0.371
    1STR    H1C10553   1.860   6.093   0.471
    1STR    H1D10554   1.836   5.963   0.710
    1STR    H1E10555   1.948   6.075   0.837
    1STR    H1F10556   2.102   6.301   0.703
    1STR    H1G10557   2.023   6.332   0.853
    1STR    H1H10558   2.147   6.206   0.846
    1STR    H1I10559   1.848   6.315   0.677
    1STR    H1J10560   1.794   6.279   0.821
    1STR    H1K10561   1.580   6.293   0.695
    1STR    H1M10562   1.528   6.007   0.621
    1STR    H1N10563   1.454   6.155   0.548
    1STR    H1O10564   1.397   6.083   0.690
    1STR    H1P10565   1.517   6.081   0.862
    1STR    H1Q10566   1.659   6.136   0.897
    1STR    H1R10567   1.367   0.023   1.002
    1STR    H1S10568   1.292   0.165   0.831
    1STR    H1T10569   1.401   0.080   0.719
    1STR    H1U10570   1.469   0.182   0.844
    1STR    H1V10571   1.271   6.206   0.775
    1STR    H1W10572   1.191   6.268   0.910
    1STR    H1X10573   1.342   5.810   0.917
    1STR    H1Y10574   1.500   5.675   0.967
    1STR    H1Z10575   1.711   5.621   1.080
    1STR    H2010576   1.960   5.792   1.136
    1STR    H2110577   1.903   5.853   1.291
    1STR    H2210578   1.871   5.685   1.250
    1STR    H2310579   1.812   6.048   1.295
    1STR    H2710580   1.548   6.088   1.086
    1STR    H2810581   1.701   5.718   0.577
    1STR    H2910582   1.504   5.765   0.430
    1STR    H2A10583   1.439   6.059   0.235
    1STR    H2B10584   1.364   6.026   0.394
    1STR    H2C10585   1.389   5.896   0.286
    1STR   BCK110586   1.914   6.236   2.114
    1STR    O0310587   1.823   6.209   2.192
    1STR    N0410588   1.929   0.012   2.051
    1STR    C0510589   1.852   0.127   2.065
    1STR    C0610590   1.714   0.125   2.078
    1STR    C0710591   1.637   0.243   2.076
    1STR    N0810592   1.501   0.228   2.086
    1STR    C0910593   1.437   0.280   2.188
    1STR    O0A10594   1.451   0.394   2.232
    1STR    O0B10595   1.378   0.181   2.250
    1STR    C0C10596   1.420   0.150   2.380
    1STR    C0D10597   1.300   0.104   2.458
    1STR    C0E10598   1.532   0.046   2.382
    1STR    O0F10599   1.649   0.100   2.327
    1STR    C0G10600   1.742   0.166   2.410
    1STR    C0H10601   1.873   0.090   2.386
    1STR    C0I10602   1.756   0.310   2.366
    1STR    O0J10603   1.745   0.401   2.470
    1STR    C0K10604   1.862   0.464   2.516
    1STR    C0M10605   1.832   0.445   2.662
    1STR    C0N10606   2.000   0.409   2.476
    1STR    O0O10607   2.096   0.458   2.567
    1STR    C0P10608   2.220   0.408   2.562
    1STR    O0Q10609   2.296   0.426   2.469
    1STR    N0R10610   2.250   0.331   2.666
    1STR    C0S10611   2.153   0.277   2.745
    1STR    C0T10612   2.116   0.338   2.867
    1STR    C0U10613   1.999   0.299   2.932
    1STR    C0V10614   1.918   0.204   2.868
    1STR    C0W10615   1.787   0.161   2.920
    1STR    C0X10616   1.955   0.142   2.749
    1STR    N0Y10617   1.853   0.075   2.688
    1STR   BCK210618   1.839   6.298   2.634
    1STR    O1010619   1.727   6.267   2.598
    1STR    C1310620   2.075   0.175   2.689
    1STR    C1410621   1.702   0.368   2.069
    1STR    C1510622   1.843   0.371   2.069
    1STR    C1610623   1.916   0.251   2.068
    1STR    C1710624   2.065   0.252   2.073
    1STR    H1B10625   2.005   0.019   1.986
    1STR    H1C10626   1.664   0.031   2.092
    1STR    H1D10627   1.469   0.136   2.061
    1STR    H1E10628   1.461   0.241   2.421
    1STR    H1F10629   1.250   0.023   2.405
    1STR    H1G10630   1.329   0.068   2.556
    1STR    H1H10631   1.230   0.187   2.470
    1STR    H1I10632   1.505   6.300   2.321
    1STR    H1J10633   1.548   0.010   2.482
    1STR    H1K10634   1.708   0.165   2.513
    1STR    H1M10635   1.922   0.113   2.293
    1STR    H1N10636   1.854   6.324   2.387
    1STR    H1O10637   1.948   0.108   2.460
    1STR    H1P10638   1.843   0.325   2.305
    1STR    H1Q10639   1.669   0.335   2.308
    1STR    H1R10640   1.857   0.569   2.490
    1STR    H1S10641   1.917   0.475   2.722
    1STR    H1T10642   1.811   0.341   2.682
    1STR    H1U10643   1.743   0.501   2.687
    1STR    H1V10644   2.028   0.437   2.374
    1STR    H1W10645   2.003   0.302   2.480
    1STR    H1X10646   2.343   0.293   2.671
    1STR    H1Y10647   2.176   0.419   2.908
    1STR    H1Z10648   1.969   0.344   3.025
    1STR    H2010649   1.709   0.196   2.856
    1STR    H2110650   1.779   0.053   2.914
    1STR    H2210651   1.783   0.192   3.021
    1STR    H2310652   1.763   0.120   2.695
    1STR    H2710653   2.103   0.128   2.596
    1STR    H2810654   1.645   0.459   2.069
    1STR    H2910655   1.896   0.464   2.071
    1STR    H2A10656   2.102   0.198   2.160
    1STR    H2B10657   2.104   0.354   2.072
    1STR    H2C10658   2.095   0.198   1.985
    1STR   BCK110659   1.697   0.338   3.713
    1STR    O0310660   1.703   0.247   3.795
    1STR    N0410661   1.624   0.330   3.602
    1STR    C0510662   1.531   0.235   3.571
    1STR    C0610663   1.553   0.097   3.583
    1STR    C0710664   1.451   0.002   3.566
    1STR    N0810665   1.487   6.211   3.583
    1STR    C0910666   1.428   6.129   3.666
    1STR    O0A10667   1.310   6.121   3.696
    1STR    O0B10668   1.522   6.081   3.735
    1STR    C0C10669   1.538   6.144   3.860
    1STR    C0D10670   1.668   6.082   3.905
    1STR    C0E10671   1.537   6.299   3.858
    1STR    O0F10672   1.406   0.010   3.819
    1STR    C0G10673   1.380   0.150   3.840
    1STR    C0H10674   1.243   0.205   3.796
    1STR    C0I10675   1.367   0.155   3.981
    1STR    O0J10676   1.467   0.227   4.048
    1STR    C0K10677   1.451   0.362   4.077
    1STR    C0M10678   1.546   0.434   3.986
    1STR    C0N10679   1.308   0.419   4.076
    1STR    O0O10680   1.211   0.324   4.116
    1STR    C0P10681   1.181   0.309   4.239
    1STR    O0Q10682   1.152   0.405   4.309
    1STR    N0R10683   1.191   0.184   4.285
    1STR    C0S10684   1.245   0.067   4.232
    1STR    C0T10685   1.164   6.308   4.172
    1STR    C0U10686   1.221   6.187   4.129
    1STR    C0V10687   1.360   6.165   4.142
    1STR    C0W10688   1.412   6.024   4.138
    1STR    C0X10689   1.444   6.269   4.183
    1STR    N0Y10690   1.583   6.251   4.172
    1STR   BCK210691   1.685   6.338   4.165
    1STR    O1010692   1.672   0.120   4.167
    1STR    C1310693   1.384   0.047   4.236
    1STR    C1410694   1.320   0.049   3.548
    1STR    C1510695   1.303   0.186   3.525
    1STR    C1610696   1.406   0.278   3.529
    1STR    C1710697   1.376   0.423   3.513
    1STR    H1B10698   1.641   0.401   3.533
    1STR    H1C10699   1.648   0.059   3.610
    1STR    H1D10700   1.583   6.186   3.575
    1STR    H1E10701   1.451   6.112   3.916
    1STR    H1F10702   1.749   6.110   3.838
    1STR    H1G10703   1.693   6.116   4.003
    1STR    H1H10704   1.659   5.974   3.907
    1STR    H1I10705   1.618   6.336   3.798
    1STR    H1J10706   1.567   6.340   3.952
    1STR    H1K10707   1.463   0.212   3.810
    1STR    H1M10708   1.187   0.129   3.743
    1STR    H1N10709   1.260   0.294   3.737
    1STR    H1O10710   1.174   0.244   3.871
    1STR    H1P10711   1.267   0.149   4.015
    1STR    H1Q10712   1.379   0.055   4.009
    1STR    H1R10713   1.498   0.367   4.174
    1STR    H1S10714   1.644   0.385   3.992
    1STR    H1T10715   1.558   0.538   4.015
    1STR    H1U10716   1.512   0.428   3.883
    1STR    H1V10717   1.281   0.445   3.974
    1STR    H1W10718   1.302   0.509   4.137
    1STR    H1X10719   1.154   0.171   4.379
    1STR    H1Y10720   1.058   6.321   4.164
    1STR    H1Z10721   1.157   6.106   4.098
    1STR    H2010722   1.514   6.015   4.103
    1STR    H2110723   1.412   5.990   4.241
    1STR    H2210724   1.347   5.960   4.078
    1STR    H2310725   1.607   6.153   4.183
    1STR    H2710726   1.443   0.131   4.267
    1STR    H2810727   1.237   6.321   3.554
    1STR    H2910728   1.207   0.232   3.526
    1STR    H2A10729   1.390   0.472   3.609
    1STR    H2B10730   1.275   0.437   3.476
    1STR    H2C10731   1.446   0.460   3.439
    1STR   BCK110732   1.559   0.026   5.265
    1STR    O0310733   1.443   0.039   5.300
    1STR    N0410734   1.597   6.251   5.208
    1STR    C0510735   1.697   6.166   5.255
    1STR    C0610736   1.813   6.227   5.294
    1STR    C0710737   1.914   6.165   5.363
    1STR    N0810738   2.025   6.238   5.400
    1STR    C0910739   2.045   0.030   5.400
    1STR    O0A10740   2.160   0.071   5.397
    1STR    O0B10741   1.936   0.112   5.394
    1STR    C0C10742   1.854   0.153   5.504
    1STR    C0D10743   1.877   0.304   5.519
    1STR    C0E10744   1.701   0.117   5.519
    1STR    O0F10745   1.674   6.321   5.497
    1STR    C0G10746   1.551   6.270   5.547
    1STR    C0H10747   1.505   6.146   5.471
    1STR    C0I10748   1.602   6.222   5.675
    1STR    O0J10749   1.505   6.172   5.758
    1STR    C0K10750   1.454   6.043   5.746
    1STR    C0M10751   1.304   6.062   5.714
    1STR    C0N10752   1.524   5.920   5.680
    1STR    O0O10753   1.665   5.921   5.656
    1STR    C0P10754   1.748   5.941   5.755
    1STR    O0Q10755   1.716   5.945   5.872
    1STR    N0R10756   1.867   5.974   5.708
    1STR    C0S10757   1.941   6.088   5.740
    1STR    C0T10758   2.069   6.103   5.687
    1STR    C0U10759   2.128   6.230   5.681
    1STR    C0V10760   2.057   0.005   5.721
    1STR    C0W10761   2.122   0.139   5.696
    1STR    C0X10762   1.929   6.331   5.781
    1STR    N0Y10763   1.837   0.093   5.804
    1STR   BCK210764   1.829   0.226   5.807
    1STR    O1010765   1.715   0.269   5.799
    1STR    C1310766   1.878   6.200   5.796
    1STR    C1410767   1.904   6.026   5.383
    1STR    C1510768   1.791   5.957   5.334
    1STR    C1610769   1.687   6.026   5.268
    1STR    C1710770   1.566   5.951   5.220
    1STR    H1B10771   1.548   6.232   5.121
    1STR    H1C10772   1.821   6.328   5.266
    1STR    H1D10773   2.108   6.189   5.425
    1STR    H1E10774   1.899   0.099   5.579
    1STR    H1F10775   1.869   0.357   5.426
    1STR    H1G10776   1.805   0.350   5.587
    1STR    H1H10777   1.977   0.324   5.556
    1STR    H1I10778   1.634   0.179   5.461
    1STR    H1J10779   1.666   0.141   5.618
    1STR    H1K10780   1.472   0.005   5.556
    1STR    H1M10781   1.585   6.074   5.473
    1STR    H1N10782   1.465   6.160   5.374
    1STR    H1O10783   1.423   6.091   5.507
    1STR    H1P10784   1.683   6.155   5.652
    1STR    H1Q10785   1.642   6.305   5.730
    1STR    H1R10786   1.468   6.025   5.851
    1STR    H1S10787   1.262   6.133   5.781
    1STR    H1T10788   1.249   5.969   5.719
    1STR    H1U10789   1.276   6.112   5.623
    1STR    H1V10790   1.479   5.898   5.584
    1STR    H1W10791   1.505   5.833   5.743
    1STR    H1X10792   1.879   5.940   5.614
    1STR    H1Y10793   2.121   6.017   5.646
    1STR    H1Z10794   2.227   6.243   5.640
    1STR    H2010795   2.083   0.219   5.755
    1STR    H2110796   2.228   0.134   5.717
    1STR    H2210797   2.115   0.173   5.595
    1STR    H2310798   1.745   0.055   5.822
    1STR    H2710799   1.782   6.185   5.841
    1STR    H2810800   1.983   5.972   5.432
    1STR    H2910801   1.784   5.850   5.344
    1STR    H2A10802   1.539   5.876   5.293
    1STR    H2B10803   1.587   5.902   5.124
    1STR    H2C10804   1.481   6.017   5.207
    1STR   BCK110805   1.761   1.664   0.471
    1STR    O0310806   1.674   1.609   0.537
    1STR    N0410807   1.748   1.769   0.389
    1STR    C0510808   1.631   1.841   0.365
    1STR    C0610809   1.509   1.775   0.378
    1STR    C0710810   1.389   1.843   0.396
    1STR    N0810811   1.282   1.766   0.433
    1STR    C0910812   1.210   1.782   0.543
    1STR    O0A10813   1.179   1.891   0.592
    1STR    O0B10814   1.203   1.664   0.605
    1STR    C0C10815   1.279   1.650   0.724
    1STR    C0D10816   1.266   1.511   0.782
    1STR    C0E10817   1.425   1.679   0.694
    1STR    O0F10818   1.433   1.821   0.698
    1STR    C0G10819   1.561   1.874   0.684
    1STR    C0H10820   1.551   2.023   0.658
    1STR    C0I10821   1.635   1.838   0.807
    1STR    O0J10822   1.744   1.759   0.780
    1STR    C0K10823   1.863   1.818   0.827
    1STR    C0M10824   1.957   1.706   0.797
    1STR    C0N10825   1.902   1.945   0.752
    1STR    O0O10826   1.834   2.057   0.808
    1STR    C0P10827   1.896   2.139   0.892
    1STR    O0Q10828   2.015   2.168   0.887
    1STR    N0R10829   1.817   2.185   0.989
    1STR    C0S10830   1.704   2.116   1.026
    1STR    C0T10831   1.579   2.145   0.970
    1STR    C0U10832   1.473   2.052   0.981
    1STR    C0V10833   1.495   1.930   1.045
    1STR    C0W10834   1.383   1.831   1.041
    1STR    C0X10835   1.622   1.898   1.100
    1STR    N0Y10836   1.661   1.766   1.118
    1STR   BCK210837   1.773   1.727   1.177
    1STR    O1010838   1.832   1.795   1.260
    1STR    C1310839   1.723   1.997   1.096
    1STR    C1410840   1.386   1.982   0.386
    1STR    C1510841   1.504   2.051   0.357
    1STR    C1610842   1.627   1.982   0.355
    1STR    C1710843   1.750   2.066   0.356
    1STR    H1B10844   1.834   1.806   0.352
    1STR    H1C10845   1.510   1.670   0.393
    1STR    H1D10846   1.287   1.675   0.388
    1STR    H1E10847   1.240   1.724   0.793
    1STR    H1F10848   1.299   1.435   0.713
    1STR    H1G10849   1.328   1.503   0.871
    1STR    H1H10850   1.162   1.494   0.811
    1STR    H1I10851   1.452   1.638   0.598
    1STR    H1J10852   1.492   1.630   0.765
    1STR    H1K10853   1.616   1.830   0.603
    1STR    H1M10854   1.458   2.047   0.610
    1STR    H1N10855   1.637   2.058   0.602
    1STR    H1O10856   1.550   2.083   0.745
    1STR    H1P10857   1.659   1.929   0.856
    1STR    H1Q10858   1.572   1.782   0.874
    1STR    H1R10859   1.858   1.839   0.934
    1STR    H1S10860   2.051   1.711   0.848
    1STR    H1T10861   1.976   1.713   0.692
    1STR    H1U10862   1.909   1.611   0.817
    1STR    H1V10863   1.875   1.935   0.648
    1STR    H1W10864   2.010   1.958   0.760
    1STR    H1X10865   1.865   2.242   1.057
    1STR    H1Y10866   1.563   2.236   0.913
    1STR    H1Z10867   1.376   2.072   0.938
    1STR    H2010868   1.359   1.805   0.939
    1STR    H2110869   1.414   1.743   1.090
    1STR    H2210870   1.293   1.871   1.088
    1STR    H2310871   1.614   1.696   1.063
    1STR    H2710872   1.824   1.976   1.125
    1STR    H2810873   1.295   2.035   0.409
    1STR    H2910874   1.499   2.158   0.350
    1STR    H2A10875   1.835   2.011   0.397
    1STR    H2B10876   1.735   2.154   0.418
    1STR    H2C10877   1.768   2.099   0.255
    1STR   BCK110878   1.572   1.643   1.934
    1STR    O0310879   1.677   1.582   1.930
    1STR    N0410880   1.452   1.589   1.955
    1STR    C0510881   1.402   1.460   1.960
    1STR    C0610882   1.352   1.417   2.080
    1STR    C0710883   1.350   1.281   2.112
    1STR    N0810884   1.460   1.240   2.182
    1STR    C0910885   1.573   1.233   2.110
    1STR    O0A10886   1.622   1.124   2.081
    1STR    O0B10887   1.625   1.355   2.068
    1STR    C0C10888   1.682   1.450   2.159
    1STR    C0D10889   1.829   1.426   2.168
    1STR    C0E10890   1.638   1.587   2.221
    1STR    O0F10891   1.506   1.637   2.204
    1STR    C0G10892   1.426   1.666   2.317
    1STR    C0H10893   1.318   1.763   2.278
    1STR    C0I10894   1.357   1.540   2.369
    1STR    O0J10895   1.449   1.434   2.347
    1STR    C0K10896   1.526   1.380   2.450
    1STR    C0M10897   1.665   1.322   2.423
    1STR    C0N10898   1.523   1.473   2.567
    1STR    O0O10899   1.398   1.464   2.631
    1STR    C0P10900   1.310   1.362   2.615
    1STR    O0Q10901   1.195   1.379   2.578
    1STR    N0R10902   1.349   1.242   2.657
    1STR    C0S10903   1.476   1.186   2.665
    1STR    C0T10904   1.491   1.075   2.581
    1STR    C0U10905   1.615   1.011   2.567
    1STR    C0V10906   1.728   1.067   2.628
    1STR    C0W10907   1.863   1.008   2.600
    1STR    C0X10908   1.718   1.186   2.702
    1STR    N0Y10909   1.839   1.250   2.723
    1STR   BCK210910   1.891   1.354   2.656
    1STR    O1010911   1.830   1.452   2.614
    1STR    C1310912   1.591   1.240   2.729
    1STR    C1410913   1.314   1.194   2.010
    1STR    C1510914   1.332   1.243   1.882
    1STR    C1610915   1.393   1.365   1.858
    1STR    C1710916   1.440   1.394   1.724
    1STR    H1B10917   1.396   1.654   2.009
    1STR    H1C10918   1.351   1.495   2.147
    1STR    H1D10919   1.467   1.314   2.253
    1STR    H1E10920   1.629   1.405   2.230
    1STR    H1F10921   1.862   1.469   2.077
    1STR    H1G10922   1.877   1.477   2.251
    1STR    H1H10923   1.852   1.319   2.170
    1STR    H1I10924   1.704   1.661   2.183
    1STR    H1J10925   1.663   1.588   2.327
    1STR    H1K10926   1.489   1.713   2.392
    1STR    H1M10927   1.230   1.707   2.249
    1STR    H1N10928   1.348   1.827   2.196
    1STR    H1O10929   1.286   1.820   2.364
    1STR    H1P10930   1.313   1.565   2.463
    1STR    H1Q10931   1.265   1.508   2.319
    1STR    H1R10932   1.470   1.288   2.454
    1STR    H1S10933   1.710   1.274   2.501
    1STR    H1T10934   1.739   1.399   2.404
    1STR    H1U10935   1.667   1.243   2.349
    1STR    H1V10936   1.547   1.575   2.541
    1STR    H1W10937   1.603   1.451   2.632
    1STR    H1X10938   1.269   1.181   2.660
    1STR    H1Y10939   1.406   1.038   2.526
    1STR    H1Z10940   1.622   0.924   2.504
    1STR    H2010941   1.910   1.070   2.524
    1STR    H2110942   1.923   1.009   2.690
    1STR    H2210943   1.852   0.906   2.564
    1STR    H2310944   1.906   1.195   2.774
    1STR    H2710945   1.584   1.325   2.794
    1STR    H2810946   1.297   1.089   2.026
    1STR    H2910947   1.305   1.179   1.802
    1STR    H2A10948   1.470   1.492   1.741
    1STR    H2B10949   1.362   1.385   1.649
    1STR    H2C10950   1.529   1.341   1.701
    1STR   BCK110951   1.643   1.289   3.782
    1STR    O0310952   1.665   1.287   3.901
    1STR    N0410953   1.744   1.312   3.697
    1STR    C0510954   1.818   1.427   3.676
    1STR    C0610955   1.758   1.552   3.689
    1STR    C0710956   1.824   1.670   3.661
    1STR    N0810957   1.752   1.784   3.688
    1STR    C0910958   1.770   1.866   3.788
    1STR    O0A10959   1.871   1.929   3.817
    1STR    O0B10960   1.664   1.851   3.857
    1STR    C0C10961   1.668   1.859   3.995
    1STR    C0D10962   1.531   1.929   4.011
    1STR    C0E10963   1.687   1.716   4.056
    1STR    O0F10964   1.756   1.622   3.975
    1STR    C0G10965   1.892   1.596   4.012
    1STR    C0H10966   1.928   1.453   3.978
    1STR    C0I10967   1.978   1.698   3.948
    1STR    O0J10968   2.108   1.664   3.905
    1STR    C0K10969   2.213   1.697   3.991
    1STR    C0M10970   2.174   1.797   4.101
    1STR    C0N10971   2.259   1.560   4.038
    1STR    O0O10972   2.370   1.570   4.125
    1STR    C0P10973   2.366   1.490   4.229
    1STR    O0Q10974   2.338   1.370   4.225
    1STR    N0R10975   2.350   1.566   4.336
    1STR    C0S10976   2.224   1.617   4.360
    1STR    C0T10977   2.214   1.750   4.404
    1STR    C0U10978   2.089   1.806   4.430
    1STR    C0V10979   1.975   1.730   4.404
    1STR    C0W10980   1.844   1.787   4.436
    1STR    C0X10981   1.981   1.601   4.353
    1STR    N0Y10982   1.861   1.538   4.328
    1STR   BCK210983   1.840   1.426   4.264
    1STR    O1010984   1.737   1.421   4.200
    1STR    C1310985   2.107   1.544   4.329
    1STR    C1410986   1.962   1.664   3.633
    1STR    C1510987   2.026   1.542   3.617
    1STR    C1610988   1.953   1.423   3.635
    1STR    C1710989   2.026   1.293   3.632
    1STR    H1B10990   1.743   1.257   3.610
    1STR    H1C10991   1.662   1.557   3.732
    1STR    H1D10992   1.653   1.781   3.668
    1STR    H1E10993   1.749   1.924   4.028
    1STR    H1F10994   1.449   1.881   3.958
    1STR    H1G10995   1.495   1.942   4.110
    1STR    H1H10996   1.539   2.028   3.967
    1STR    H1I10997   1.592   1.671   4.084
    1STR    H1J10998   1.742   1.722   4.149
    1STR    H1K10999   1.911   1.613   4.115
    1STR    H1M11000   1.952   1.442   3.875
    1STR    H1N11001   1.847   1.386   3.999
    1STR    H1O11002   2.011   1.414   4.033
    1STR    H1P11003   1.933   1.705   3.857
    1STR    H1Q11004   1.962   1.797   3.989
    1STR    H1R11005   2.291   1.741   3.930
    1STR    H1S11006   2.259   1.820   4.165
    1STR    H1T11007   2.093   1.759   4.163
    1STR    H1U11008   2.139   1.891   4.059
    1STR    H1V11009   2.283   1.494   3.954
    1STR    H1W11010   2.176   1.513   4.088
    1STR    H1X11011   2.421   1.637   4.339
    1STR    H1Y11012   2.301   1.809   4.425
    1STR    H1Z11013   2.079   1.903   4.476
    1STR    H2011014   1.796   1.796   4.341
    1STR    H2111015   1.788   1.722   4.503
    1STR    H2211016   1.857   1.883   4.483
    1STR    H2311017   1.778   1.595   4.335
    1STR    H2711018   2.113   1.444   4.290
    1STR    H2811019   2.022   1.753   3.642
    1STR    H2911020   2.131   1.541   3.597
    1STR    H2A11021   2.000   1.240   3.723
    1STR    H2B11022   2.133   1.312   3.630
    1STR    H2C11023   1.997   1.235   3.546
    1STR   BCK111024   1.685   1.651   5.382
    1STR    O0311025   1.615   1.563   5.431
    1STR    N0411026   1.644   1.730   5.283
    1STR    C0511027   1.519   1.755   5.232
    1STR    C0611028   1.422   1.656   5.228
    1STR    C0711029   1.287   1.696   5.223
    1STR    N0811030   1.199   1.601   5.268
    1STR    C0911031   1.085   1.622   5.331
    1STR    O0A11032   0.994   1.693   5.289
    1STR    O0B11033   1.084   1.557   5.448
    1STR    C0C11034   1.205   1.530   5.522
    1STR    C0D11035   1.278   1.403   5.473
    1STR    C0E11036   1.301   1.651   5.530
    1STR    O0F11037   1.232   1.770   5.562
    1STR    C0G11038   1.286   1.883   5.497
    1STR    C0H11039   1.169   1.973   5.461
    1STR    C0I11040   1.390   1.956   5.574
    1STR    O0J11041   1.514   1.887   5.566
    1STR    C0K11042   1.630   1.960   5.606
    1STR    C0M11043   1.725   1.974   5.490
    1STR    C0N11044   1.614   2.095   5.676
    1STR    O0O11045   1.498   2.117   5.754
    1STR    C0P11046   1.487   2.074   5.878
    1STR    O0Q11047   1.426   2.140   5.960
    1STR    N0R11048   1.551   1.961   5.908
    1STR    C0S11049   1.522   1.834   5.863
    1STR    C0T11050   1.389   1.794   5.852
    1STR    C0U11051   1.361   1.663   5.812
    1STR    C0V11052   1.463   1.569   5.790
    1STR    C0W11053   1.429   1.427   5.747
    1STR    C0X11054   1.596   1.611   5.796
    1STR    N0Y11055   1.687   1.514   5.761
    1STR   BCK211056   1.813   1.521   5.723
    1STR    O1011057   1.884   1.619   5.740
    1STR    C1311058   1.626   1.742   5.836
    1STR    C1411059   1.252   1.830   5.199
    1STR    C1511060   1.353   1.923   5.169
    1STR    C1611061   1.486   1.883   5.185
    1STR    C1711062   1.594   1.973   5.143
    1STR    H1B11063   1.718   1.762   5.220
    1STR    H1C11064   1.450   1.555   5.253
    1STR    H1D11065   1.247   1.523   5.307
    1STR    H1E11066   1.168   1.516   5.623
    1STR    H1F11067   1.257   1.376   5.370
    1STR    H1G11068   1.387   1.416   5.478
    1STR    H1H11069   1.250   1.318   5.535
    1STR    H1I11070   1.363   1.660   5.446
    1STR    H1J11071   1.392   1.639   5.584
    1STR    H1K11072   1.344   1.859   5.411
    1STR    H1M11073   1.095   1.917   5.405
    1STR    H1N11074   1.204   2.057   5.401
    1STR    H1O11075   1.122   2.010   5.552
    1STR    H1P11076   1.402   2.055   5.531
    1STR    H1Q11077   1.350   1.964   5.674
    1STR    H1R11078   1.687   1.897   5.671
    1STR    H1S11079   1.760   1.876   5.461
    1STR    H1T11080   1.812   2.032   5.518
    1STR    H1U11081   1.673   2.022   5.409
    1STR    H1V11082   1.613   2.174   5.602
    1STR    H1W11083   1.701   2.109   5.739
    1STR    H1X11084   1.593   1.960   6.003
    1STR    H1Y11085   1.307   1.861   5.872
    1STR    H1Z11086   1.259   1.638   5.795
    1STR    H2011087   1.438   1.355   5.826
    1STR    H2111088   1.326   1.421   5.719
    1STR    H2211089   1.490   1.395   5.662
    1STR    H2311090   1.647   1.422   5.758
    1STR    H2711091   1.727   1.775   5.844
    1STR    H2811092   1.148   1.859   5.196
    1STR    H2911093   1.329   2.022   5.137
    1STR    H2A11094   1.677   1.974   5.212
    1STR    H2B11095   1.558   2.074   5.125
    1STR    H2C11096   1.628   1.929   5.049
    1STR   BCK111097   1.653   3.097   0.472
    1STR    O0311098   1.766   3.140   0.462
    1STR    N0411099   1.619   2.980   0.417
    1STR    C0511100   1.686   2.860   0.434
    1STR    C0611101   1.815   2.858   0.485
    1STR    C0711102   1.856   2.759   0.575
    1STR    N0811103   1.954   2.795   0.664
    1STR    C0911104   2.057   2.864   0.617
    1STR    O0A11105   2.131   2.818   0.531
    1STR    O0B11106   2.060   2.995   0.652
    1STR    C0C11107   1.987   3.054   0.758
    1STR    C0D11108   2.065   3.181   0.787
    1STR    C0E11109   1.843   3.101   0.735
    1STR    O0F11110   1.758   2.992   0.704
    1STR    C0G11111   1.625   3.006   0.746
    1STR    C0H11112   1.528   2.907   0.683
    1STR    C0I11113   1.631   2.964   0.882
    1STR    O0J11114   1.552   3.052   0.958
    1STR    C0K11115   1.416   3.082   0.933
    1STR    C0M11116   1.400   3.216   0.862
    1STR    C0N11117   1.314   2.978   0.886
    1STR    O0O11118   1.318   2.840   0.924
    1STR    C0P11119   1.403   2.770   1.002
    1STR    O0Q11120   1.397   2.648   0.999
    1STR    N0R11121   1.489   2.839   1.079
    1STR    C0S11122   1.615   2.800   1.127
    1STR    C0T11123   1.657   2.667   1.124
    1STR    C0U11124   1.787   2.629   1.160
    1STR    C0V11125   1.882   2.728   1.185
    1STR    C0W11126   2.026   2.689   1.205
    1STR    C0X11127   1.845   2.862   1.180
    1STR    N0Y11128   1.945   2.956   1.189
    1STR   BCK211129   1.970   3.052   1.104
    1STR    O1011130   1.888   3.084   1.021
    1STR    C1311131   1.711   2.897   1.157
    1STR    C1411132   1.773   2.649   0.596
    1STR    C1511133   1.653   2.637   0.523
    1STR    C1611134   1.608   2.744   0.443
    1STR    C1711135   1.472   2.740   0.381
    1STR    H1B11136   1.528   2.970   0.374
    1STR    H1C11137   1.875   2.947   0.478
    1STR    H1D11138   1.908   2.836   0.744
    1STR    H1E11139   1.992   2.985   0.841
    1STR    H1F11140   2.084   3.238   0.697
    1STR    H1G11141   2.003   3.244   0.847
    1STR    H1H11142   2.158   3.159   0.838
    1STR    H1I11143   1.841   3.181   0.663
    1STR    H1J11144   1.802   3.153   0.821
    1STR    H1K11145   1.596   3.109   0.745
    1STR    H1M11146   1.589   2.823   0.663
    1STR    H1N11147   1.471   2.945   0.599
    1STR    H1O11148   1.459   2.854   0.744
    1STR    H1P11149   1.615   2.857   0.886
    1STR    H1Q11150   1.731   2.967   0.920
    1STR    H1R11151   1.388   3.101   1.033
    1STR    H1S11152   1.308   3.265   0.893
    1STR    H1T11153   1.395   3.202   0.755
    1STR    H1U11154   1.484   3.282   0.882
    1STR    H1V11155   1.307   2.982   0.779
    1STR    H1W11156   1.215   3.013   0.907
    1STR    H1X11157   1.485   2.939   1.062
    1STR    H1Y11158   1.590   2.590   1.095
    1STR    H1Z11159   1.812   2.525   1.164
    1STR    H2011160   2.074   2.689   1.107
    1STR    H2111161   2.077   2.759   1.269
    1STR    H2211162   2.030   2.590   1.250
    1STR    H2311163   1.998   2.957   1.275
    1STR    H2711164   1.689   3.003   1.151
    1STR    H2811165   1.801   2.573   0.667
    1STR    H2911166   1.590   2.551   0.539
    1STR    H2A11167   1.480   2.764   0.275
    1STR    H2B11168   1.405   2.811   0.428
    1STR    H2C11169   1.432   2.640   0.390
    1STR   BCK111170   1.814   3.217   2.030
    1STR    O0311171   1.723   3.139   2.055
    1STR    N0411172   1.802   3.349   2.022
    1STR    C0511173   1.692   3.436   2.017
    1STR    C0611174   1.565   3.384   1.990
    1STR    C0711175   1.453   3.467   1.989
    1STR    N0811176   1.332   3.408   1.995
    1STR    C0911177   1.302   3.384   2.121
    1STR    O0A11178   1.232   3.457   2.190
    1STR    O0B11179   1.373   3.280   2.160
    1STR    C0C11180   1.417   3.274   2.292
    1STR    C0D11181   1.323   3.175   2.359
    1STR    C0E11182   1.563   3.234   2.299
    1STR    O0F11183   1.650   3.338   2.267
    1STR    C0G11184   1.764   3.356   2.351
    1STR    C0H11185   1.874   3.251   2.335
    1STR    C0I11186   1.815   3.487   2.297
    1STR    O0J11187   1.914   3.568   2.355
    1STR    C0K11188   1.885   3.615   2.482
    1STR    C0M11189   1.735   3.654   2.495
    1STR    C0N11190   1.951   3.505   2.565
    1STR    O0O11191   1.991   3.556   2.689
    1STR    C0P11192   2.020   3.475   2.790
    1STR    O0Q11193   2.129   3.474   2.842
    1STR    N0R11194   1.922   3.395   2.835
    1STR    C0S11195   1.793   3.384   2.786
    1STR    C0T11196   1.725   3.500   2.756
    1STR    C0U11197   1.597   3.502   2.703
    1STR    C0V11198   1.540   3.383   2.661
    1STR    C0W11199   1.398   3.392   2.613
    1STR    C0X11200   1.617   3.265   2.669
    1STR    N0Y11201   1.565   3.151   2.612
    1STR   BCK211202   1.624   3.051   2.548
    1STR    O1011203   1.557   2.966   2.492
    1STR    C1311204   1.738   3.263   2.743
    1STR    C1411205   1.464   3.605   2.009
    1STR    C1511206   1.590   3.661   2.028
    1STR    C1611207   1.703   3.579   2.034
    1STR    C1711208   1.832   3.655   2.061
    1STR    H1B11209   1.894   3.390   2.011
    1STR    H1C11210   1.552   3.277   1.979
    1STR    H1D11211   1.343   3.320   1.946
    1STR    H1E11212   1.411   3.373   2.337
    1STR    H1F11213   1.317   3.084   2.298
    1STR    H1G11214   1.358   3.143   2.456
    1STR    H1H11215   1.224   3.219   2.368
    1STR    H1I11216   1.587   3.138   2.253
    1STR    H1J11217   1.579   3.226   2.401
    1STR    H1K11218   1.730   3.363   2.453
    1STR    H1M11219   1.948   3.278   2.261
    1STR    H1N11220   1.833   3.154   2.305
    1STR    H1O11221   1.932   3.241   2.426
    1STR    H1P11222   1.868   3.462   2.209
    1STR    H1Q11223   1.728   3.548   2.272
    1STR    H1R11224   1.943   3.706   2.496
    1STR    H1S11225   1.713   3.705   2.588
    1STR    H1T11226   1.668   3.569   2.484
    1STR    H1U11227   1.703   3.720   2.415
    1STR    H1V11228   2.043   3.472   2.517
    1STR    H1W11229   1.893   3.414   2.569
    1STR    H1X11230   1.942   3.373   2.934
    1STR    H1Y11231   1.779   3.590   2.766
    1STR    H1Z11232   1.544   3.595   2.692
    1STR    H2011233   1.351   3.297   2.592
    1STR    H2111234   1.338   3.437   2.692
    1STR    H2211235   1.393   3.457   2.527
    1STR    H2311236   1.465   3.147   2.603
    1STR    H2711237   1.790   3.172   2.763
    1STR    H2811238   1.375   3.666   2.009
    1STR    H2911239   1.600   3.767   2.038
    1STR    H2A11240   1.920   3.593   2.064
    1STR    H2B11241   1.826   3.708   2.156
    1STR    H2C11242   1.846   3.730   1.986
    1STR   BCK111243   1.554   3.225   3.598
    1STR    O0311244   1.653   3.155   3.614
    1STR    N0411245   1.426   3.183   3.610
    1STR    C0511246   1.352   3.063   3.612
    1STR    C0611247   1.244   3.042   3.701
    1STR    C0711248   1.189   2.913   3.714
    1STR    N0811249   1.169   2.864   3.840
    1STR    C0911250   1.280   2.823   3.902
    1STR    O0A11251   1.276   2.759   4.006
    1STR    O0B11252   1.395   2.856   3.834
    1STR    C0C11253   1.497   2.929   3.897
    1STR    C0D11254   1.631   2.874   3.852
    1STR    C0E11255   1.494   3.083   3.885
    1STR    O0F11256   1.377   3.166   3.909
    1STR    C0G11257   1.385   3.299   3.853
    1STR    C0H11258   1.267   3.350   3.766
    1STR    C0I11259   1.392   3.410   3.945
    1STR    O0J11260   1.520   3.428   3.999
    1STR    C0K11261   1.531   3.550   4.068
    1STR    C0M11262   1.550   3.660   3.965
    1STR    C0N11263   1.419   3.579   4.170
    1STR    O0O11264   1.284   3.565   4.128
    1STR    C0P11265   1.193   3.495   4.197
    1STR    O0Q11266   1.089   3.548   4.232
    1STR    N0R11267   1.216   3.369   4.237
    1STR    C0S11268   1.296   3.261   4.201
    1STR    C0T11269   1.230   3.145   4.160
    1STR    C0U11270   1.301   3.026   4.149
    1STR    C0V11271   1.438   3.022   4.179
    1STR    C0W11272   1.509   2.890   4.217
    1STR    C0X11273   1.508   3.142   4.170
    1STR    N0Y11274   1.643   3.137   4.145
    1STR   BCK211275   1.734   3.231   4.123
    1STR    O1011276   1.728   3.344   4.170
    1STR    C1311277   1.436   3.259   4.195
    1STR    C1411278   1.209   2.818   3.616
    1STR    C1511279   1.289   2.852   3.509
    1STR    C1611280   1.375   2.961   3.523
    1STR    C1711281   1.492   2.968   3.441
    1STR    H1B11282   1.368   3.258   3.641
    1STR    H1C11283   1.214   3.111   3.777
    1STR    H1D11284   1.079   2.842   3.876
    1STR    H1E11285   1.486   2.894   3.994
    1STR    H1F11286   1.646   2.892   3.746
    1STR    H1G11287   1.711   2.922   3.908
    1STR    H1H11288   1.633   2.767   3.872
    1STR    H1I11289   1.527   3.086   3.787
    1STR    H1J11290   1.581   3.132   3.926
    1STR    H1K11291   1.484   3.307   3.815
    1STR    H1M11292   1.178   3.356   3.828
    1STR    H1N11293   1.239   3.293   3.679
    1STR    H1O11294   1.286   3.447   3.722
    1STR    H1P11295   1.360   3.504   3.902
    1STR    H1Q11296   1.312   3.382   4.008
    1STR    H1R11297   1.623   3.546   4.124
    1STR    H1S11298   1.624   3.627   3.893
    1STR    H1T11299   1.586   3.750   4.015
    1STR    H1U11300   1.458   3.685   3.913
    1STR    H1V11301   1.429   3.683   4.196
    1STR    H1W11302   1.438   3.521   4.259
    1STR    H1X11303   1.143   3.336   4.299
    1STR    H1Y11304   1.125   3.142   4.143
    1STR    H1Z11305   1.243   2.936   4.142
    1STR    H2011306   1.605   2.878   4.166
    1STR    H2111307   1.532   2.885   4.323
    1STR    H2211308   1.446   2.805   4.193
    1STR    H2311309   1.678   3.042   4.143
    1STR    H2711310   1.496   3.344   4.212
    1STR    H2811311   1.168   2.718   3.623
    1STR    H2911312   1.294   2.786   3.425
    1STR    H2A11313   1.518   3.067   3.430
    1STR    H2B11314   1.464   2.937   3.342
    1STR    H2C11315   1.577   2.921   3.490
    1STR   BCK111316   1.449   2.957   5.303
    1STR    O0311317   1.389   2.850   5.300
    1STR    N0411318   1.548   2.970   5.216
    1STR    C0511319   1.684   2.957   5.242
    1STR    C0611320   1.747   3.075   5.272
    1STR    C0711321   1.883   3.090   5.290
    1STR    N0811322   1.928   3.202   5.357
    1STR    C0911323   1.867   3.316   5.334
    1STR    O0A11324   1.909   3.382   5.242
    1STR    O0B11325   1.747   3.340   5.399
    1STR    C0C11326   1.710   3.297   5.531
    1STR    C0D11327   1.641   3.423   5.580
    1STR    C0E11328   1.614   3.173   5.557
    1STR    O0F11329   1.654   3.048   5.500
    1STR    C0G11330   1.663   2.931   5.577
    1STR    C0H11331   1.532   2.856   5.564
    1STR    C0I11332   1.779   2.826   5.556
    1STR    O0J11333   1.911   2.849   5.506
    1STR    C0K11334   2.010   2.938   5.557
    1STR    C0M11335   1.949   3.062   5.605
    1STR    C0N11336   2.119   2.884   5.648
    1STR    O0O11337   2.221   2.985   5.654
    1STR    C0P11338   2.206   3.084   5.741
    1STR    O0Q11339   2.154   3.067   5.850
    1STR    N0R11340   2.228   3.203   5.685
    1STR    C0S11341   2.164   3.323   5.718
    1STR    C0T11342   2.228   3.447   5.713
    1STR    C0U11343   2.160   3.563   5.759
    1STR    C0V11344   2.028   3.556   5.807
    1STR    C0W11345   1.963   3.673   5.877
    1STR    C0X11346   1.961   3.433   5.806
    1STR    N0Y11347   1.838   3.428   5.869
    1STR   BCK211348   1.754   3.333   5.902
    1STR    O1011349   1.640   3.371   5.901
    1STR    C1311350   2.030   3.321   5.761
    1STR    C1411351   1.965   2.982   5.262
    1STR    C1511352   1.905   2.856   5.236
    1STR    C1611353   1.764   2.843   5.227
    1STR    C1711354   1.704   2.711   5.191
    1STR    H1B11355   1.526   3.044   5.148
    1STR    H1C11356   1.682   3.156   5.293
    1STR    H1D11357   1.935   3.178   5.455
    1STR    H1E11358   1.803   3.288   5.587
    1STR    H1F11359   1.564   3.455   5.511
    1STR    H1G11360   1.594   3.406   5.676
    1STR    H1H11361   1.715   3.502   5.590
    1STR    H1I11362   1.513   3.188   5.531
    1STR    H1J11363   1.586   3.163   5.660
    1STR    H1K11364   1.666   2.976   5.673
    1STR    H1M11365   1.532   2.802   5.471
    1STR    H1N11366   1.446   2.923   5.572
    1STR    H1O11367   1.521   2.775   5.634
    1STR    H1P11368   1.785   2.759   5.640
    1STR    H1Q11369   1.742   2.761   5.477
    1STR    H1R11370   2.070   2.969   5.473
    1STR    H1S11371   2.012   3.147   5.585
    1STR    H1T11372   1.933   3.046   5.708
    1STR    H1U11373   1.857   3.084   5.559
    1STR    H1V11374   2.161   2.795   5.603
    1STR    H1W11375   2.078   2.857   5.746
    1STR    H1X11376   2.286   3.204   5.603
    1STR    H1Y11377   2.331   3.453   5.686
    1STR    H1Z11378   2.214   3.655   5.767
    1STR    H2011379   1.932   3.643   5.978
    1STR    H2111380   2.034   3.754   5.889
    1STR    H2211381   1.875   3.705   5.821
    1STR    H2311382   1.808   3.518   5.902
    1STR    H2711383   1.990   3.226   5.779
    1STR    H2811384   2.071   2.993   5.269
    1STR    H2911385   1.968   2.770   5.221
    1STR    H2A11386   1.610   2.724   5.137
    1STR    H2B11387   1.687   2.654   5.281
    1STR    H2C11388   1.776   2.660   5.128
    1STR   BCK111389   1.688   4.857   0.568
    1STR    O0311390   1.618   4.757   0.574
    1STR    N0411391   1.654   4.963   0.498
    1STR    C0511392   1.528   5.005   0.464
    1STR    C0611393   1.412   4.930   0.483
    1STR    C0711394   1.284   4.987   0.469
    1STR    N0811395   1.175   4.907   0.488
    1STR    C0911396   1.112   4.908   0.603
    1STR    O0A11397   1.059   5.006   0.654
    1STR    O0B11398   1.138   4.791   0.660
    1STR    C0C11399   1.190   4.788   0.791
    1STR    C0D11400   1.218   4.643   0.822
    1STR    C0E11401   1.320   4.869   0.803
    1STR    O0F11402   1.282   5.005   0.807
    1STR    C0G11403   1.371   5.101   0.753
    1STR    C0H11404   1.307   5.234   0.732
    1STR    C0I11405   1.511   5.110   0.803
    1STR    O0J11406   1.566   4.984   0.803
    1STR    C0K11407   1.687   4.976   0.871
    1STR    C0M11408   1.696   4.825   0.868
    1STR    C0N11409   1.794   5.071   0.809
    1STR    O0O11410   1.790   5.193   0.881
    1STR    C0P11411   1.762   5.312   0.826
    1STR    O0Q11412   1.796   5.344   0.713
    1STR    N0R11413   1.684   5.393   0.900
    1STR    C0S11414   1.608   5.351   1.009
    1STR    C0T11415   1.469   5.372   1.012
    1STR    C0U11416   1.387   5.276   1.075
    1STR    C0V11417   1.447   5.160   1.126
    1STR    C0W11418   1.372   5.033   1.107
    1STR    C0X11419   1.585   5.154   1.149
    1STR    N0Y11420   1.642   5.048   1.216
    1STR   BCK211421   1.765   5.046   1.268
    1STR    O1011422   1.787   4.980   1.366
    1STR    C1311423   1.663   5.257   1.095
    1STR    C1411424   1.273   5.122   0.434
    1STR    C1511425   1.390   5.197   0.408
    1STR    C1611426   1.517   5.138   0.422
    1STR    C1711427   1.643   5.216   0.399
    1STR    H1B11428   1.732   5.017   0.465
    1STR    H1C11429   1.417   4.830   0.519
    1STR    H1D11430   1.186   4.813   0.452
    1STR    H1E11431   1.116   4.830   0.860
    1STR    H1F11432   1.288   4.599   0.750
    1STR    H1G11433   1.264   4.638   0.919
    1STR    H1H11434   1.126   4.585   0.822
    1STR    H1I11435   1.388   4.843   0.723
    1STR    H1J11436   1.375   4.844   0.894
    1STR    H1K11437   1.395   5.069   0.658
    1STR    H1M11438   1.213   5.219   0.678
    1STR    H1N11439   1.373   5.296   0.672
    1STR    H1O11440   1.286   5.282   0.827
    1STR    H1P11441   1.566   5.176   0.738
    1STR    H1Q11442   1.513   5.148   0.901
    1STR    H1R11443   1.675   5.001   0.975
    1STR    H1S11444   1.795   4.779   0.867
    1STR    H1T11445   1.641   4.774   0.792
    1STR    H1U11446   1.635   4.791   0.947
    1STR    H1V11447   1.775   5.089   0.704
    1STR    H1W11448   1.895   5.031   0.819
    1STR    H1X11449   1.661   5.477   0.851
    1STR    H1Y11450   1.421   5.446   0.951
    1STR    H1Z11451   1.280   5.280   1.062
    1STR    H2011452   1.348   5.035   1.005
    1STR    H2111453   1.430   4.942   1.112
    1STR    H2211454   1.272   5.030   1.145
    1STR    H2311455   1.577   4.982   1.255
    1STR    H2711456   1.770   5.257   1.105
    1STR    H2811457   1.174   5.165   0.425
    1STR    H2911458   1.381   5.299   0.376
    1STR    H2A11459   1.700   5.225   0.491
    1STR    H2B11460   1.621   5.316   0.364
    1STR    H2C11461   1.703   5.165   0.323
    1STR   BCK111462   1.682   4.629   2.024
    1STR    O0311463   1.796   4.587   2.035
    1STR    N0411464   1.574   4.551   2.029
    1STR    C0511465   1.566   4.424   2.081
    1STR    C0611466   1.644   4.395   2.190
    1STR    C0711467   1.681   4.265   2.217
    1STR    N0811468   1.800   4.244   2.284
    1STR    C0911469   1.917   4.303   2.261
    1STR    O0A11470   2.019   4.249   2.301
    1STR    O0B11471   1.912   4.431   2.217
    1STR    C0C11472   1.920   4.532   2.317
    1STR    C0D11473   2.068   4.544   2.352
    1STR    C0E11474   1.861   4.675   2.296
    1STR    O0F11475   1.719   4.672   2.292
    1STR    C0G11476   1.636   4.780   2.327
    1STR    C0H11477   1.500   4.743   2.268
    1STR    C0I11478   1.624   4.783   2.472
    1STR    O0J11479   1.576   4.908   2.520
    1STR    C0K11480   1.441   4.949   2.498
    1STR    C0M11481   1.427   5.032   2.372
    1STR    C0N11482   1.325   4.852   2.532
    1STR    O0O11483   1.361   4.716   2.551
    1STR    C0P11484   1.287   4.619   2.499
    1STR    O0Q11485   1.176   4.633   2.450
    1STR    N0R11486   1.341   4.498   2.503
    1STR    C0S11487   1.464   4.450   2.543
    1STR    C0T11488   1.499   4.327   2.488
    1STR    C0U11489   1.627   4.276   2.510
    1STR    C0V11490   1.721   4.343   2.588
    1STR    C0W11491   1.860   4.284   2.603
    1STR    C0X11492   1.684   4.462   2.652
    1STR    N0Y11493   1.774   4.528   2.734
    1STR   BCK211494   1.890   4.571   2.686
    1STR    O1011495   1.898   4.617   2.575
    1STR    C1311496   1.555   4.513   2.631
    1STR    C1411497   1.606   4.160   2.163
    1STR    C1511498   1.502   4.190   2.072
    1STR    C1611499   1.484   4.323   2.030
    1STR    C1711500   1.386   4.353   1.924
    1STR    H1B11501   1.489   4.591   1.998
    1STR    H1C11502   1.692   4.472   2.243
    1STR    H1D11503   1.805   4.172   2.353
    1STR    H1E11504   1.861   4.489   2.397
    1STR    H1F11505   2.125   4.560   2.260
    1STR    H1G11506   2.087   4.626   2.421
    1STR    H1H11507   2.103   4.453   2.400
    1STR    H1I11508   1.905   4.713   2.206
    1STR    H1J11509   1.891   4.743   2.375
    1STR    H1K11510   1.668   4.878   2.295
    1STR    H1M11511   1.491   4.638   2.244
    1STR    H1N11512   1.483   4.811   2.188
    1STR    H1O11513   1.416   4.762   2.329
    1STR    H1P11514   1.568   4.698   2.495
    1STR    H1Q11515   1.716   4.757   2.517
    1STR    H1R11516   1.427   5.030   2.569
    1STR    H1S11517   1.350   5.107   2.389
    1STR    H1T11518   1.398   4.976   2.285
    1STR    H1U11519   1.521   5.083   2.353
    1STR    H1V11520   1.246   4.861   2.457
    1STR    H1W11521   1.280   4.885   2.624
    1STR    H1X11522   1.279   4.429   2.465
    1STR    H1Y11523   1.432   4.270   2.426
    1STR    H1Z11524   1.649   4.179   2.469
    1STR    H2011525   1.926   4.322   2.527
    1STR    H2111526   1.907   4.314   2.696
    1STR    H2211527   1.857   4.176   2.600
    1STR    H2311528   1.754   4.545   2.832
    1STR    H2711529   1.528   4.604   2.682
    1STR    H2811530   1.634   4.058   2.182
    1STR    H2911531   1.447   4.112   2.024
    1STR    H2A11532   1.298   4.400   1.965
    1STR    H2B11533   1.361   4.271   1.858
    1STR    H2C11534   1.437   4.425   1.866
    1STR   BCK111535   1.901   4.581   3.649
    1STR    O0311536   1.840   4.578   3.754
    1STR    N0411537   1.936   4.691   3.584
    1STR    C0511538   1.904   4.820   3.623
    1STR    C0611539   1.773   4.853   3.650
    1STR    C0711540   1.732   4.985   3.670
    1STR    N0811541   1.598   4.995   3.690
    1STR    C0911542   1.540   5.064   3.783
    1STR    O0A11543   1.578   5.170   3.832
    1STR    O0B11544   1.457   4.978   3.832
    1STR    C0C11545   1.488   4.923   3.958
    1STR    C0D11546   1.348   4.918   4.018
    1STR    C0E11547   1.561   4.789   3.964
    1STR    O0F11548   1.692   4.786   3.908
    1STR    C0G11549   1.801   4.831   3.988
    1STR    C0H11550   1.918   4.735   3.970
    1STR    C0I11551   1.839   4.969   3.941
    1STR    O0J11552   1.949   5.044   3.981
    1STR    C0K11553   1.950   5.087   4.112
    1STR    C0M11554   1.813   5.103   4.180
    1STR    C0N11555   2.034   4.983   4.176
    1STR    O0O11556   2.156   4.950   4.109
    1STR    C0P11557   2.266   4.887   4.162
    1STR    O0Q11558   2.357   4.851   4.089
    1STR    N0R11559   2.281   4.866   4.293
    1STR    C0S11560   2.187   4.873   4.393
    1STR    C0T11561   2.180   4.988   4.474
    1STR    C0U11562   2.056   5.024   4.527
    1STR    C0V11563   1.943   4.949   4.494
    1STR    C0W11564   1.811   5.006   4.528
    1STR    C0X11565   1.951   4.830   4.421
    1STR    N0Y11566   1.835   4.775   4.371
    1STR   BCK211567   1.818   4.673   4.288
    1STR    O1011568   1.714   4.672   4.227
    1STR    C1311569   2.077   4.788   4.375
    1STR    C1411570   1.826   5.089   3.671
    1STR    C1511571   1.962   5.057   3.652
    1STR    C1611572   1.998   4.922   3.631
    1STR    C1711573   2.138   4.882   3.620
    1STR    H1B11574   1.975   4.687   3.491
    1STR    H1C11575   1.705   4.773   3.664
    1STR    H1D11576   1.549   4.907   3.680
    1STR    H1E11577   1.558   4.988   4.005
    1STR    H1F11578   1.285   4.855   3.955
    1STR    H1G11579   1.347   4.878   4.118
    1STR    H1H11580   1.306   5.018   4.020
    1STR    H1I11581   1.499   4.714   3.918
    1STR    H1J11582   1.568   4.755   4.066
    1STR    H1K11583   1.773   4.836   4.090
    1STR    H1M11584   1.958   4.742   3.869
    1STR    H1N11585   1.887   4.632   3.988
    1STR    H1O11586   2.004   4.756   4.032
    1STR    H1P11587   1.883   4.942   3.850
    1STR    H1Q11588   1.754   5.035   3.927
    1STR    H1R11589   2.004   5.181   4.116
    1STR    H1S11590   1.825   5.123   4.285
    1STR    H1T11591   1.753   5.014   4.175
    1STR    H1U11592   1.756   5.184   4.135
    1STR    H1V11593   1.974   4.893   4.183
    1STR    H1W11594   2.049   5.028   4.271
    1STR    H1X11595   2.372   4.830   4.317
    1STR    H1Y11596   2.262   5.057   4.480
    1STR    H1Z11597   2.043   5.118   4.580
    1STR    H2011598   1.725   4.952   4.493
    1STR    H2111599   1.818   5.009   4.634
    1STR    H2211600   1.801   5.109   4.494
    1STR    H2311601   1.752   4.830   4.383
    1STR    H2711602   2.088   4.702   4.312
    1STR    H2811603   1.797   5.188   3.697
    1STR    H2911604   2.038   5.134   3.655
    1STR    H2A11605   2.157   4.788   3.671
    1STR    H2B11606   2.204   4.960   3.656
    1STR    H2C11607   2.142   4.869   3.513
    1STR   BCK111608   1.778   4.959   5.328
    1STR    O0311609   1.793   4.843   5.365
    1STR    N0411610   1.697   4.997   5.231
    1STR    C0511611   1.596   4.929   5.172
    1STR    C0611612   1.594   4.789   5.169
    1STR    C0711613   1.472   4.723   5.160
    1STR    N0811614   1.477   4.587   5.182
    1STR    C0911615   1.397   4.521   5.264
    1STR    O0A11616   1.276   4.534   5.283
    1STR    O0B11617   1.476   4.452   5.336
    1STR    C0C11618   1.502   4.511   5.460
    1STR    C0D11619   1.630   4.449   5.512
    1STR    C0E11620   1.512   4.664   5.464
    1STR    O0F11621   1.383   4.725   5.459
    1STR    C0G11622   1.388   4.863   5.431
    1STR    C0H11623   1.249   4.922   5.405
    1STR    C0I11624   1.467   4.943   5.525
    1STR    O0J11625   1.521   5.062   5.478
    1STR    C0K11626   1.557   5.139   5.591
    1STR    C0M11627   1.698   5.185   5.562
    1STR    C0N11628   1.443   5.241   5.607
    1STR    O0O11629   1.327   5.169   5.643
    1STR    C0P11630   1.277   5.175   5.765
    1STR    O0Q11631   1.233   5.276   5.816
    1STR    N0R11632   1.264   5.059   5.826
    1STR    C0S11633   1.299   4.932   5.792
    1STR    C0T11634   1.203   4.843   5.741
    1STR    C0U11635   1.239   4.711   5.713
    1STR    C0V11636   1.368   4.664   5.744
    1STR    C0W11637   1.389   4.514   5.748
    1STR    C0X11638   1.469   4.757   5.778
    1STR    N0Y11639   1.602   4.714   5.778
    1STR   BCK211640   1.714   4.788   5.773
    1STR    O1011641   1.715   4.909   5.770
    1STR    C1311642   1.431   4.890   5.807
    1STR    C1411643   1.355   4.799   5.145
    1STR    C1511644   1.362   4.938   5.123
    1STR    C1611645   1.484   5.003   5.133
    1STR    C1711646   1.491   5.152   5.120
    1STR    H1B11647   1.715   5.088   5.191
    1STR    H1C11648   1.684   4.733   5.189
    1STR    H1D11649   1.569   4.548   5.183
    1STR    H1E11650   1.413   4.484   5.514
    1STR    H1F11651   1.708   4.459   5.436
    1STR    H1G11652   1.665   4.501   5.600
    1STR    H1H11653   1.613   4.345   5.536
    1STR    H1I11654   1.583   4.703   5.393
    1STR    H1J11655   1.561   4.692   5.554
    1STR    H1K11656   1.451   4.879   5.349
    1STR    H1M11657   1.197   4.860   5.334
    1STR    H1N11658   1.259   5.022   5.364
    1STR    H1O11659   1.188   4.926   5.494
    1STR    H1P11660   1.387   4.968   5.588
    1STR    H1Q11661   1.544   4.891   5.577
    1STR    H1R11662   1.565   5.083   5.684
    1STR    H1S11663   1.732   5.258   5.634
    1STR    H1T11664   1.706   5.227   5.462
    1STR    H1U11665   1.764   5.099   5.570
    1STR    H1V11666   1.426   5.291   5.512
    1STR    H1W11667   1.464   5.317   5.680
    1STR    H1X11668   1.202   5.059   5.908
    1STR    H1Y11669   1.101   4.875   5.727
    1STR    H1Z11670   1.163   4.642   5.680
    1STR    H2011671   1.373   4.473   5.846
    1STR    H2111672   1.315   4.463   5.687
    1STR    H2211673   1.490   4.484   5.723
    1STR    H2311674   1.614   4.615   5.771
    1STR    H2711675   1.501   4.964   5.843
    1STR    H2811676   1.260   4.752   5.151
    1STR    H2911677   1.274   4.996   5.110
    1STR    H2A11678   1.508   5.195   5.218
    1STR    H2B11679   1.398   5.190   5.078
    1STR    H2C11680   1.573   5.175   5.052
    1STR   BCK111681   3.129   0.026   0.519
    1STR    O0311682   3.025   0.021   0.581
    1STR    N0411683   3.166   6.273   0.430
    1STR    C0511684   3.246   6.164   0.460
    1STR    C0611685   3.365   6.198   0.517
    1STR    C0711686   3.437   6.110   0.597
    1STR    N0811687   3.538   6.159   0.676
    1STR    C0911688   3.600   6.275   0.653
    1STR    O0A11689   3.720   6.279   0.628
    1STR    O0B11690   3.523   0.047   0.662
    1STR    C0C11691   3.462   0.083   0.785
    1STR    C0D11692   3.497   0.227   0.813
    1STR    C0E11693   3.312   0.056   0.813
    1STR    O0F11694   3.272   6.278   0.747
    1STR    C0G11695   3.146   6.225   0.781
    1STR    C0H11696   3.089   6.111   0.693
    1STR    C0I11697   3.176   6.152   0.901
    1STR    O0J11698   3.063   6.157   0.976
    1STR    C0K11699   2.944   6.097   0.943
    1STR    C0M11700   2.850   6.201   0.878
    1STR    C0N11701   2.931   5.945   0.917
    1STR    O0O11702   3.051   5.868   0.916
    1STR    C0P11703   3.134   5.868   1.019
    1STR    O0Q11704   3.113   5.921   1.128
    1STR    N0R11705   3.250   5.820   0.977
    1STR    C0S11706   3.376   5.876   0.995
    1STR    C0T11707   3.488   5.816   0.936
    1STR    C0U11708   3.607   5.889   0.917
    1STR    C0V11709   3.612   6.026   0.949
    1STR    C0W11710   3.734   6.105   0.908
    1STR    C0X11711   3.502   6.087   1.011
    1STR    N0Y11712   3.492   6.223   1.031
    1STR   BCK211713   3.581   6.310   1.077
    1STR    O1011714   3.568   0.090   1.066
    1STR    C1311715   3.390   6.008   1.040
    1STR    C1411716   3.403   5.974   0.594
    1STR    C1511717   3.293   5.932   0.516
    1STR    C1611718   3.210   6.028   0.452
    1STR    C1711719   3.083   5.981   0.386
    1STR    H1B11720   3.195   6.321   0.344
    1STR    H1C11721   3.388   6.301   0.516
    1STR    H1D11722   3.541   6.126   0.771
    1STR    H1E11723   3.520   0.022   0.850
    1STR    H1F11724   3.468   0.294   0.733
    1STR    H1G11725   3.441   0.259   0.900
    1STR    H1H11726   3.604   0.237   0.829
    1STR    H1I11727   3.245   0.137   0.782
    1STR    H1J11728   3.296   0.056   0.920
    1STR    H1K11729   3.077   6.306   0.800
    1STR    H1M11730   3.156   6.027   0.688
    1STR    H1N11731   3.050   6.138   0.598
    1STR    H1O11732   2.999   6.064   0.721
    1STR    H1P11733   3.216   6.055   0.879
    1STR    H1Q11734   3.250   6.203   0.959
    1STR    H1R11735   2.932   6.100   1.047
    1STR    H1S11736   2.746   6.176   0.891
    1STR    H1T11737   2.865   6.213   0.771
    1STR    H1U11738   2.868   6.300   0.921
    1STR    H1V11739   2.880   5.930   0.822
    1STR    H1W11740   2.865   5.902   0.989
    1STR    H1X11741   3.238   5.760   0.898
    1STR    H1Y11742   3.481   5.714   0.901
    1STR    H1Z11743   3.692   5.843   0.870
    1STR    H2011744   3.710   6.209   0.885
    1STR    H2111745   3.807   6.104   0.988
    1STR    H2211746   3.778   6.063   0.818
    1STR    H2311747   3.402   6.267   1.019
    1STR    H2711748   3.304   6.054   1.084
    1STR    H2811749   3.460   5.902   0.651
    1STR    H2911750   3.267   5.828   0.510
    1STR    H2A11751   3.046   5.891   0.435
    1STR    H2B11752   3.098   5.962   0.280
    1STR    H2C11753   3.007   6.056   0.395
    1STR   BCK111754   3.108   6.238   2.115
    1STR    O0311755   3.070   6.122   2.119
    1STR    N0411756   3.037   6.327   2.042
    1STR    C0511757   3.013   0.121   2.014
    1STR    C0611758   3.109   0.221   1.990
    1STR    C0711759   3.075   0.358   1.995
    1STR    N0811760   3.165   0.451   2.042
    1STR    C0911761   3.159   0.491   2.170
    1STR    O0A11762   3.233   0.578   2.215
    1STR    O0B11763   3.062   0.430   2.242
    1STR    C0C11764   3.087   0.313   2.319
    1STR    C0D11765   2.949   0.251   2.349
    1STR    C0E11766   3.179   0.205   2.268
    1STR    O0F11767   3.284   0.251   2.186
    1STR    C0G11768   3.414   0.235   2.227
    1STR    C0H11769   3.493   0.198   2.114
    1STR    C0I11770   3.466   0.367   2.281
    1STR    O0J11771   3.386   0.396   2.389
    1STR    C0K11772   3.423   0.322   2.500
    1STR    C0M11773   3.386   0.178   2.507
    1STR    C0N11774   3.548   0.372   2.570
    1STR    O0O11775   3.573   0.506   2.536
    1STR    C0P11776   3.529   0.617   2.600
    1STR    O0Q11777   3.591   0.721   2.590
    1STR    N0R11778   3.417   0.622   2.673
    1STR    C0S11779   3.313   0.535   2.690
    1STR    C0T11780   3.203   0.540   2.604
    1STR    C0U11781   3.109   0.436   2.608
    1STR    C0V11782   3.140   0.317   2.676
    1STR    C0W11783   3.066   0.194   2.634
    1STR    C0X11784   3.248   0.313   2.767
    1STR    N0Y11785   3.295   0.191   2.813
    1STR   BCK211786   3.417   0.172   2.863
    1STR    O1011787   3.460   0.240   2.956
    1STR    C1311788   3.327   0.430   2.782
    1STR    C1411789   2.941   0.396   1.997
    1STR    C1511790   2.845   0.298   2.018
    1STR    C1611791   2.880   0.163   2.027
    1STR    C1711792   2.771   0.067   2.064
    1STR    H1B11793   2.982   6.274   1.975
    1STR    H1C11794   3.212   0.189   1.993
    1STR    H1D11795   3.256   0.463   2.002
    1STR    H1E11796   3.146   0.345   2.401
    1STR    H1F11797   2.889   0.252   2.260
    1STR    H1G11798   2.954   0.145   2.377
    1STR    H1H11799   2.894   0.306   2.425
    1STR    H1I11800   3.115   0.142   2.215
    1STR    H1J11801   3.201   0.123   2.331
    1STR    H1K11802   3.423   0.145   2.283
    1STR    H1M11803   3.442   0.219   2.021
    1STR    H1N11804   3.525   0.096   2.126
    1STR    H1O11805   3.584   0.252   2.120
    1STR    H1P11806   3.571   0.364   2.308
    1STR    H1Q11807   3.453   0.446   2.208
    1STR    H1R11808   3.341   0.355   2.550
    1STR    H1S11809   3.363   0.146   2.603
    1STR    H1T11810   3.457   0.108   2.466
    1STR    H1U11811   3.285   0.163   2.487
    1STR    H1V11812   3.633   0.312   2.536
    1STR    H1W11813   3.544   0.360   2.678
    1STR    H1X11814   3.405   0.715   2.709
    1STR    H1Y11815   3.190   0.620   2.532
    1STR    H1Z11816   3.022   0.442   2.544
    1STR    H2011817   3.083   0.177   2.530
    1STR    H2111818   3.107   0.102   2.670
    1STR    H2211819   2.959   0.207   2.650
    1STR    H2311820   3.256   0.109   2.766
    1STR    H2711821   3.412   0.433   2.847
    1STR    H2811822   2.915   0.500   2.002
    1STR    H2911823   2.742   0.328   2.031
    1STR    H2A11824   2.737   0.027   1.971
    1STR    H2B11825   2.689   0.118   2.112
    1STR    H2C11826   2.807   6.328   2.130
    1STR   BCK111827   3.075   6.330   3.543
    1STR    O0311828   3.170   6.256   3.547
    1STR    N0411829   2.951   6.283   3.556
    1STR    C0511830   2.926   6.147   3.567
    1STR    C0611831   2.886   6.093   3.688
    1STR    C0711832   2.884   5.956   3.707
    1STR    N0811833   2.895   5.910   3.834
    1STR    C0911834   3.015   5.871   3.874
    1STR    O0A11835   3.029   5.796   3.969
    1STR    O0B11836   3.116   5.929   3.804
    1STR    C0C11837   3.187   6.036   3.865
    1STR    C0D11838   3.335   6.019   3.851
    1STR    C0E11839   3.149   6.178   3.828
    1STR    O0F11840   3.039   6.239   3.895
    1STR    C0G11841   3.005   0.032   3.857
    1STR    C0H11842   2.860   0.063   3.839
    1STR    C0I11843   3.070   0.162   3.898
    1STR    O0J11844   3.190   0.150   3.969
    1STR    C0K11845   3.209   0.253   4.063
    1STR    C0M11846   3.236   0.382   3.988
    1STR    C0N11847   3.089   0.265   4.159
    1STR    O0O11848   3.046   0.133   4.176
    1STR    C0P11849   2.927   0.089   4.157
    1STR    O0Q11850   2.826   0.159   4.157
    1STR    N0R11851   2.926   6.298   4.142
    1STR    C0S11852   3.030   6.202   4.144
    1STR    C0T11853   2.994   6.067   4.148
    1STR    C0U11854   3.088   5.969   4.180
    1STR    C0V11855   3.224   6.001   4.183
    1STR    C0W11856   3.327   5.893   4.186
    1STR    C0X11857   3.264   6.132   4.152
    1STR    N0Y11858   3.399   6.156   4.144
    1STR   BCK211859   3.467   6.258   4.093
    1STR    O1011860   3.426   6.337   4.009
    1STR    C1311861   3.168   6.231   4.133
    1STR    C1411862   2.908   5.867   3.602
    1STR    C1511863   2.935   5.920   3.476
    1STR    C1611864   2.947   6.059   3.461
    1STR    C1711865   2.973   6.116   3.328
    1STR    H1B11866   2.873   0.006   3.576
    1STR    H1C11867   2.874   6.154   3.773
    1STR    H1D11868   2.823   5.925   3.903
    1STR    H1E11869   3.159   6.029   3.964
    1STR    H1F11870   3.362   6.025   3.747
    1STR    H1G11871   3.391   6.097   3.901
    1STR    H1H11872   3.364   5.924   3.893
    1STR    H1I11873   3.121   6.157   3.729
    1STR    H1J11874   3.235   6.245   3.830
    1STR    H1K11875   3.045   0.022   3.764
    1STR    H1M11876   2.795   6.317   3.831
    1STR    H1N11877   2.863   0.125   3.750
    1STR    H1O11878   2.813   0.125   3.914
    1STR    H1P11879   3.084   0.230   3.816
    1STR    H1Q11880   2.993   0.218   3.949
    1STR    H1R11881   3.297   0.221   4.120
    1STR    H1S11882   3.269   0.459   4.058
    1STR    H1T11883   3.147   0.417   3.936
    1STR    H1U11884   3.315   0.364   3.915
    1STR    H1V11885   3.009   0.327   4.121
    1STR    H1W11886   3.120   0.305   4.253
    1STR    H1X11887   2.833   6.260   4.144
    1STR    H1Y11888   2.891   6.037   4.137
    1STR    H1Z11889   3.053   5.868   4.186
    1STR    H2011890   3.398   5.904   4.105
    1STR    H2111891   3.379   5.906   4.279
    1STR    H2211892   3.281   5.796   4.173
    1STR    H2311893   3.451   6.086   4.193
    1STR    H2711894   3.205   6.329   4.118
    1STR    H2811895   2.912   5.761   3.620
    1STR    H2911896   2.948   5.854   3.392
    1STR    H2A11897   2.910   6.200   3.328
    1STR    H2B11898   2.936   6.056   3.248
    1STR    H2C11899   3.073   6.151   3.313
    1STR   BCK111900   3.152   6.127   5.237
    1STR    O0311901   3.097   6.025   5.198
    1STR    N0411902   3.279   6.142   5.195
    1STR    C0511903   3.380   6.238   5.183
    1STR    C0611904   3.355   0.031   5.209
    1STR    C0711905   3.446   0.132   5.175
    1STR    N0811906   3.409   0.260   5.201
    1STR    C0911907   3.457   0.307   5.312
    1STR    O0A11908   3.574   0.318   5.346
    1STR    O0B11909   3.353   0.305   5.385
    1STR    C0C11910   3.365   0.249   5.511
    1STR    C0D11911   3.229   0.302   5.558
    1STR    C0E11912   3.386   0.095   5.512
    1STR    O0F11913   3.489   0.027   5.440
    1STR    C0G11914   3.518   6.235   5.489
    1STR    C0H11915   3.411   6.128   5.466
    1STR    C0I11916   3.639   6.170   5.426
    1STR    O0J11917   3.753   6.244   5.389
    1STR    C0K11918   3.827   6.300   5.494
    1STR    C0M11919   3.758   0.094   5.527
    1STR    C0N11920   3.857   6.194   5.604
    1STR    O0O11921   3.866   6.251   5.731
    1STR    C0P11922   3.752   6.266   5.791
    1STR    O0Q11923   3.669   6.177   5.811
    1STR    N0R11924   3.739   0.054   5.815
    1STR    C0S11925   3.627   0.130   5.833
    1STR    C0T11926   3.646   0.267   5.849
    1STR    C0U11927   3.535   0.350   5.867
    1STR    C0V11928   3.407   0.293   5.868
    1STR    C0W11929   3.293   0.377   5.908
    1STR    C0X11930   3.386   0.157   5.843
    1STR    N0Y11931   3.256   0.115   5.826
    1STR   BCK211932   3.192   0.039   5.738
    1STR    O1011933   3.084   0.082   5.700
    1STR    C1311934   3.498   0.076   5.825
    1STR    C1411935   3.572   0.103   5.126
    1STR    C1511936   3.602   6.309   5.110
    1STR    C1611937   3.508   6.206   5.132
    1STR    C1711938   3.562   6.066   5.116
    1STR    H1B11939   3.298   6.067   5.126
    1STR    H1C11940   3.264   0.058   5.255
    1STR    H1D11941   3.310   0.275   5.199
    1STR    H1E11942   3.447   0.297   5.565
    1STR    H1F11943   3.144   0.259   5.505
    1STR    H1G11944   3.214   0.281   5.661
    1STR    H1H11945   3.223   0.409   5.546
    1STR    H1I11946   3.296   0.040   5.494
    1STR    H1J11947   3.407   0.072   5.613
    1STR    H1K11948   3.540   6.246   5.595
    1STR    H1M11949   3.420   6.071   5.374
    1STR    H1N11950   3.314   6.173   5.458
    1STR    H1O11951   3.410   6.049   5.539
    1STR    H1P11952   3.657   6.071   5.467
    1STR    H1Q11953   3.606   6.144   5.331
    1STR    H1R11954   3.921   6.328   5.449
    1STR    H1S11955   3.664   0.084   5.580
    1STR    H1T11956   3.732   0.147   5.436
    1STR    H1U11957   3.821   0.159   5.587
    1STR    H1V11958   3.950   6.143   5.581
    1STR    H1W11959   3.785   6.113   5.613
    1STR    H1X11960   3.825   0.105   5.804
    1STR    H1Y11961   3.745   0.309   5.855
    1STR    H1Z11962   3.551   0.454   5.891
    1STR    H2011963   3.220   0.380   5.830
    1STR    H2111964   3.249   0.328   5.994
    1STR    H2211965   3.326   0.476   5.936
    1STR    H2311966   3.189   0.177   5.870
    1STR    H2711967   3.483   6.314   5.802
    1STR    H2811968   3.644   0.181   5.105
    1STR    H2911969   3.702   6.285   5.086
    1STR    H2A11970   3.495   5.990   5.156
    1STR    H2B11971   3.659   6.054   5.163
    1STR    H2C11972   3.586   6.050   5.013
    1STR   BCK111973   3.251   1.623   0.645
    1STR    O0311974   3.197   1.520   0.685
    1STR    N0411975   3.202   1.704   0.551
    1STR    C0511976   3.072   1.724   0.506
    1STR    C0611977   2.976   1.623   0.521
    1STR    C0711978   2.837   1.651   0.521
    1STR    N0811979   2.755   1.553   0.571
    1STR    C0911980   2.690   1.567   0.684
    1STR    O0A11981   2.623   1.664   0.717
    1STR    O0B11982   2.725   1.465   0.759
    1STR    C0C11983   2.819   1.483   0.864
    1STR    C0D11984   2.891   1.349   0.875
    1STR    C0E11985   2.926   1.592   0.846
    1STR    O0F11986   2.868   1.721   0.854
    1STR    C0G11987   2.921   1.827   0.777
    1STR    C0H11988   2.818   1.937   0.763
    1STR    C0I11989   3.056   1.876   0.812
    1STR    O0J11990   3.142   1.940   0.725
    1STR    C0K11991   3.248   2.003   0.794
    1STR    C0M11992   3.380   1.963   0.734
    1STR    C0N11993   3.224   2.152   0.789
    1STR    O0O11994   3.113   2.175   0.873
    1STR    C0P11995   3.120   2.269   0.966
    1STR    O0Q11996   3.196   2.364   0.963
    1STR    N0R11997   3.039   2.246   1.068
    1STR    C0S11998   2.980   2.124   1.090
    1STR    C0T11999   2.841   2.110   1.093
    1STR    C0U12000   2.783   1.982   1.102
    1STR    C0V12001   2.865   1.868   1.101
    1STR    C0W12002   2.793   1.736   1.106
    1STR    C0X12003   3.006   1.882   1.101
    1STR    N0Y12004   3.086   1.771   1.081
    1STR   BCK212005   3.218   1.761   1.067
    1STR    O1012006   3.305   1.834   1.114
    1STR    C1312007   3.063   2.011   1.100
    1STR    C1412008   2.793   1.782   0.493
    1STR    C1512009   2.889   1.882   0.471
    1STR    C1612010   3.028   1.853   0.473
    1STR    C1712011   3.125   1.963   0.443
    1STR    H1B12012   3.274   1.762   0.507
    1STR    H1C12013   3.012   1.527   0.552
    1STR    H1D12014   2.793   1.460   0.567
    1STR    H1E12015   2.762   1.504   0.954
    1STR    H1F12016   2.946   1.325   0.784
    1STR    H1G12017   2.964   1.350   0.956
    1STR    H1H12018   2.818   1.270   0.894
    1STR    H1I12019   2.980   1.576   0.754
    1STR    H1J12020   3.003   1.581   0.921
    1STR    H1K12021   2.939   1.782   0.688
    1STR    H1M12022   2.725   1.897   0.723
    1STR    H1N12023   2.857   2.015   0.697
    1STR    H1O12024   2.796   1.983   0.857
    1STR    H1P12025   3.034   1.952   0.881
    1STR    H1Q12026   3.112   1.792   0.843
    1STR    H1R12027   3.255   1.972   0.898
    1STR    H1S12028   3.409   1.870   0.780
    1STR    H1T12029   3.459   2.033   0.760
    1STR    H1U12030   3.374   1.951   0.625
    1STR    H1V12031   3.200   2.185   0.689
    1STR    H1W12032   3.313   2.203   0.825
    1STR    H1X12033   3.034   2.319   1.136
    1STR    H1Y12034   2.776   2.195   1.081
    1STR    H1Z12035   2.676   1.968   1.101
    1STR    H2012036   2.859   1.649   1.108
    1STR    H2112037   2.730   1.737   1.193
    1STR    H2212038   2.722   1.726   1.024
    1STR    H2312039   3.032   1.694   1.046
    1STR    H2712040   3.170   2.025   1.095
    1STR    H2812041   2.688   1.804   0.498
    1STR    H2912042   2.858   1.984   0.459
    1STR    H2A12043   3.162   2.019   0.526
    1STR    H2B12044   3.080   2.035   0.377
    1STR    H2C12045   3.210   1.914   0.399
    1STR   BCK112046   3.113   1.521   2.062
    1STR    O0312047   3.234   1.510   2.048
    1STR    N0412048   3.029   1.417   2.048
    1STR    C0512049   3.086   1.294   2.021
    1STR    C0612050   3.170   1.224   2.114
    1STR    C0712051   3.299   1.187   2.080
    1STR    N0812052   3.402   1.195   2.173
    1STR    C0912053   3.535   1.196   2.152
    1STR    O0A12054   3.593   1.126   2.070
    1STR    O0B12055   3.606   1.289   2.219
    1STR    C0C12056   3.552   1.390   2.303
    1STR    C0D12057   3.666   1.481   2.346
    1STR    C0E12058   3.444   1.475   2.239
    1STR    O0F12059   3.329   1.409   2.284
    1STR    C0G12060   3.235   1.490   2.343
    1STR    C0H12061   3.112   1.409   2.343
    1STR    C0I12062   3.282   1.533   2.475
    1STR    O0J12063   3.245   1.666   2.499
    1STR    C0K12064   3.111   1.692   2.537
    1STR    C0M12065   3.061   1.803   2.450
    1STR    C0N12066   3.007   1.580   2.553
    1STR    O0O12067   3.047   1.450   2.596
    1STR    C0P12068   2.970   1.344   2.571
    1STR    O0Q12069   2.860   1.348   2.520
    1STR    N0R12070   3.032   1.228   2.587
    1STR    C0S12071   3.166   1.197   2.601
    1STR    C0T12072   3.208   1.077   2.541
    1STR    C0U12073   3.336   1.025   2.565
    1STR    C0V12074   3.425   1.097   2.647
    1STR    C0W12075   3.558   1.038   2.683
    1STR    C0X12076   3.387   1.222   2.698
    1STR    N0Y12077   3.482   1.299   2.760
    1STR   BCK212078   3.596   1.336   2.703
    1STR    O1012079   3.619   1.326   2.585
    1STR    C1312080   3.256   1.269   2.683
    1STR    C1412081   3.325   1.180   1.946
    1STR    C1512082   3.231   1.218   1.851
    1STR    C1612083   3.114   1.280   1.888
    1STR    C1712084   3.033   1.347   1.785
    1STR    H1B12085   2.929   1.422   2.059
    1STR    H1C12086   3.151   1.215   2.218
    1STR    H1D12087   3.373   1.261   2.246
    1STR    H1E12088   3.509   1.337   2.387
    1STR    H1F12089   3.704   1.539   2.264
    1STR    H1G12090   3.632   1.548   2.425
    1STR    H1H12091   3.748   1.420   2.386
    1STR    H1I12092   3.446   1.475   2.132
    1STR    H1J12093   3.449   1.580   2.269
    1STR    H1K12094   3.227   1.581   2.291
    1STR    H1M12095   3.130   1.315   2.391
    1STR    H1N12096   3.066   1.380   2.257
    1STR    H1O12097   3.021   1.459   2.361
    1STR    H1P12098   3.266   1.463   2.553
    1STR    H1Q12099   3.387   1.535   2.462
    1STR    H1R12100   3.118   1.741   2.632
    1STR    H1S12101   2.982   1.859   2.501
    1STR    H1T12102   3.017   1.762   2.361
    1STR    H1U12103   3.142   1.870   2.424
    1STR    H1V12104   2.927   1.582   2.479
    1STR    H1W12105   2.953   1.608   2.634
    1STR    H1X12106   2.969   1.150   2.578
    1STR    H1Y12107   3.138   1.018   2.483
    1STR    H1Z12108   3.365   0.929   2.526
    1STR    H2012109   3.634   1.075   2.615
    1STR    H2112110   3.585   1.066   2.786
    1STR    H2212111   3.554   0.931   2.679
    1STR    H2312112   3.457   1.350   2.846
    1STR    H2712113   3.225   1.358   2.735
    1STR    H2812114   3.424   1.152   1.920
    1STR    H2912115   3.249   1.208   1.749
    1STR    H2A12116   2.971   1.269   1.746
    1STR    H2B12117   3.100   1.381   1.710
    1STR    H2C12118   2.973   1.430   1.818
    1STR   BCK112119   3.432   1.519   3.757
    1STR    O0312120   3.326   1.508   3.817
    1STR    N0412121   3.466   1.622   3.679
    1STR    C0512122   3.388   1.731   3.646
    1STR    C0612123   3.249   1.728   3.641
    1STR    C0712124   3.177   1.844   3.607
    1STR    N0812125   3.042   1.830   3.614
    1STR    C0912126   2.963   1.924   3.662
    1STR    O0A12127   2.960   2.042   3.629
    1STR    O0B12128   2.890   1.871   3.755
    1STR    C0C12129   2.943   1.862   3.887
    1STR    C0D12130   2.887   1.730   3.938
    1STR    C0E12131   3.095   1.866   3.910
    1STR    O0F12132   3.152   1.995   3.887
    1STR    C0G12133   3.294   1.995   3.900
    1STR    C0H12134   3.370   2.112   3.840
    1STR    C0I12135   3.339   1.989   4.043
    1STR    O0J12136   3.474   1.952   4.033
    1STR    C0K12137   3.500   1.817   4.063
    1STR    C0M12138   3.419   1.708   3.995
    1STR    C0N12139   3.648   1.791   4.049
    1STR    O0O12140   3.707   1.865   4.154
    1STR    C0P12141   3.793   1.802   4.233
    1STR    O0Q12142   3.909   1.779   4.203
    1STR    N0R12143   3.739   1.757   4.347
    1STR    C0S12144   3.604   1.753   4.370
    1STR    C0T12145   3.535   1.867   4.414
    1STR    C0U12146   3.396   1.872   4.400
    1STR    C0V12147   3.328   1.761   4.346
    1STR    C0W12148   3.197   1.781   4.274
    1STR    C0X12149   3.393   1.639   4.320
    1STR    N0Y12150   3.314   1.539   4.266
    1STR   BCK212151   3.327   1.462   4.159
    1STR    O1012152   3.225   1.421   4.107
    1STR    C1312153   3.533   1.641   4.324
    1STR    C1412154   3.244   1.965   3.585
    1STR    C1512155   3.383   1.966   3.594
    1STR    C1612156   3.454   1.851   3.624
    1STR    C1712157   3.602   1.857   3.632
    1STR    H1B12158   3.562   1.630   3.652
    1STR    H1C12159   3.197   1.636   3.663
    1STR    H1D12160   3.016   1.735   3.635
    1STR    H1E12161   2.903   1.947   3.943
    1STR    H1F12162   2.900   1.650   3.866
    1STR    H1G12163   2.938   1.694   4.026
    1STR    H1H12164   2.781   1.742   3.961
    1STR    H1I12165   3.145   1.785   3.857
    1STR    H1J12166   3.111   1.840   4.014
    1STR    H1K12167   3.328   1.908   3.846
    1STR    H1M12168   3.318   2.156   3.756
    1STR    H1N12169   3.467   2.073   3.808
    1STR    H1O12170   3.394   2.190   3.912
    1STR    H1P12171   3.328   2.086   4.092
    1STR    H1Q12172   3.281   1.921   4.101
    1STR    H1R12173   3.475   1.813   4.164
    1STR    H1S12174   3.320   1.691   4.032
    1STR    H1T12175   3.470   1.613   4.003
    1STR    H1U12176   3.407   1.730   3.892
    1STR    H1V12177   3.684   1.825   3.953
    1STR    H1W12178   3.670   1.685   4.059
    1STR    H1X12179   3.804   1.719   4.415
    1STR    H1Y12180   3.590   1.954   4.446
    1STR    H1Z12181   3.345   1.966   4.418
    1STR    H2012182   3.201   1.747   4.173
    1STR    H2112183   3.123   1.716   4.310
    1STR    H2212184   3.164   1.884   4.273
    1STR    H2312185   3.216   1.544   4.290
    1STR    H2712186   3.589   1.565   4.273
    1STR    H2812187   3.191   2.057   3.563
    1STR    H2912188   3.439   2.056   3.586
    1STR    H2A12189   3.641   1.820   3.726
    1STR    H2B12190   3.639   1.958   3.614
    1STR    H2C12191   3.630   1.792   3.552
    1STR   BCK112192   3.192   1.657   5.216
    1STR    O0312193   3.278   1.571   5.209
    1STR    N0412194   3.060   1.639   5.205
    1STR    C0512195   2.975   1.529   5.189
    1STR    C0612196   2.847   1.534   5.246
    1STR    C0712197   2.781   1.414   5.271
    1STR    N0812198   2.737   1.391   5.397
    1STR    C0912199   2.833   1.351   5.478
    1STR    O0A12200   2.800   1.286   5.576
    1STR    O0B12201   2.961   1.363   5.426
    1STR    C0C12202   3.068   1.436   5.480
    1STR    C0D12203   3.198   1.368   5.443
    1STR    C0E12204   3.076   1.590   5.486
    1STR    O0F12205   2.963   1.659   5.441
    1STR    C0G12206   2.972   1.799   5.438
    1STR    C0H12207   2.916   1.868   5.315
    1STR    C0I12208   2.890   1.833   5.554
    1STR    O0J12209   2.990   1.856   5.650
    1STR    C0K12210   3.005   1.985   5.702
    1STR    C0M12211   3.104   2.055   5.610
    1STR    C0N12212   2.866   2.049   5.723
    1STR    O0O12213   2.778   1.946   5.768
    1STR    C0P12214   2.781   1.915   5.895
    1STR    O0Q12215   2.740   1.989   5.981
    1STR    N0R12216   2.839   1.799   5.926
    1STR    C0S12217   2.881   1.696   5.845
    1STR    C0T12218   2.790   1.597   5.807
    1STR    C0U12219   2.838   1.467   5.782
    1STR    C0V12220   2.976   1.439   5.782
    1STR    C0W12221   3.033   1.294   5.771
    1STR    C0X12222   3.067   1.547   5.788
    1STR    N0Y12223   3.203   1.523   5.766
    1STR   BCK212224   3.300   1.611   5.740
    1STR    O1012225   3.280   1.726   5.706
    1STR    C1312226   3.019   1.671   5.833
    1STR    C1412227   2.810   1.301   5.197
    1STR    C1512228   2.910   1.314   5.105
    1STR    C1612229   3.005   1.414   5.117
    1STR    C1712230   3.126   1.403   5.038
    1STR    H1B12231   3.010   1.708   5.260
    1STR    H1C12232   2.805   1.617   5.299
    1STR    H1D12233   2.641   1.377   5.419
    1STR    H1E12234   3.058   1.409   5.577
    1STR    H1F12235   3.215   1.379   5.337
    1STR    H1G12236   3.281   1.412   5.499
    1STR    H1H12237   3.192   1.262   5.466
    1STR    H1I12238   3.170   1.622   5.446
    1STR    H1J12239   3.090   1.634   5.581
    1STR    H1K12240   3.075   1.833   5.453
    1STR    H1M12241   2.831   1.813   5.279
    1STR    H1N12242   2.988   1.876   5.236
    1STR    H1O12243   2.883   1.969   5.335
    1STR    H1P12244   2.823   1.915   5.530
    1STR    H1Q12245   2.824   1.752   5.586
    1STR    H1R12246   3.052   1.966   5.798
    1STR    H1S12247   3.193   1.993   5.599
    1STR    H1T12248   3.134   2.151   5.651
    1STR    H1U12249   3.062   2.070   5.510
    1STR    H1V12250   2.829   2.092   5.632
    1STR    H1W12251   2.867   2.134   5.789
    1STR    H1X12252   2.867   1.790   6.023
    1STR    H1Y12253   2.684   1.615   5.817
    1STR    H1Z12254   2.765   1.388   5.777
    1STR    H2012255   3.133   1.290   5.729
    1STR    H2112256   3.042   1.241   5.864
    1STR    H2212257   2.974   1.231   5.706
    1STR    H2312258   3.229   1.426   5.773
    1STR    H2712259   3.089   1.750   5.859
    1STR    H2812260   2.757   1.209   5.209
    1STR    H2912261   2.916   1.241   5.031
    1STR    H2A12262   3.138   1.507   5.020
    1STR    H2B12263   3.112   1.353   4.943
    1STR    H2C12264   3.207   1.364   5.098
    1STR   BCK112265   3.001   3.101   0.587
    1STR    O0312266   2.898   3.049   0.625
    1STR    N0412267   3.071   3.035   0.495
    1STR    C0512268   3.187   2.963   0.514
    1STR    C0612269   3.302   3.032   0.548
    1STR    C0712270   3.425   2.969   0.575
    1STR    N0812271   3.514   3.038   0.654
    1STR    C0912272   3.554   3.156   0.612
    1STR    O0A12273   3.652   3.168   0.540
    1STR    O0B12274   3.469   3.257   0.644
    1STR    C0C12275   3.396   3.276   0.764
    1STR    C0D12276   3.371   3.427   0.773
    1STR    C0E12277   3.272   3.192   0.807
    1STR    O0F12278   3.316   3.061   0.819
    1STR    C0G12279   3.235   2.965   0.879
    1STR    C0H12280   3.094   2.953   0.828
    1STR    C0I12281   3.312   2.840   0.846
    1STR    O0J12282   3.261   2.719   0.889
    1STR    C0K12283   3.263   2.712   1.027
    1STR    C0M12284   3.124   2.665   1.054
    1STR    C0N12285   3.384   2.632   1.078
    1STR    O0O12286   3.504   2.680   1.016
    1STR    C0P12287   3.587   2.761   1.080
    1STR    O0Q12288   3.607   2.764   1.201
    1STR    N0R12289   3.630   2.853   0.994
    1STR    C0S12290   3.671   2.982   1.024
    1STR    C0T12291   3.792   3.013   1.084
    1STR    C0U12292   3.827   3.149   1.099
    1STR    C0V12293   3.737   3.252   1.073
    1STR    C0W12294   3.770   3.397   1.100
    1STR    C0X12295   3.611   3.220   1.030
    1STR    N0Y12296   3.518   3.323   1.038
    1STR   BCK212297   3.397   3.322   1.086
    1STR    O1012298   3.320   3.415   1.069
    1STR    C1312299   3.584   3.087   0.992
    1STR    C1412300   3.435   2.831   0.558
    1STR    C1512301   3.320   2.759   0.519
    1STR    C1612302   3.198   2.825   0.494
    1STR    C1712303   3.081   2.748   0.438
    1STR    H1B12304   3.053   3.062   0.397
    1STR    H1C12305   3.292   3.136   0.563
    1STR    H1D12306   3.457   3.056   0.737
    1STR    H1E12307   3.475   3.249   0.829
    1STR    H1F12308   3.356   3.472   0.675
    1STR    H1G12309   3.283   3.450   0.833
    1STR    H1H12310   3.457   3.476   0.816
    1STR    H1I12311   3.187   3.189   0.742
    1STR    H1J12312   3.227   3.230   0.897
    1STR    H1K12313   3.231   2.985   0.983
    1STR    H1M12314   3.090   2.912   0.729
    1STR    H1N12315   3.039   3.046   0.836
    1STR    H1O12316   3.039   2.878   0.883
    1STR    H1P12317   3.297   2.825   0.743
    1STR    H1Q12318   3.418   2.851   0.864
    1STR    H1R12319   3.266   2.809   1.071
    1STR    H1S12320   3.050   2.741   1.032
    1STR    H1T12321   3.116   2.651   1.158
    1STR    H1U12322   3.099   2.574   1.001
    1STR    H1V12323   3.371   2.528   1.051
    1STR    H1W12324   3.388   2.639   1.187
    1STR    H1X12325   3.603   2.834   0.899
    1STR    H1Y12326   3.858   2.933   1.116
    1STR    H1Z12327   3.921   3.179   1.135
    1STR    H2012328   3.714   3.467   1.040
    1STR    H2112329   3.738   3.414   1.202
    1STR    H2212330   3.875   3.417   1.086
    1STR    H2312331   3.548   3.416   1.011
    1STR    H2712332   3.489   3.060   0.952
    1STR    H2812333   3.527   2.780   0.583
    1STR    H2912334   3.328   2.652   0.504
    1STR    H2A12335   2.988   2.800   0.458
    1STR    H2B12336   3.078   2.650   0.485
    1STR    H2C12337   3.094   2.739   0.330
    1STR   BCK112338   3.290   3.285   2.082
    1STR    O0312339   3.213   3.191   2.076
    1STR    N0412340   3.276   3.397   2.011
    1STR    C0512341   3.161   3.454   1.959
    1STR    C0612342   3.039   3.387   1.962
    1STR    C0712343   2.917   3.453   1.950
    1STR    N0812344   2.807   3.379   1.987
    1STR    C0912345   2.735   3.393   2.096
    1STR    O0A12346   2.698   3.501   2.143
    1STR    O0B12347   2.728   3.273   2.154
    1STR    C0C12348   2.792   3.256   2.279
    1STR    C0D12349   2.782   3.111   2.325
    1STR    C0E12350   2.939   3.296   2.273
    1STR    O0F12351   2.939   3.438   2.261
    1STR    C0G12352   3.063   3.503   2.257
    1STR    C0H12353   3.046   3.648   2.216
    1STR    C0I12354   3.108   3.512   2.394
    1STR    O0J12355   3.142   3.389   2.445
    1STR    C0K12356   3.267   3.343   2.413
    1STR    C0M12357   3.251   3.198   2.374
    1STR    C0N12358   3.379   3.439   2.363
    1STR    O0O12359   3.398   3.536   2.464
    1STR    C0P12360   3.421   3.665   2.437
    1STR    O0Q12361   3.479   3.705   2.337
    1STR    N0R12362   3.365   3.749   2.527
    1STR    C0S12363   3.271   3.710   2.622
    1STR    C0T12364   3.138   3.754   2.611
    1STR    C0U12365   3.034   3.666   2.646
    1STR    C0V12366   3.065   3.532   2.681
    1STR    C0W12367   2.959   3.427   2.650
    1STR    C0X12368   3.198   3.499   2.718
    1STR    N0Y12369   3.238   3.368   2.739
    1STR   BCK212370   3.360   3.333   2.780
    1STR    O1012371   3.419   3.402   2.863
    1STR    C1312372   3.298   3.596   2.698
    1STR    C1412373   2.916   3.589   1.921
    1STR    C1512374   3.039   3.658   1.906
    1STR    C1612375   3.160   3.590   1.931
    1STR    C1712376   3.290   3.664   1.933
    1STR    H1B12377   3.363   3.439   1.984
    1STR    H1C12378   3.038   3.286   1.992
    1STR    H1D12379   2.810   3.283   1.957
    1STR    H1E12380   2.743   3.322   2.351
    1STR    H1F12381   2.831   3.043   2.256
    1STR    H1G12382   2.831   3.100   2.422
    1STR    H1H12383   2.678   3.083   2.335
    1STR    H1I12384   2.992   3.248   2.192
    1STR    H1J12385   2.984   3.260   2.364
    1STR    H1K12386   3.136   3.448   2.201
    1STR    H1M12387   2.961   3.659   2.151
    1STR    H1N12388   3.138   3.684   2.170
    1STR    H1O12389   3.025   3.715   2.300
    1STR    H1P12390   3.181   3.589   2.409
    1STR    H1Q12391   3.018   3.548   2.439
    1STR    H1R12392   3.291   3.335   2.513
    1STR    H1S12393   3.346   3.152   2.351
    1STR    H1T12394   3.183   3.186   2.293
    1STR    H1U12395   3.200   3.142   2.453
    1STR    H1V12396   3.354   3.485   2.268
    1STR    H1W12397   3.476   3.389   2.355
    1STR    H1X12398   3.377   3.847   2.506
    1STR    H1Y12399   3.113   3.844   2.557
    1STR    H1Z12400   2.932   3.693   2.622
    1STR    H2012401   2.899   3.448   2.562
    1STR    H2112402   3.004   3.331   2.631
    1STR    H2212403   2.882   3.422   2.722
    1STR    H2312404   3.188   3.299   2.684
    1STR    H2712405   3.402   3.570   2.707
    1STR    H2812406   2.825   3.643   1.922
    1STR    H2912407   3.039   3.763   1.887
    1STR    H2A12408   3.332   3.665   2.033
    1STR    H2B12409   3.275   3.766   1.897
    1STR    H2C12410   3.358   3.612   1.866
    1STR   BCK112411   3.233   3.237   3.592
    1STR    O0312412   3.338   3.188   3.560
    1STR    N0412413   3.121   3.171   3.618
    1STR    C0512414   3.060   3.047   3.600
    1STR    C0612415   2.980   2.996   3.700
    1STR    C0712416   2.991   2.857   3.720
    1STR    N0812417   3.105   2.816   3.785
    1STR    C0912418   3.225   2.823   3.727
    1STR    O0A12419   3.275   2.725   3.672
    1STR    O0B12420   3.278   2.950   3.719
    1STR    C0C12421   3.326   3.023   3.831
    1STR    C0D12422   3.470   3.062   3.812
    1STR    C0E12423   3.244   3.139   3.905
    1STR    O0F12424   3.116   3.181   3.857
    1STR    C0G12425   2.998   3.206   3.933
    1STR    C0H12426   2.906   3.290   3.846
    1STR    C0I12427   2.926   3.076   3.967
    1STR    O0J12428   3.030   2.980   3.959
    1STR    C0K12429   3.082   2.915   4.069
    1STR    C0M12430   3.222   2.864   4.060
    1STR    C0N12431   3.073   3.015   4.180
    1STR    O0O12432   2.952   2.989   4.237
    1STR    C0P12433   2.900   2.870   4.260
    1STR    O0Q12434   2.786   2.842   4.226
    1STR    N0R12435   2.974   2.783   4.326
    1STR    C0S12436   3.109   2.778   4.356
    1STR    C0T12437   3.172   2.671   4.296
    1STR    C0U12438   3.310   2.654   4.301
    1STR    C0V12439   3.388   2.755   4.357
    1STR    C0W12440   3.537   2.742   4.355
    1STR    C0X12441   3.327   2.874   4.400
    1STR    N0Y12442   3.407   2.985   4.391
    1STR   BCK212443   3.437   3.038   4.272
    1STR    O1012444   3.358   3.107   4.209
    1STR    C1312445   3.187   2.879   4.415
    1STR    C1412446   2.954   2.784   3.609
    1STR    C1512447   2.975   2.850   3.488
    1STR    C1612448   3.060   2.961   3.492
    1STR    C1712449   3.187   2.940   3.432
    1STR    H1B12450   3.100   3.197   3.715
    1STR    H1C12451   2.883   3.035   3.680
    1STR    H1D12452   3.103   2.879   3.866
    1STR    H1E12453   3.352   2.938   3.888
    1STR    H1F12454   3.479   3.144   3.742
    1STR    H1G12455   3.513   3.092   3.907
    1STR    H1H12456   3.524   2.975   3.775
    1STR    H1I12457   3.306   3.227   3.903
    1STR    H1J12458   3.236   3.125   4.011
    1STR    H1K12459   3.026   3.265   4.020
    1STR    H1M12460   2.882   3.241   3.752
    1STR    H1N12461   2.953   3.385   3.826
    1STR    H1O12462   2.812   3.307   3.897
    1STR    H1P12463   2.864   3.083   4.056
    1STR    H1Q12464   2.850   3.049   3.895
    1STR    H1R12465   3.024   2.823   4.073
    1STR    H1S12466   3.253   2.825   4.151
    1STR    H1T12467   3.297   2.939   4.067
    1STR    H1U12468   3.241   2.784   3.989
    1STR    H1V12469   3.077   3.119   4.154
    1STR    H1W12470   3.155   3.017   4.244
    1STR    H1X12471   2.922   2.698   4.343
    1STR    H1Y12472   3.114   2.609   4.230
    1STR    H1Z12473   3.353   2.570   4.250
    1STR    H2012474   3.577   2.798   4.272
    1STR    H2112475   3.575   2.782   4.449
    1STR    H2212476   3.564   2.638   4.346
    1STR    H2312477   3.469   3.003   4.469
    1STR    H2712478   3.136   2.969   4.445
    1STR    H2812479   2.932   2.679   3.614
    1STR    H2912480   2.956   2.801   3.396
    1STR    H2A12481   3.267   2.995   3.476
    1STR    H2B12482   3.174   2.941   3.325
    1STR    H2C12483   3.217   2.847   3.475
    1STR   BCK112484   3.371   2.979   5.256
    1STR    O0312485   3.307   3.049   5.330
    1STR    N0412486   3.460   3.025   5.168
    1STR    C0512487   3.499   3.158   5.154
    1STR    C0612488   3.413   3.267   5.170
    1STR    C0712489   3.459   3.398   5.193
    1STR    N0812490   3.367   3.492   5.236
    1STR    C0912491   3.362   3.559   5.349
    1STR    O0A12492   3.455   3.603   5.414
    1STR    O0B12493   3.239   3.544   5.389
    1STR    C0C12494   3.216   3.442   5.485
    1STR    C0D12495   3.064   3.435   5.495
    1STR    C0E12496   3.273   3.303   5.448
    1STR    O0F12497   3.414   3.297   5.430
    1STR    C0G12498   3.520   3.255   5.516
    1STR    C0H12499   3.554   3.106   5.496
    1STR    C0I12500   3.633   3.331   5.454
    1STR    O0J12501   3.769   3.303   5.480
    1STR    C0K12502   3.825   3.373   5.588
    1STR    C0M12503   3.745   3.498   5.632
    1STR    C0N12504   3.849   3.259   5.688
    1STR    O0O12505   3.834   3.303   5.822
    1STR    C0P12506   3.714   3.284   5.869
    1STR    O0Q12507   3.653   3.178   5.856
    1STR    N0R12508   3.666   3.402   5.907
    1STR    C0S12509   3.540   3.452   5.880
    1STR    C0T12510   3.517   3.591   5.887
    1STR    C0U12511   3.388   3.640   5.861
    1STR    C0V12512   3.284   3.552   5.824
    1STR    C0W12513   3.145   3.604   5.803
    1STR    C0X12514   3.307   3.415   5.808
    1STR    N0Y12515   3.203   3.334   5.763
    1STR   BCK212516   3.196   3.208   5.718
    1STR    O1012517   3.091   3.160   5.678
    1STR    C1312518   3.435   3.370   5.838
    1STR    C1412519   3.593   3.426   5.176
    1STR    C1512520   3.677   3.320   5.145
    1STR    C1612521   3.635   3.186   5.142
    1STR    C1712522   3.736   3.074   5.137
    1STR    H1B12523   3.507   2.956   5.115
    1STR    H1C12524   3.311   3.251   5.190
    1STR    H1D12525   3.276   3.485   5.196
    1STR    H1E12526   3.267   3.478   5.573
    1STR    H1F12527   3.022   3.396   5.402
    1STR    H1G12528   3.030   3.369   5.574
    1STR    H1H12529   3.022   3.534   5.512
    1STR    H1I12530   3.223   3.285   5.355
    1STR    H1J12531   3.234   3.214   5.492
    1STR    H1K12532   3.505   3.288   5.617
    1STR    H1M12533   3.598   3.084   5.399
    1STR    H1N12534   3.466   3.044   5.497
    1STR    H1O12535   3.620   3.070   5.573
    1STR    H1P12536   3.630   3.284   5.362
    1STR    H1Q12537   3.612   3.435   5.435
    1STR    H1R12538   3.921   3.408   5.553
    1STR    H1S12539   3.641   3.475   5.655
    1STR    H1T12540   3.740   3.573   5.553
    1STR    H1U12541   3.788   3.545   5.720
    1STR    H1V12542   3.948   3.216   5.674
    1STR    H1W12543   3.781   3.178   5.665
    1STR    H1X12544   3.736   3.467   5.934
    1STR    H1Y12545   3.595   3.657   5.920
    1STR    H1Z12546   3.369   3.745   5.874
    1STR    H2012547   3.120   3.597   5.698
    1STR    H2112548   3.078   3.541   5.861
    1STR    H2212549   3.140   3.707   5.833
    1STR    H2312550   3.113   3.378   5.759
    1STR    H2712551   3.454   3.267   5.839
    1STR    H2812552   3.635   3.520   5.203
    1STR    H2912553   3.777   3.348   5.149
    1STR    H2A12554   3.703   2.987   5.193
    1STR    H2B12555   3.829   3.108   5.181
    1STR    H2C12556   3.753   3.047   5.033
    1STR   BCK112557   3.474   5.104   0.626
    1STR    O0312558   3.483   5.027   0.722
    1STR    N0412559   3.383   5.093   0.532
    1STR    C0512560   3.284   5.001   0.517
    1STR    C0612561   3.292   4.872   0.570
    1STR    C0712562   3.191   4.780   0.547
    1STR    N0812563   3.197   4.664   0.619
    1STR    C0912564   3.111   4.567   0.610
    1STR    O0A12565   3.094   4.502   0.510
    1STR    O0B12566   3.035   4.567   0.714
    1STR    C0C12567   2.896   4.582   0.692
    1STR    C0D12568   2.838   4.470   0.776
    1STR    C0E12569   2.861   4.727   0.730
    1STR    O0F12570   2.844   4.822   0.628
    1STR    C0G12571   2.898   4.953   0.649
    1STR    C0H12572   2.851   5.050   0.545
    1STR    C0I12573   2.871   5.023   0.776
    1STR    O0J12574   3.000   5.051   0.828
    1STR    C0K12575   3.059   5.179   0.839
    1STR    C0M12576   3.170   5.178   0.741
    1STR    C0N12577   2.963   5.296   0.823
    1STR    O0O12578   2.852   5.267   0.904
    1STR    C0P12579   2.849   5.306   1.027
    1STR    O0Q12580   2.893   5.413   1.063
    1STR    N0R12581   2.798   5.217   1.111
    1STR    C0S12582   2.795   5.081   1.085
    1STR    C0T12583   2.674   5.013   1.069
    1STR    C0U12584   2.678   4.876   1.039
    1STR    C0V12585   2.800   4.807   1.031
    1STR    C0W12586   2.797   4.660   1.021
    1STR    C0X12587   2.922   4.876   1.036
    1STR    N0Y12588   3.040   4.819   0.987
    1STR   BCK212589   3.161   4.873   0.968
    1STR    O1012590   3.211   4.964   1.032
    1STR    C1312591   2.916   5.011   1.070
    1STR    C1412592   3.081   4.820   0.471
    1STR    C1512593   3.079   4.944   0.407
    1STR    C1612594   3.176   5.039   0.437
    1STR    C1712595   3.161   5.182   0.395
    1STR    H1B12596   3.405   5.141   0.445
    1STR    H1C12597   3.373   4.842   0.633
    1STR    H1D12598   3.223   4.684   0.715
    1STR    H1E12599   2.864   4.565   0.591
    1STR    H1F12600   2.890   4.459   0.870
    1STR    H1G12601   2.731   4.482   0.792
    1STR    H1H12602   2.855   4.376   0.724
    1STR    H1I12603   2.943   4.763   0.788
    1STR    H1J12604   2.768   4.733   0.784
    1STR    H1K12605   3.006   4.944   0.649
    1STR    H1M12606   2.752   5.086   0.570
    1STR    H1N12607   2.844   4.999   0.451
    1STR    H1O12608   2.917   5.136   0.536
    1STR    H1P12609   2.803   5.106   0.766
    1STR    H1Q12610   2.813   4.956   0.834
    1STR    H1R12611   3.109   5.184   0.935
    1STR    H1S12612   3.232   5.090   0.759
    1STR    H1T12613   3.232   5.267   0.744
    1STR    H1U12614   3.124   5.168   0.645
    1STR    H1V12615   2.930   5.305   0.720
    1STR    H1W12616   3.014   5.388   0.852
    1STR    H1X12617   2.779   5.246   1.206
    1STR    H1Y12618   2.581   5.064   1.081
    1STR    H1Z12619   2.586   4.820   1.032
    1STR    H2012620   2.895   4.618   0.998
    1STR    H2112621   2.769   4.625   1.118
    1STR    H2212622   2.720   4.624   0.955
    1STR    H2312623   3.032   4.729   0.942
    1STR    H2712624   3.008   5.064   1.068
    1STR    H2812625   2.998   4.755   0.457
    1STR    H2912626   3.000   4.965   0.338
    1STR    H2A12627   3.228   5.197   0.314
    1STR    H2B12628   3.193   5.253   0.470
    1STR    H2C12629   3.058   5.204   0.371
    1STR   BCK112630   3.169   4.733   2.110
    1STR    O0312631   3.271   4.785   2.150
    1STR    N0412632   3.161   4.614   2.047
    1STR    C0512633   3.244   4.502   2.062
    1STR    C0612634   3.204   4.386   2.133
    1STR    C0712635   3.306   4.302   2.185
    1STR    N0812636   3.370   4.355   2.298
    1STR    C0912637   3.503   4.356   2.316
    1STR    O0A12638   3.568   4.256   2.344
    1STR    O0B12639   3.562   4.470   2.269
    1STR    C0C12640   3.564   4.587   2.349
    1STR    C0D12641   3.688   4.672   2.327
    1STR    C0E12642   3.444   4.679   2.331
    1STR    O0F12643   3.329   4.600   2.301
    1STR    C0G12644   3.212   4.637   2.369
    1STR    C0H12645   3.076   4.571   2.324
    1STR    C0I12646   3.250   4.575   2.496
    1STR    O0J12647   3.196   4.638   2.608
    1STR    C0K12648   3.061   4.661   2.602
    1STR    C0M12649   3.027   4.799   2.541
    1STR    C0N12650   2.973   4.536   2.582
    1STR    O0O12651   3.006   4.401   2.548
    1STR    C0P12652   3.098   4.320   2.601
    1STR    O0Q12653   3.109   4.203   2.569
    1STR    N0R12654   3.182   4.384   2.680
    1STR    C0S12655   3.316   4.361   2.706
    1STR    C0T12656   3.378   4.236   2.693
    1STR    C0U12657   3.513   4.223   2.727
    1STR    C0V12658   3.589   4.336   2.765
    1STR    C0W12659   3.733   4.321   2.800
    1STR    C0X12660   3.530   4.463   2.768
    1STR    N0Y12661   3.606   4.580   2.782
    1STR   BCK212662   3.596   4.678   2.692
    1STR    O1012663   3.512   4.675   2.609
    1STR    C1312664   3.391   4.470   2.751
    1STR    C1412665   3.403   4.275   2.089
    1STR    C1512666   3.452   4.387   2.022
    1STR    C1612667   3.378   4.507   2.025
    1STR    C1712668   3.439   4.640   2.001
    1STR    H1B12669   3.079   4.599   1.992
    1STR    H1C12670   3.104   4.374   2.168
    1STR    H1D12671   3.340   4.454   2.303
    1STR    H1E12672   3.569   4.540   2.447
    1STR    H1F12673   3.688   4.713   2.226
    1STR    H1G12674   3.687   4.755   2.397
    1STR    H1H12675   3.778   4.613   2.343
    1STR    H1I12676   3.465   4.756   2.258
    1STR    H1J12677   3.426   4.746   2.414
    1STR    H1K12678   3.206   4.745   2.373
    1STR    H1M12679   3.071   4.466   2.347
    1STR    H1N12680   3.036   4.574   2.226
    1STR    H1O12681   2.992   4.625   2.361
    1STR    H1P12682   3.230   4.472   2.477
    1STR    H1Q12683   3.353   4.559   2.516
    1STR    H1R12684   3.038   4.681   2.704
    1STR    H1S12685   2.985   4.866   2.615
    1STR    H1T12686   2.956   4.798   2.458
    1STR    H1U12687   3.114   4.856   2.512
    1STR    H1V12688   2.892   4.560   2.519
    1STR    H1W12689   2.930   4.528   2.675
    1STR    H1X12690   3.157   4.482   2.692
    1STR    H1Y12691   3.321   4.150   2.661
    1STR    H1Z12692   3.558   4.126   2.722
    1STR    H2012693   3.790   4.316   2.707
    1STR    H2112694   3.768   4.404   2.860
    1STR    H2212695   3.746   4.229   2.857
    1STR    H2312696   3.653   4.597   2.869
    1STR    H2712697   3.344   4.565   2.764
    1STR    H2812698   3.472   4.195   2.109
    1STR    H2912699   3.550   4.379   1.980
    1STR    H2A12700   3.367   4.709   1.966
    1STR    H2B12701   3.501   4.650   1.922
    1STR    H2C12702   3.496   4.679   2.083
    1STR   BCK112703   3.377   4.700   3.709
    1STR    O0312704   3.279   4.667   3.775
    1STR    N0412705   3.383   4.805   3.627
    1STR    C0512706   3.287   4.899   3.597
    1STR    C0612707   3.150   4.872   3.593
    1STR    C0712708   3.060   4.979   3.597
    1STR    N0812709   2.943   4.949   3.658
    1STR    C0912710   2.898   5.005   3.768
    1STR    O0A12711   2.911   5.122   3.803
    1STR    O0B12712   2.860   4.906   3.845
    1STR    C0C12713   2.949   4.870   3.949
    1STR    C0D12714   2.894   4.739   4.005
    1STR    C0E12715   3.093   4.852   3.899
    1STR    O0F12716   3.161   4.973   3.865
    1STR    C0G12717   3.271   5.017   3.942
    1STR    C0H12718   3.384   4.913   3.954
    1STR    C0I12719   3.333   5.140   3.877
    1STR    O0J12720   3.289   5.271   3.893
    1STR    C0K12721   3.323   5.333   4.012
    1STR    C0M12722   3.185   5.335   4.075
    1STR    C0N12723   3.443   5.270   4.087
    1STR    O0O12724   3.469   5.341   4.206
    1STR    C0P12725   3.512   5.278   4.315
    1STR    O0Q12726   3.607   5.314   4.381
    1STR    N0R12727   3.441   5.173   4.354
    1STR    C0S12728   3.319   5.130   4.309
    1STR    C0T12729   3.204   5.207   4.333
    1STR    C0U12730   3.076   5.153   4.308
    1STR    C0V12731   3.064   5.021   4.262
    1STR    C0W12732   2.923   4.964   4.261
    1STR    C0X12733   3.180   4.943   4.237
    1STR    N0Y12734   3.161   4.816   4.190
    1STR   BCK212735   3.232   4.705   4.175
    1STR    O1012736   3.179   4.611   4.117
    1STR    C1312737   3.308   4.999   4.258
    1STR    C1412738   3.101   5.111   3.573
    1STR    C1512739   3.238   5.136   3.561
    1STR    C1612740   3.329   5.031   3.583
    1STR    C1712741   3.473   5.060   3.618
    1STR    H1B12742   3.476   4.831   3.597
    1STR    H1C12743   3.116   4.772   3.614
    1STR    H1D12744   2.905   4.857   3.642
    1STR    H1E12745   2.949   4.953   4.018
    1STR    H1F12746   2.897   4.660   3.930
    1STR    H1G12747   2.950   4.699   4.089
    1STR    H1H12748   2.791   4.751   4.037
    1STR    H1I12749   3.084   4.789   3.813
    1STR    H1J12750   3.153   4.788   3.958
    1STR    H1K12751   3.231   5.049   4.035
    1STR    H1M12752   3.430   4.897   3.858
    1STR    H1N12753   3.353   4.814   3.983
    1STR    H1O12754   3.463   4.943   4.021
    1STR    H1P12755   3.442   5.136   3.873
    1STR    H1Q12756   3.294   5.133   3.782
    1STR    H1R12757   3.350   5.436   3.990
    1STR    H1S12758   3.184   5.389   4.168
    1STR    H1T12759   3.147   5.233   4.086
    1STR    H1U12760   3.113   5.382   4.009
    1STR    H1V12761   3.533   5.276   4.026
    1STR    H1W12762   3.433   5.163   4.102
    1STR    H1X12763   3.473   5.140   4.444
    1STR    H1Y12764   3.212   5.306   4.374
    1STR    H1Z12765   2.988   5.211   4.326
    1STR    H2012766   2.858   5.026   4.200
    1STR    H2112767   2.915   4.861   4.228
    1STR    H2212768   2.882   4.963   4.362
    1STR    H2312769   3.068   4.802   4.154
    1STR    H2712770   3.398   4.944   4.241
    1STR    H2812771   3.030   5.191   3.580
    1STR    H2912772   3.270   5.239   3.556
    1STR    H2A12773   3.529   4.997   3.553
    1STR    H2B12774   3.503   5.026   3.715
    1STR    H2C12775   3.497   5.166   3.609
    1STR   BCK112776   3.131   4.789   5.172
    1STR    O0312777   3.222   4.710   5.190
    1STR    N0412778   3.000   4.757   5.172
    1STR    C0512779   2.929   4.638   5.175
    1STR    C0612780   2.833   4.612   5.274
    1STR    C0712781   2.783   4.481   5.287
    1STR    N0812782   2.788   4.419   5.407
    1STR    C0912783   2.910   4.375   5.439
    1STR    O0A12784   2.926   4.275   5.508
    1STR    O0B12785   3.012   4.448   5.384
    1STR    C0C12786   3.108   4.507   5.467
    1STR    C0D12787   3.237   4.431   5.452
    1STR    C0E12788   3.128   4.660   5.462
    1STR    O0F12789   3.015   4.740   5.429
    1STR    C0G12790   3.031   4.882   5.430
    1STR    C0H12791   2.931   4.973   5.355
    1STR    C0I12792   2.993   4.912   5.563
    1STR    O0J12793   3.105   4.893   5.641
    1STR    C0K12794   3.106   4.981   5.746
    1STR    C0M12795   3.162   5.106   5.679
    1STR    C0N12796   2.970   4.995   5.819
    1STR    O0O12797   2.843   4.978   5.760
    1STR    C0P12798   2.759   4.870   5.763
    1STR    O0Q12799   2.639   4.890   5.760
    1STR    N0R12800   2.791   4.739   5.757
    1STR    C0S12801   2.883   4.634   5.746
    1STR    C0T12802   2.822   4.509   5.730
    1STR    C0U12803   2.892   4.389   5.751
    1STR    C0V12804   3.028   4.391   5.787
    1STR    C0W12805   3.103   4.262   5.808
    1STR    C0X12806   3.096   4.513   5.788
    1STR    N0Y12807   3.233   4.504   5.797
    1STR   BCK212808   3.332   4.579   5.749
    1STR    O1012809   3.322   4.697   5.716
    1STR    C1312810   3.024   4.632   5.762
    1STR    C1412811   2.794   4.390   5.182
    1STR    C1512812   2.871   4.425   5.072
    1STR    C1612813   2.947   4.540   5.078
    1STR    C1712814   3.061   4.546   4.992
    1STR    H1B12815   2.942   4.831   5.207
    1STR    H1C12816   2.816   4.682   5.354
    1STR    H1D12817   2.710   4.363   5.437
    1STR    H1E12818   3.067   4.488   5.562
    1STR    H1F12819   3.272   4.440   5.349
    1STR    H1G12820   3.313   4.470   5.518
    1STR    H1H12821   3.219   4.326   5.475
    1STR    H1I12822   3.216   4.685   5.407
    1STR    H1J12823   3.159   4.690   5.559
    1STR    H1K12824   3.135   4.911   5.416
    1STR    H1M12825   2.830   4.957   5.392
    1STR    H1N12826   2.928   4.968   5.248
    1STR    H1O12827   2.956   5.077   5.371
    1STR    H1P12828   2.953   5.013   5.570
    1STR    H1Q12829   2.912   4.844   5.582
    1STR    H1R12830   3.182   4.945   5.816
    1STR    H1S12831   3.248   5.077   5.618
    1STR    H1T12832   3.194   5.174   5.753
    1STR    H1U12833   3.091   5.159   5.617
    1STR    H1V12834   2.970   5.093   5.861
    1STR    H1W12835   2.969   4.929   5.900
    1STR    H1X12836   2.699   4.701   5.767
    1STR    H1Y12837   2.717   4.503   5.708
    1STR    H1Z12838   2.841   4.295   5.741
    1STR    H2012839   3.183   4.255   5.733
    1STR    H2112840   3.145   4.260   5.908
    1STR    H2212841   3.037   4.177   5.793
    1STR    H2312842   3.266   4.423   5.847
    1STR    H2712843   3.082   4.719   5.754
    1STR    H2812844   2.758   4.289   5.189
    1STR    H2912845   2.881   4.356   4.991
    1STR    H2A12846   3.093   4.645   4.987
    1STR    H2B12847   3.041   4.511   4.892
    1STR    H2C12848   3.142   4.499   5.047
    1STR   BCK112849   4.768   6.108   0.455
    1STR    O0312850   4.718   5.997   0.441
    1STR    N0412851   4.899   6.112   0.422
    1STR    C0512852   5.012   6.195   0.433
    1STR    C0612853   5.003   6.315   0.497
    1STR    C0712854   5.109   0.061   0.526
    1STR    N0812855   5.090   0.137   0.637
    1STR    C0912856   5.039   0.257   0.637
    1STR    O0A12857   5.103   0.355   0.604
    1STR    O0B12858   4.914   0.255   0.687
    1STR    C0C12859   4.886   0.198   0.815
    1STR    C0D12860   4.760   0.275   0.853
    1STR    C0E12861   4.867   0.044   0.832
    1STR    O0F12862   4.951   6.301   0.752
    1STR    C0G12863   4.964   6.163   0.783
    1STR    C0H12864   4.833   6.082   0.770
    1STR    C0I12865   5.069   6.076   0.716
    1STR    O0J12866   5.190   6.137   0.677
    1STR    C0K12867   5.290   6.171   0.768
    1STR    C0M12868   5.270   6.314   0.815
    1STR    C0N12869   5.312   6.067   0.878
    1STR    O0O12870   5.427   6.108   0.950
    1STR    C0P12871   5.409   6.131   1.077
    1STR    O0Q12872   5.370   6.044   1.155
    1STR    N0R12873   5.408   6.263   1.099
    1STR    C0S12874   5.291   6.336   1.119
    1STR    C0T12875   5.289   0.137   1.115
    1STR    C0U12876   5.165   0.204   1.118
    1STR    C0V12877   5.045   0.133   1.134
    1STR    C0W12878   4.912   0.202   1.145
    1STR    C0X12879   5.048   6.334   1.140
    1STR    N0Y12880   4.931   6.265   1.151
    1STR   BCK212881   4.906   6.153   1.085
    1STR    O1012882   4.807   6.153   1.015
    1STR    C1312883   5.169   6.269   1.124
    1STR    C1412884   5.237   0.029   0.481
    1STR    C1512885   5.254   6.242   0.424
    1STR    C1612886   5.144   6.155   0.404
    1STR    C1712887   5.178   6.012   0.382
    1STR    H1B12888   4.915   6.027   0.370
    1STR    H1C12889   4.908   6.335   0.537
    1STR    H1D12890   5.037   0.074   0.698
    1STR    H1E12891   4.970   0.227   0.879
    1STR    H1F12892   4.688   0.275   0.772
    1STR    H1G12893   4.709   0.234   0.939
    1STR    H1H12894   4.786   0.379   0.875
    1STR    H1I12895   4.762   0.015   0.823
    1STR    H1J12896   4.890   0.023   0.933
    1STR    H1K12897   5.007   6.170   0.880
    1STR    H1M12898   4.822   6.035   0.674
    1STR    H1N12899   4.744   6.140   0.790
    1STR    H1O12900   4.833   5.997   0.838
    1STR    H1P12901   5.085   5.987   0.776
    1STR    H1Q12902   5.027   6.036   0.625
    1STR    H1R12903   5.381   6.173   0.708
    1STR    H1S12904   5.352   0.008   0.876
    1STR    H1T12905   5.175   6.331   0.865
    1STR    H1U12906   5.279   0.041   0.732
    1STR    H1V12907   5.327   5.969   0.835
    1STR    H1W12908   5.222   6.060   0.940
    1STR    H1X12909   5.477   6.312   1.045
    1STR    H1Y12910   5.380   0.193   1.106
    1STR    H1Z12911   5.163   0.312   1.112
    1STR    H2012912   4.838   0.160   1.079
    1STR    H2112913   4.869   0.185   1.243
    1STR    H2212914   4.920   0.309   1.124
    1STR    H2312915   4.847   6.321   1.161
    1STR    H2712916   5.170   6.164   1.125
    1STR    H2812917   5.320   0.093   0.508
    1STR    H2912918   5.354   6.210   0.401
    1STR    H2A12919   5.091   5.953   0.357
    1STR    H2B12920   5.218   5.972   0.475
    1STR    H2C12921   5.257   6.007   0.308
    1STR   BCK112922   4.811   0.042   2.191
    1STR    O0312923   4.749   6.281   2.217
    1STR    N0412924   4.773   0.133   2.101
    1STR    C0512925   4.652   0.180   2.055
    1STR    C0612926   4.535   0.113   2.089
    1STR    C0712927   4.410   0.175   2.082
    1STR    N0812928   4.300   0.099   2.113
    1STR    C0912929   4.275   0.093   2.243
    1STR    O0A12930   4.235   0.187   2.311
    1STR    O0B12931   4.325   6.318   2.284
    1STR    C0C12932   4.392   6.310   2.409
    1STR    C0D12933   4.430   6.163   2.418
    1STR    C0E12934   4.520   0.054   2.411
    1STR    O0F12935   4.491   0.192   2.406
    1STR    C0G12936   4.592   0.276   2.356
    1STR    C0H12937   4.532   0.410   2.320
    1STR    C0I12938   4.721   0.284   2.431
    1STR    O0J12939   4.832   0.294   2.346
    1STR    C0K12940   4.939   0.360   2.409
    1STR    C0M12941   5.067   0.287   2.374
    1STR    C0N12942   4.939   0.504   2.360
    1STR    O0O12943   4.838   0.571   2.430
    1STR    C0P12944   4.865   0.682   2.498
    1STR    O0Q12945   4.950   0.765   2.467
    1STR    N0R12946   4.792   0.693   2.608
    1STR    C0S12947   4.711   0.590   2.651
    1STR    C0T12948   4.574   0.594   2.625
    1STR    C0U12949   4.496   0.480   2.649
    1STR    C0V12950   4.558   0.361   2.687
    1STR    C0W12951   4.469   0.240   2.675
    1STR    C0X12952   4.696   0.356   2.721
    1STR    N0Y12953   4.765   0.237   2.734
    1STR   BCK212954   4.884   0.216   2.789
    1STR    O1012955   4.934   0.292   2.870
    1STR    C1312956   4.771   0.475   2.705
    1STR    C1412957   4.400   0.308   2.040
    1STR    C1512958   4.518   0.377   2.005
    1STR    C1612959   4.643   0.313   2.012
    1STR    C1712960   4.769   0.391   1.990
    1STR    H1B12961   4.855   0.168   2.051
    1STR    H1C12962   4.546   0.015   2.130
    1STR    H1D12963   4.306   0.006   2.076
    1STR    H1E12964   4.325   0.002   2.488
    1STR    H1F12965   4.494   6.133   2.335
    1STR    H1G12966   4.486   6.143   2.509
    1STR    H1H12967   4.341   6.101   2.419
    1STR    H1I12968   4.578   0.027   2.327
    1STR    H1J12969   4.585   0.032   2.494
    1STR    H1K12970   4.627   0.231   2.270
    1STR    H1M12971   4.438   0.395   2.268
    1STR    H1N12972   4.601   0.466   2.258
    1STR    H1O12973   4.508   0.468   2.406
    1STR    H1P12974   4.712   0.376   2.484
    1STR    H1Q12975   4.735   0.199   2.495
    1STR    H1R12976   4.929   0.360   2.517
    1STR    H1S12977   5.061   0.185   2.411
    1STR    H1T12978   5.153   0.333   2.424
    1STR    H1U12979   5.082   0.285   2.267
    1STR    H1V12980   4.919   0.509   2.254
    1STR    H1W12981   5.037   0.549   2.380
    1STR    H1X12982   4.803   0.776   2.663
    1STR    H1Y12983   4.528   0.682   2.583
    1STR    H1Z12984   4.391   0.481   2.625
    1STR    H2012985   4.525   0.149   2.660
    1STR    H2112986   4.400   0.232   2.755
    1STR    H2212987   4.399   0.253   2.593
    1STR    H2312988   4.730   0.158   2.681
    1STR    H2712989   4.878   0.473   2.719
    1STR    H2812990   4.303   0.354   2.037
    1STR    H2912991   4.511   0.481   1.976
    1STR    H2A12992   4.821   0.403   2.085
    1STR    H2B12993   4.745   0.489   1.951
    1STR    H2C12994   4.834   0.336   1.922
    1STR   BCK112995   4.842   6.218   3.602
    1STR    O0312996   4.957   6.189   3.617
    1STR    N0412997   4.755   6.138   3.660
    1STR    C0512998   4.771   6.007   3.699
    1STR    C0612999   4.800   5.975   3.833
    1STR    C0713000   4.875   5.859   3.856
    1STR    N0813001   5.002   5.889   3.900
    1STR    C0913002   5.085   5.930   3.802
    1STR    O0A13003   5.116   5.858   3.707
    1STR    O0B13004   5.122   6.061   3.801
    1STR    C0C13005   5.106   6.153   3.907
    1STR    C0D13006   5.250   6.186   3.940
    1STR    C0E13007   5.027   6.278   3.876
    1STR    O0F13008   4.892   6.238   3.867
    1STR    C0G13009   4.785   6.322   3.904
    1STR    C0H13010   4.645   6.274   3.857
    1STR    C0I13011   4.783   6.313   4.048
    1STR    O0J13012   4.750   0.102   4.095
    1STR    C0K13013   4.620   0.156   4.070
    1STR    C0M13014   4.606   0.234   3.940
    1STR    C0N13015   4.499   0.070   4.117
    1STR    O0O13016   4.529   6.275   4.156
    1STR    C0P13017   4.477   6.170   4.088
    1STR    O0Q13018   4.380   6.178   4.014
    1STR    N0R13019   4.535   6.051   4.102
    1STR    C0S13020   4.647   5.999   4.166
    1STR    C0T13021   4.663   5.859   4.162
    1STR    C0U13022   4.772   5.797   4.225
    1STR    C0V13023   4.871   5.874   4.287
    1STR    C0W13024   4.988   5.808   4.355
    1STR    C0X13025   4.859   6.013   4.288
    1STR    N0Y13026   4.967   6.094   4.316
    1STR   BCK213027   5.075   6.093   4.238
    1STR    O1013028   5.103   6.000   4.165
    1STR    C1313029   4.744   6.073   4.238
    1STR    C1413030   4.856   5.750   3.770
    1STR    C1513031   4.794   5.773   3.647
    1STR    C1613032   4.768   5.904   3.605
    1STR    C1713033   4.756   5.938   3.460
    1STR    H1B13034   4.703   6.195   3.724
    1STR    H1C13035   4.801   6.048   3.910
    1STR    H1D13036   5.009   5.938   3.989
    1STR    H1E13037   5.048   6.111   3.985
    1STR    H1F13038   5.303   6.221   3.852
    1STR    H1G13039   5.256   6.265   4.014
    1STR    H1H13040   5.300   6.097   3.979
    1STR    H1I13041   5.068   6.314   3.784
    1STR    H1J13042   5.042   0.016   3.948
    1STR    H1K13043   4.804   0.084   3.876
    1STR    H1M13044   4.627   6.168   3.868
    1STR    H1N13045   4.616   6.310   3.761
    1STR    H1O13046   4.563   6.317   3.910
    1STR    H1P13047   4.717   6.234   4.066
    1STR    H1Q13048   4.869   6.263   4.090
    1STR    H1R13049   4.618   0.246   4.131
    1STR    H1S13050   4.522   0.302   3.948
    1STR    H1T13051   4.590   0.176   3.850
    1STR    H1U13052   4.697   0.292   3.925
    1STR    H1V13053   4.419   0.073   4.043
    1STR    H1W13054   4.458   0.122   4.201
    1STR    H1X13055   4.481   5.982   4.053
    1STR    H1Y13056   4.588   5.797   4.115
    1STR    H1Z13057   4.780   5.690   4.226
    1STR    H2013058   5.082   5.821   4.303
    1STR    H2113059   4.999   5.851   4.454
    1STR    H2213060   4.975   5.701   4.362
    1STR    H2313061   4.956   6.169   4.385
    1STR    H2713062   4.733   6.178   4.256
    1STR    H2813063   4.911   5.659   3.784
    1STR    H2913064   4.792   5.691   3.580
    1STR    H2A13065   4.774   6.042   3.441
    1STR    H2B13066   4.664   5.904   3.414
    1STR    H2C13067   4.844   5.904   3.412
    1STR   BCK113068   5.097   6.232   5.236
    1STR    O0313069   5.014   6.215   5.324
    1STR    N0413070   5.119   0.005   5.170
    1STR    C0513071   5.061   0.129   5.191
    1STR    C0613072   4.924   0.145   5.209
    1STR    C0713073   4.862   0.270   5.222
    1STR    N0813074   4.727   0.270   5.247
    1STR    C0913075   4.688   0.307   5.366
    1STR    O0A13076   4.726   0.407   5.429
    1STR    O0B13077   4.629   0.204   5.416
    1STR    C0C13078   4.690   0.143   5.528
    1STR    C0D13079   4.574   0.086   5.602
    1STR    C0E13080   4.790   0.035   5.492
    1STR    O0F13081   4.914   0.084   5.448
    1STR    C0G13082   5.021   0.138   5.521
    1STR    C0H13083   5.151   0.062   5.497
    1STR    C0I13084   5.026   0.287   5.515
    1STR    O0J13085   5.152   0.331   5.469
    1STR    C0K13086   5.224   0.420   5.551
    1STR    C0M13087   5.136   0.533   5.605
    1STR    C0N13088   5.296   0.334   5.653
    1STR    O0O13089   5.345   0.419   5.754
    1STR    C0P13090   5.376   0.367   5.870
    1STR    O0Q13091   5.490   0.338   5.902
    1STR    N0R13092   5.274   0.345   5.952
    1STR    C0S13093   5.141   0.341   5.917
    1STR    C0T13094   5.062   0.456   5.918
    1STR    C0U13095   4.927   0.446   5.885
    1STR    C0V13096   4.873   0.323   5.843
    1STR    C0W13097   4.729   0.328   5.800
    1STR    C0X13098   4.952   0.204   5.842
    1STR    N0Y13099   4.896   0.082   5.804
    1STR   BCK213100   4.946   6.299   5.771
    1STR    O1013101   4.873   6.201   5.755
    1STR    C1313102   5.086   0.218   5.882
    1STR    C1413103   4.940   0.386   5.218
    1STR    C1513104   5.080   0.372   5.208
    1STR    C1613105   5.139   0.245   5.198
    1STR    C1713106   5.287   0.229   5.201
    1STR    H1B13107   5.188   0.003   5.097
    1STR    H1C13108   4.871   0.056   5.233
    1STR    H1D13109   4.680   0.186   5.218
    1STR    H1E13110   4.746   0.216   5.585
    1STR    H1F13111   4.516   0.020   5.536
    1STR    H1G13112   4.611   0.027   5.685
    1STR    H1H13113   4.507   0.165   5.636
    1STR    H1I13114   4.750   6.316   5.411
    1STR    H1J13115   4.805   6.304   5.569
    1STR    H1K13116   5.008   0.123   5.620
    1STR    H1M13117   5.189   0.079   5.399
    1STR    H1N13118   5.135   6.296   5.507
    1STR    H1O13119   5.229   0.089   5.567
    1STR    H1P13120   4.950   0.323   5.450
    1STR    H1Q13121   4.992   0.324   5.611
    1STR    H1R13122   5.300   0.464   5.487
    1STR    H1S13123   5.197   0.604   5.661
    1STR    H1T13124   5.060   0.501   5.674
    1STR    H1U13125   5.084   0.584   5.524
    1STR    H1V13126   5.378   0.279   5.607
    1STR    H1W13127   5.230   0.258   5.692
    1STR    H1X13128   5.301   0.313   6.044
    1STR    H1Y13129   5.105   0.551   5.947
    1STR    H1Z13130   4.864   0.534   5.888
    1STR    H2013131   4.688   0.229   5.792
    1STR    H2113132   4.671   0.383   5.873
    1STR    H2213133   4.720   0.381   5.706
    1STR    H2313134   4.796   0.084   5.799
    1STR    H2713135   5.155   0.136   5.884
    1STR    H2813136   4.893   0.481   5.230
    1STR    H2913137   5.144   0.458   5.213
    1STR    H2A13138   5.323   0.187   5.293
    1STR    H2B13139   5.335   0.325   5.186
    1STR    H2C13140   5.306   0.159   5.123
    1STR   BCK113141   4.893   1.873   0.654
    1STR    O0313142   4.877   1.764   0.707
    1STR    N0413143   4.831   1.908   0.543
    1STR    C0513144   4.725   1.845   0.485
    1STR    C0613145   4.709   1.706   0.493
    1STR    C0713146   4.587   1.652   0.454
    1STR    N0813147   4.559   1.528   0.498
    1STR    C0913148   4.450   1.476   0.553
    1STR    O0A13149   4.336   1.510   0.544
    1STR    O0B13150   4.485   1.380   0.626
    1STR    C0C13151   4.558   1.418   0.738
    1STR    C0D13152   4.688   1.337   0.730
    1STR    C0E13153   4.577   1.571   0.761
    1STR    O0F13154   4.453   1.640   0.770
    1STR    C0G13155   4.449   1.766   0.705
    1STR    C0H13156   4.315   1.790   0.640
    1STR    C0I13157   4.467   1.877   0.797
    1STR    O0J13158   4.593   1.884   0.859
    1STR    C0K13159   4.619   2.007   0.925
    1STR    C0M13160   4.720   2.077   0.838
    1STR    C0N13161   4.501   2.097   0.968
    1STR    O0O13162   4.387   2.019   0.994
    1STR    C0P13163   4.343   1.990   1.111
    1STR    O0Q13164   4.322   2.072   1.199
    1STR    N0R13165   4.320   1.859   1.128
    1STR    C0S13166   4.387   1.745   1.083
    1STR    C0T13167   4.312   1.631   1.052
    1STR    C0U13168   4.376   1.508   1.030
    1STR    C0V13169   4.517   1.496   1.036
    1STR    C0W13170   4.575   1.355   1.022
    1STR    C0X13171   4.597   1.613   1.055
    1STR    N0Y13172   4.737   1.606   1.032
    1STR   BCK213173   4.827   1.705   1.019
    1STR    O1013174   4.812   1.817   1.065
    1STR    C1313175   4.528   1.734   1.082
    1STR    C1413176   4.494   1.725   0.385
    1STR    C1513177   4.511   1.862   0.369
    1STR    C1613178   4.626   1.923   0.423
    1STR    C1713179   4.643   2.071   0.422
    1STR    H1B13180   4.865   1.992   0.500
    1STR    H1C13181   4.784   1.642   0.536
    1STR    H1D13182   4.640   1.474   0.521
    1STR    H1E13183   4.483   1.386   0.807
    1STR    H1F13184   4.729   1.336   0.630
    1STR    H1G13185   4.765   1.378   0.794
    1STR    H1H13186   4.668   1.234   0.760
    1STR    H1I13187   4.647   1.617   0.697
    1STR    H1J13188   4.644   1.594   0.835
    1STR    H1K13189   4.530   1.785   0.638
    1STR    H1M13190   4.303   1.728   0.554
    1STR    H1N13191   4.306   1.891   0.600
    1STR    H1O13192   4.233   1.770   0.709
    1STR    H1P13193   4.446   1.970   0.746
    1STR    H1Q13194   4.386   1.851   0.864
    1STR    H1R13195   4.672   1.986   1.017
    1STR    H1S13196   4.812   2.018   0.839
    1STR    H1T13197   4.745   2.176   0.874
    1STR    H1U13198   4.684   2.082   0.736
    1STR    H1V13199   4.473   2.162   0.886
    1STR    H1W13200   4.528   2.158   1.054
    1STR    H1X13201   4.254   1.843   1.202
    1STR    H1Y13202   4.205   1.636   1.049
    1STR    H1Z13203   4.316   1.421   1.012
    1STR    H2013204   4.673   1.357   0.977
    1STR    H2113205   4.589   1.303   1.114
    1STR    H2213206   4.509   1.285   0.972
    1STR    H2313207   4.770   1.514   1.010
    1STR    H2713208   4.585   1.822   1.104
    1STR    H2813209   4.411   1.669   0.355
    1STR    H2913210   4.432   1.917   0.321
    1STR    H2A13211   4.673   2.106   0.520
    1STR    H2B13212   4.549   2.119   0.396
    1STR    H2C13213   4.722   2.095   0.350
    1STR   BCK113214   4.652   1.474   2.129
    1STR    O0313215   4.590   1.371   2.148
    1STR    N0413216   4.762   1.476   2.056
    1STR    C0513217   4.867   1.386   2.056
    1STR    C0613218   4.990   1.444   2.087
    1STR    C0713219   5.098   1.364   2.125
    1STR    N0813220   5.184   1.422   2.214
    1STR    C0913221   5.260   1.524   2.178
    1STR    O0A13222   5.339   1.515   2.085
    1STR    O0B13223   5.237   1.641   2.241
    1STR    C0C13224   5.165   1.662   2.362
    1STR    C0D13225   5.180   1.809   2.393
    1STR    C0E13226   5.016   1.632   2.361
    1STR    O0F13227   4.996   1.495   2.386
    1STR    C0G13228   4.865   1.453   2.363
    1STR    C0H13229   4.865   1.306   2.333
    1STR    C0I13230   4.761   1.482   2.467
    1STR    O0J13231   4.639   1.462   2.404
    1STR    C0K13232   4.548   1.371   2.461
    1STR    C0M13233   4.420   1.428   2.400
    1STR    C0N13234   4.560   1.219   2.424
    1STR    O0O13235   4.671   1.138   2.464
    1STR    C0P13236   4.722   1.143   2.587
    1STR    O0Q13237   4.672   1.207   2.676
    1STR    N0R13238   4.845   1.088   2.587
    1STR    C0S13239   4.963   1.159   2.610
    1STR    C0T13240   5.086   1.112   2.560
    1STR    C0U13241   5.198   1.198   2.552
    1STR    C0V13242   5.189   1.334   2.585
    1STR    C0W13243   5.311   1.422   2.579
    1STR    C0X13244   5.064   1.383   2.626
    1STR    N0Y13245   5.036   1.516   2.642
    1STR   BCK213246   5.064   1.598   2.740
    1STR    O1013247   5.038   1.716   2.721
    1STR    C1313248   4.959   1.295   2.644
    1STR    C1413249   5.092   1.225   2.105
    1STR    C1513250   4.973   1.168   2.054
    1STR    C1613251   4.859   1.247   2.033
    1STR    C1713252   4.732   1.180   1.986
    1STR    H1B13253   4.779   1.567   2.010
    1STR    H1C13254   4.996   1.550   2.097
    1STR    H1D13255   5.133   1.438   2.301
    1STR    H1E13256   5.211   1.603   2.439
    1STR    H1F13257   5.131   1.868   2.315
    1STR    H1G13258   5.136   1.833   2.489
    1STR    H1H13259   5.286   1.835   2.395
    1STR    H1I13260   4.977   1.662   2.265
    1STR    H1J13261   4.963   1.691   2.436
    1STR    H1K13262   4.837   1.504   2.276
    1STR    H1M13263   4.956   1.268   2.293
    1STR    H1N13264   4.779   1.274   2.276
    1STR    H1O13265   4.863   1.253   2.421
    1STR    H1P13266   4.767   1.406   2.541
    1STR    H1Q13267   4.768   1.580   2.512
    1STR    H1R13268   4.549   1.386   2.568
    1STR    H1S13269   4.409   1.532   2.430
    1STR    H1T13270   4.332   1.371   2.429
    1STR    H1U13271   4.419   1.427   2.292
    1STR    H1V13272   4.553   1.208   2.317
    1STR    H1W13273   4.475   1.165   2.463
    1STR    H1X13274   4.852   1.016   2.518
    1STR    H1Y13275   5.093   1.011   2.524
    1STR    H1Z13276   5.292   1.160   2.515
    1STR    H2013277   5.290   1.525   2.606
    1STR    H2113278   5.383   1.389   2.653
    1STR    H2213279   5.355   1.421   2.480
    1STR    H2313280   4.986   1.556   2.566
    1STR    H2713281   4.868   1.336   2.681
    1STR    H2813282   5.174   1.162   2.135
    1STR    H2913283   4.967   1.061   2.041
    1STR    H2A13284   4.687   1.124   2.068
    1STR    H2B13285   4.754   1.115   1.902
    1STR    H2C13286   4.657   1.251   1.951
    1STR   BCK113287   4.954   1.726   3.634
    1STR    O0313288   4.878   1.660   3.700
    1STR    N0413289   4.923   1.837   3.565
    1STR    C0513290   4.793   1.886   3.549
    1STR    C0613291   4.683   1.801   3.560
    1STR    C0713292   4.553   1.848   3.576
    1STR    N0813293   4.461   1.755   3.616
    1STR    C0913294   4.406   1.763   3.736
    1STR    O0A13295   4.371   1.866   3.793
    1STR    O0B13296   4.417   1.644   3.794
    1STR    C0C13297   4.510   1.633   3.899
    1STR    C0D13298   4.501   1.496   3.964
    1STR    C0E13299   4.650   1.659   3.849
    1STR    O0F13300   4.658   1.802   3.833
    1STR    C0G13301   4.778   1.869   3.866
    1STR    C0H13302   4.772   2.017   3.838
    1STR    C0I13303   4.807   1.832   4.004
    1STR    O0J13304   4.911   1.742   4.013
    1STR    C0K13305   5.039   1.796   4.043
    1STR    C0M13306   5.119   1.675   4.001
    1STR    C0N13307   5.087   1.924   3.972
    1STR    O0O13308   5.013   2.035   4.018
    1STR    C0P13309   5.059   2.120   4.109
    1STR    O0Q13310   5.177   2.151   4.124
    1STR    N0R13311   4.963   2.168   4.187
    1STR    C0S13312   4.846   2.098   4.207
    1STR    C0T13313   4.722   2.136   4.149
    1STR    C0U13314   4.611   2.050   4.160
    1STR    C0V13315   4.625   1.923   4.218
    1STR    C0W13316   4.515   1.825   4.189
    1STR    C0X13317   4.748   1.886   4.279
    1STR    N0Y13318   4.777   1.754   4.307
    1STR   BCK213319   4.879   1.708   4.379
    1STR    O1013320   4.947   1.780   4.451
    1STR    C1313321   4.855   1.979   4.279
    1STR    C1413322   4.527   1.985   3.572
    1STR    C1513323   4.631   2.071   3.542
    1STR    C1613324   4.763   2.022   3.536
    1STR    C1713325   4.868   2.125   3.538
    1STR    H1B13326   5.004   1.886   3.530
    1STR    H1C13327   4.699   1.695   3.569
    1STR    H1D13328   4.483   1.663   3.580
    1STR    H1E13329   4.482   1.709   3.969
    1STR    H1F13330   4.526   1.419   3.891
    1STR    H1G13331   4.572   1.490   4.047
    1STR    H1H13332   4.400   1.481   4.002
    1STR    H1I13333   4.662   1.606   3.756
    1STR    H1J13334   4.726   1.617   3.914
    1STR    H1K13335   4.868   1.842   3.818
    1STR    H1M13336   4.677   2.045   3.794
    1STR    H1N13337   4.854   2.037   3.771
    1STR    H1O13338   4.793   2.083   3.921
    1STR    H1P13339   4.826   1.922   4.052
    1STR    H1Q13340   4.719   1.787   4.046
    1STR    H1R13341   5.049   1.818   4.148
    1STR    H1S13342   5.065   1.582   4.014
    1STR    H1T13343   5.217   1.668   4.046
    1STR    H1U13344   5.133   1.684   3.896
    1STR    H1V13345   5.076   1.915   3.865
    1STR    H1W13346   5.193   1.937   3.996
    1STR    H1X13347   4.992   2.235   4.256
    1STR    H1Y13348   4.713   2.229   4.096
    1STR    H1Z13349   4.518   2.078   4.114
    1STR    H2013350   4.462   1.860   4.101
    1STR    H2113351   4.555   1.727   4.167
    1STR    H2213352   4.436   1.819   4.262
    1STR    H2313353   4.735   1.684   4.248
    1STR    H2713354   4.953   1.954   4.314
    1STR    H2813355   4.429   2.022   3.595
    1STR    H2913356   4.612   2.177   3.537
    1STR    H2A13357   4.968   2.084   3.535
    1STR    H2B13358   4.857   2.191   3.623
    1STR    H2C13359   4.835   2.176   3.451
    1STR   BCK113360   4.640   1.562   5.160
    1STR    O0313361   4.725   1.479   5.145
    1STR    N0413362   4.515   1.520   5.186
    1STR    C0513363   4.486   1.386   5.208
    1STR    C0613364   4.446   1.339   5.334
    1STR    C0713365   4.472   1.206   5.365
    1STR    N0813366   4.564   1.194   5.466
    1STR    C0913367   4.654   1.097   5.467
    1STR    O0A13368   4.622   0.979   5.477
    1STR    O0B13369   4.781   1.136   5.448
    1STR    C0C13370   4.833   1.265   5.480
    1STR    C0D13371   4.983   1.245   5.479
    1STR    C0E13372   4.799   1.383   5.390
    1STR    O0F13373   4.669   1.441   5.405
    1STR    C0G13374   4.648   1.575   5.453
    1STR    C0H13375   4.509   1.647   5.432
    1STR    C0I13376   4.658   1.549   5.590
    1STR    O0J13377   4.712   1.648   5.674
    1STR    C0K13378   4.655   1.774   5.681
    1STR    C0M13379   4.709   1.858   5.564
    1STR    C0N13380   4.509   1.779   5.730
    1STR    O0O13381   4.450   1.655   5.700
    1STR    C0P13382   4.385   1.588   5.786
    1STR    O0Q13383   4.287   1.638   5.840
    1STR    N0R13384   4.432   1.466   5.818
    1STR    C0S13385   4.533   1.372   5.791
    1STR    C0T13386   4.495   1.241   5.758
    1STR    C0U13387   4.588   1.136   5.764
    1STR    C0V13388   4.724   1.161   5.794
    1STR    C0W13389   4.824   1.050   5.800
    1STR    C0X13390   4.768   1.292   5.811
    1STR    N0Y13391   4.905   1.322   5.811
    1STR   BCK213392   4.972   1.413   5.740
    1STR    O1013393   4.929   1.494   5.660
    1STR    C1313394   4.672   1.392   5.814
    1STR    C1413395   4.464   1.111   5.262
    1STR    C1513396   4.466   1.159   5.131
    1STR    C1613397   4.498   1.293   5.106
    1STR    C1713398   4.534   1.343   4.971
    1STR    H1B13399   4.448   1.586   5.222
    1STR    H1C13400   4.438   1.405   5.416
    1STR    H1D13401   4.604   1.287   5.481
    1STR    H1E13402   4.801   1.285   5.579
    1STR    H1F13403   5.014   1.205   5.383
    1STR    H1G13404   5.036   1.339   5.494
    1STR    H1H13405   5.011   1.176   5.558
    1STR    H1I13406   4.803   1.334   5.294
    1STR    H1J13407   4.875   1.461   5.394
    1STR    H1K13408   4.731   1.638   5.435
    1STR    H1M13409   4.420   1.591   5.456
    1STR    H1N13410   4.493   1.697   5.339
    1STR    H1O13411   4.493   1.734   5.493
    1STR    H1P13412   4.564   1.502   5.607
    1STR    H1Q13413   4.722   1.466   5.603
    1STR    H1R13414   4.705   1.803   5.769
    1STR    H1S13415   4.724   1.962   5.585
    1STR    H1T13416   4.650   1.858   5.474
    1STR    H1U13417   4.808   1.821   5.537
    1STR    H1V13418   4.453   1.860   5.686
    1STR    H1W13419   4.507   1.794   5.838
    1STR    H1X13420   4.391   1.446   5.910
    1STR    H1Y13421   4.393   1.219   5.731
    1STR    H1Z13422   4.556   1.036   5.741
    1STR    H2013423   4.900   1.066   5.724
    1STR    H2113424   4.869   1.051   5.899
    1STR    H2213425   4.775   0.955   5.782
    1STR    H2313426   4.960   1.266   5.874
    1STR    H2713427   4.715   1.488   5.825
    1STR    H2813428   4.475   1.005   5.280
    1STR    H2913429   4.455   1.088   5.053
    1STR    H2A13430   4.495   1.441   4.960
    1STR    H2B13431   4.493   1.286   4.892
    1STR    H2C13432   4.640   1.348   4.959
    1STR   BCK113433   4.790   2.968   0.598
    1STR    O0313434   4.796   2.852   0.634
    1STR    N0413435   4.882   2.999   0.506
    1STR    C0513436   4.960   3.113   0.487
    1STR    C0613437   4.911   3.243   0.501
    1STR    C0713438   4.992   3.357   0.494
    1STR    N0813439   4.949   3.480   0.539
    1STR    C0913440   4.880   3.505   0.648
    1STR    O0A13441   4.861   3.618   0.690
    1STR    O0B13442   4.845   3.393   0.707
    1STR    C0C13443   4.814   3.386   0.841
    1STR    C0D13444   4.671   3.439   0.852
    1STR    C0E13445   4.827   3.238   0.881
    1STR    O0F13446   4.903   3.158   0.794
    1STR    C0G13447   5.042   3.147   0.822
    1STR    C0H13448   5.084   3.009   0.769
    1STR    C0I13449   5.117   3.259   0.761
    1STR    O0J13450   5.247   3.239   0.709
    1STR    C0K13451   5.356   3.263   0.792
    1STR    C0M13452   5.320   3.356   0.908
    1STR    C0N13453   5.403   3.123   0.827
    1STR    O0O13454   5.519   3.130   0.906
    1STR    C0P13455   5.522   3.044   1.004
    1STR    O0Q13456   5.508   2.923   0.993
    1STR    N0R13457   5.503   3.113   1.115
    1STR    C0S13458   5.377   3.148   1.154
    1STR    C0T13459   5.360   3.275   1.210
    1STR    C0U13460   5.230   3.326   1.222
    1STR    C0V13461   5.121   3.243   1.189
    1STR    C0W13462   4.987   3.291   1.225
    1STR    C0X13463   5.138   3.114   1.139
    1STR    N0Y13464   5.029   3.035   1.111
    1STR   BCK213465   5.036   2.915   1.054
    1STR    O1013466   4.947   2.884   0.977
    1STR    C1313467   5.268   3.067   1.120
    1STR    C1413468   5.129   3.340   0.468
    1STR    C1513469   5.178   3.214   0.434
    1STR    C1613470   5.096   3.102   0.450
    1STR    C1713471   5.159   2.971   0.433
    1STR    H1B13472   4.916   2.912   0.466
    1STR    H1C13473   4.811   3.257   0.529
    1STR    H1D13474   4.983   3.563   0.491
    1STR    H1E13475   4.888   3.447   0.893
    1STR    H1F13476   4.608   3.398   0.774
    1STR    H1G13477   4.623   3.413   0.945
    1STR    H1H13478   4.670   3.548   0.841
    1STR    H1I13479   4.730   3.191   0.878
    1STR    H1J13480   4.862   3.227   0.982
    1STR    H1K13481   5.063   3.161   0.924
    1STR    H1M13482   5.132   3.017   0.674
    1STR    H1N13483   4.998   2.945   0.757
    1STR    H1O13484   5.154   2.957   0.833
    1STR    H1P13485   5.064   3.248   0.675
    1STR    H1Q13486   5.092   3.360   0.795
    1STR    H1R13487   5.433   3.310   0.732
    1STR    H1S13488   5.405   3.374   0.973
    1STR    H1T13489   5.241   3.312   0.968
    1STR    H1U13490   5.283   3.452   0.872
    1STR    H1V13491   5.424   3.064   0.738
    1STR    H1W13492   5.322   3.071   0.877
    1STR    H1X13493   5.569   3.188   1.127
    1STR    H1Y13494   5.443   3.337   1.240
    1STR    H1Z13495   5.214   3.422   1.268
    1STR    H2013496   4.907   3.241   1.174
    1STR    H2113497   4.966   3.279   1.331
    1STR    H2213498   4.992   3.397   1.203
    1STR    H2313499   4.939   3.080   1.097
    1STR    H2713500   5.284   2.968   1.079
    1STR    H2813501   5.196   3.424   0.474
    1STR    H2913502   5.282   3.202   0.407
    1STR    H2A13503   5.113   2.891   0.492
    1STR    H2B13504   5.267   2.974   0.447
    1STR    H2C13505   5.133   2.965   0.331
    1STR   BCK113506   4.846   3.203   2.192
    1STR    O0313507   4.795   3.099   2.235
    1STR    N0413508   4.787   3.282   2.104
    1STR    C0513509   4.659   3.283   2.054
    1STR    C0613510   4.578   3.171   2.065
    1STR    C0713511   4.439   3.183   2.072
    1STR    N0813512   4.379   3.077   2.135
    1STR    C0913513   4.289   3.085   2.231
    1STR    O0A13514   4.198   3.166   2.236
    1STR    O0B13515   4.320   2.997   2.324
    1STR    C0C13516   4.430   3.019   2.413
    1STR    C0D13517   4.516   2.894   2.419
    1STR    C0E13518   4.522   3.140   2.390
    1STR    O0F13519   4.453   3.263   2.400
    1STR    C0G13520   4.494   3.374   2.322
    1STR    C0H13521   4.381   3.474   2.312
    1STR    C0I13522   4.628   3.435   2.345
    1STR    O0J13523   4.695   3.527   2.263
    1STR    C0K13524   4.808   3.578   2.335
    1STR    C0M13525   4.938   3.552   2.263
    1STR    C0N13526   4.783   3.725   2.365
    1STR    O0O13527   4.663   3.729   2.436
    1STR    C0P13528   4.638   3.824   2.524
    1STR    O0Q13529   4.689   3.935   2.524
    1STR    N0R13530   4.549   3.786   2.616
    1STR    C0S13531   4.509   3.655   2.635
    1STR    C0T13532   4.374   3.621   2.652
    1STR    C0U13533   4.338   3.486   2.661
    1STR    C0V13534   4.435   3.386   2.649
    1STR    C0W13535   4.389   3.243   2.658
    1STR    C0X13536   4.572   3.419   2.639
    1STR    N0Y13537   4.665   3.323   2.607
    1STR   BCK213538   4.798   3.325   2.597
    1STR    O1013539   4.875   3.405   2.648
    1STR    C1313540   4.607   3.554   2.637
    1STR    C1413541   4.377   3.306   2.042
    1STR    C1513542   4.461   3.417   2.018
    1STR    C1613543   4.602   3.404   2.016
    1STR    C1713544   4.690   3.518   1.975
    1STR    H1B13545   4.854   3.328   2.043
    1STR    H1C13546   4.624   3.078   2.092
    1STR    H1D13547   4.438   2.995   2.146
    1STR    H1E13548   4.381   3.030   2.509
    1STR    H1F13549   4.574   2.880   2.328
    1STR    H1G13550   4.587   2.901   2.502
    1STR    H1H13551   4.454   2.806   2.437
    1STR    H1I13552   4.573   3.130   2.297
    1STR    H1J13553   4.604   3.134   2.460
    1STR    H1K13554   4.514   3.330   2.233
    1STR    H1M13555   4.292   3.424   2.274
    1STR    H1N13556   4.409   3.555   2.245
    1STR    H1O13557   4.358   3.516   2.408
    1STR    H1P13558   4.604   3.500   2.422
    1STR    H1Q13559   4.697   3.356   2.365
    1STR    H1R13560   4.822   3.529   2.432
    1STR    H1S13561   4.954   3.445   2.259
    1STR    H1T13562   5.021   3.594   2.319
    1STR    H1U13563   4.938   3.592   2.162
    1STR    H1V13564   4.772   3.783   2.274
    1STR    H1W13565   4.865   3.764   2.426
    1STR    H1X13566   4.511   3.859   2.672
    1STR    H1Y13567   4.296   3.695   2.654
    1STR    H1Z13568   4.236   3.457   2.672
    1STR    H2013569   4.468   3.170   2.650
    1STR    H2113570   4.347   3.234   2.754
    1STR    H2213571   4.310   3.224   2.585
    1STR    H2313572   4.619   3.244   2.564
    1STR    H2713573   4.709   3.581   2.618
    1STR    H2813574   4.270   3.316   2.050
    1STR    H2913575   4.420   3.515   2.009
    1STR    H2A13576   4.764   3.542   2.049
    1STR    H2B13577   4.631   3.607   1.952
    1STR    H2C13578   4.744   3.485   1.887
    1STR   BCK113579   4.777   3.214   3.772
    1STR    O0313580   4.871   3.240   3.846
    1STR    N0413581   4.766   3.116   3.680
    1STR    C0513582   4.856   3.016   3.641
    1STR    C0613583   4.816   2.879   3.643
    1STR    C0713584   4.915   2.782   3.676
    1STR    N0813585   4.892   2.684   3.773
    1STR    C0913586   4.956   2.683   3.892
    1STR    O0A13587   4.915   2.616   3.984
    1STR    O0B13588   5.067   2.763   3.900
    1STR    C0C13589   5.071   2.882   3.978
    1STR    C0D13590   5.211   2.943   3.968
    1STR    C0E13591   4.974   2.994   3.935
    1STR    O0F13592   4.855   2.933   3.895
    1STR    C0G13593   4.730   2.975   3.940
    1STR    C0H13594   4.625   2.883   3.877
    1STR    C0I13595   4.742   2.953   4.079
    1STR    O0J13596   4.677   3.054   4.151
    1STR    C0K13597   4.544   3.096   4.136
    1STR    C0M13598   4.542   3.235   4.077
    1STR    C0N13599   4.432   3.005   4.091
    1STR    O0O13600   4.417   2.882   4.160
    1STR    C0P13601   4.514   2.795   4.191
    1STR    O0Q13602   4.519   2.688   4.133
    1STR    N0R13603   4.600   2.837   4.286
    1STR    C0S13604   4.731   2.789   4.306
    1STR    C0T13605   4.772   2.662   4.262
    1STR    C0U13606   4.905   2.621   4.270
    1STR    C0V13607   5.002   2.705   4.326
    1STR    C0W13608   5.145   2.661   4.335
    1STR    C0X13609   4.964   2.833   4.365
    1STR    N0Y13610   5.062   2.925   4.390
    1STR   BCK213611   5.109   3.004   4.297
    1STR    O1013612   5.039   3.035   4.205
    1STR    C1313613   4.831   2.874   4.358
    1STR    C1413614   5.049   2.812   3.653
    1STR    C1513615   5.086   2.943   3.638
    1STR    C1613616   4.992   3.045   3.628
    1STR    C1713617   5.048   3.184   3.623
    1STR    H1B13618   4.671   3.102   3.654
    1STR    H1C13619   4.713   2.853   3.654
    1STR    H1D13620   4.802   2.639   3.782
    1STR    H1E13621   5.048   2.846   4.078
    1STR    H1F13622   5.231   2.976   3.866
    1STR    H1G13623   5.220   3.033   4.030
    1STR    H1H13624   5.288   2.872   3.997
    1STR    H1I13625   5.019   3.051   3.857
    1STR    H1J13626   4.957   3.077   4.003
    1STR    H1K13627   4.704   3.078   3.935
    1STR    H1M13628   4.671   2.790   3.848
    1STR    H1N13629   4.573   2.932   3.795
    1STR    H1O13630   4.552   2.844   3.945
    1STR    H1P13631   4.721   2.849   4.084
    1STR    H1Q13632   4.839   2.955   4.123
    1STR    H1R13633   4.518   3.113   4.236
    1STR    H1S13634   4.472   3.300   4.128
    1STR    H1T13635   4.507   3.224   3.976
    1STR    H1U13636   4.642   3.281   4.080
    1STR    H1V13637   4.428   2.995   3.984
    1STR    H1W13638   4.342   3.062   4.110
    1STR    H1X13639   4.580   2.929   4.322
    1STR    H1Y13640   4.702   2.591   4.221
    1STR    H1Z13641   4.933   2.524   4.233
    1STR    H2013642   5.185   2.655   4.233
    1STR    H2113643   5.207   2.729   4.393
    1STR    H2213644   5.148   2.563   4.383
    1STR    H2313645   5.086   2.951   4.485
    1STR    H2713646   4.816   2.976   4.382
    1STR    H2813647   5.125   2.738   3.672
    1STR    H2913648   5.190   2.962   3.647
    1STR    H2A13649   4.981   3.259   3.653
    1STR    H2B13650   5.068   3.207   3.520
    1STR    H2C13651   5.135   3.195   3.686
    1STR   BCK113652   4.978   3.082   5.298
    1STR    O0313653   4.879   3.067   5.367
    1STR    N0413654   4.995   3.184   5.214
    1STR    C0513655   4.905   3.286   5.187
    1STR    C0613656   4.767   3.268   5.173
    1STR    C0713657   4.681   3.376   5.148
    1STR    N0813658   4.547   3.355   5.152
    1STR    C0913659   4.488   3.401   5.260
    1STR    O0A13660   4.468   3.519   5.287
    1STR    O0B13661   4.471   3.298   5.339
    1STR    C0C13662   4.520   3.307   5.469
    1STR    C0D13663   4.471   3.178   5.536
    1STR    C0E13664   4.673   3.313   5.468
    1STR    O0F13665   4.729   3.441   5.443
    1STR    C0G13666   4.852   3.469   5.511
    1STR    C0H13667   4.953   3.353   5.505
    1STR    C0I13668   4.920   3.592   5.453
    1STR    O0J13669   4.880   3.721   5.490
    1STR    C0K13670   4.933   3.775   5.607
    1STR    C0M13671   4.811   3.773   5.697
    1STR    C0N13672   5.063   3.707   5.655
    1STR    O0O13673   5.098   3.745   5.787
    1STR    C0P13674   5.183   3.664   5.850
    1STR    O0Q13675   5.296   3.697   5.880
    1STR    N0R13676   5.139   3.540   5.870
    1STR    C0S13677   5.010   3.494   5.858
    1STR    C0T13678   4.903   3.572   5.901
    1STR    C0U13679   4.773   3.527   5.890
    1STR    C0V13680   4.747   3.404   5.830
    1STR    C0W13681   4.602   3.366   5.808
    1STR    C0X13682   4.854   3.321   5.789
    1STR    N0Y13683   4.820   3.196   5.737
    1STR   BCK213684   4.884   3.090   5.691
    1STR    O1013685   4.816   2.995   5.653
    1STR    C1313686   4.986   3.368   5.802
    1STR    C1413687   4.731   3.505   5.140
    1STR    C1513688   4.868   3.524   5.157
    1STR    C1613689   4.956   3.417   5.186
    1STR    C1713690   5.102   3.441   5.223
    1STR    H1B13691   5.087   3.197   5.174
    1STR    H1C13692   4.726   3.170   5.193
    1STR    H1D13693   4.527   3.259   5.129
    1STR    H1E13694   4.480   3.396   5.517
    1STR    H1F13695   4.504   3.091   5.480
    1STR    H1G13696   4.510   3.165   5.637
    1STR    H1H13697   4.363   3.178   5.541
    1STR    H1I13698   4.715   3.235   5.406
    1STR    H1J13699   4.703   3.282   5.564
    1STR    H1K13700   4.828   3.490   5.613
    1STR    H1M13701   4.980   3.327   5.408
    1STR    H1N13702   4.914   3.258   5.530
    1STR    H1O13703   5.046   3.370   5.558
    1STR    H1P13704   5.027   3.580   5.438
    1STR    H1Q13705   4.878   3.605   5.359
    1STR    H1R13706   4.957   3.879   5.586
    1STR    H1S13707   4.834   3.805   5.798
    1STR    H1T13708   4.766   3.674   5.697
    1STR    H1U13709   4.734   3.837   5.656
    1STR    H1V13710   5.146   3.733   5.590
    1STR    H1W13711   5.058   3.599   5.648
    1STR    H1X13712   5.211   3.479   5.907
    1STR    H1Y13713   4.920   3.669   5.946
    1STR    H1Z13714   4.695   3.594   5.920
    1STR    H2013715   4.583   3.365   5.703
    1STR    H2113716   4.577   3.270   5.850
    1STR    H2213717   4.533   3.440   5.844
    1STR    H2313718   4.721   3.180   5.728
    1STR    H2713719   5.071   3.311   5.771
    1STR    H2813720   4.665   3.590   5.127
    1STR    H2913721   4.901   3.626   5.158
    1STR    H2A13722   5.165   3.385   5.155
    1STR    H2B13723   5.134   3.408   5.321
    1STR    H2C13724   5.123   3.547   5.219
    1STR   BCK113725   4.937   4.742   0.538
    1STR    O0313726   5.022   4.692   0.610
    1STR    N0413727   4.835   4.682   0.479
    1STR    C0513728   4.780   4.556   0.476
    1STR    C0613729   4.642   4.562   0.454
    1STR    C0713730   4.560   4.460   0.503
    1STR    N0813731   4.430   4.493   0.535
    1STR    C0913732   4.388   4.498   0.661
    1STR    O0A13733   4.270   4.508   0.693
    1STR    O0B13734   4.483   4.486   0.750
    1STR    C0C13735   4.602   4.564   0.752
    1STR    C0D13736   4.722   4.488   0.806
    1STR    C0E13737   4.635   4.708   0.714
    1STR    O0F13738   4.558   4.780   0.621
    1STR    C0G13739   4.587   4.916   0.646
    1STR    C0H13740   4.579   5.000   0.527
    1STR    C0I13741   4.495   4.969   0.750
    1STR    O0J13742   4.590   5.013   0.845
    1STR    C0K13743   4.574   5.140   0.903
    1STR    C0M13744   4.650   5.239   0.818
    1STR    C0N13745   4.429   5.172   0.939
    1STR    O0O13746   4.396   5.045   0.983
    1STR    C0P13747   4.285   5.010   1.028
    1STR    O0Q13748   4.193   5.085   1.058
    1STR    N0R13749   4.285   4.879   1.047
    1STR    C0S13750   4.383   4.781   1.032
    1STR    C0T13751   4.344   4.648   1.012
    1STR    C0U13752   4.439   4.544   1.020
    1STR    C0V13753   4.575   4.574   1.049
    1STR    C0W13754   4.673   4.463   1.088
    1STR    C0X13755   4.615   4.708   1.034
    1STR    N0Y13756   4.747   4.736   1.001
    1STR   BCK213757   4.808   4.851   0.970
    1STR    O1013758   4.790   4.956   1.031
    1STR    C1313759   4.520   4.809   1.040
    1STR    C1413760   4.616   4.341   0.552
    1STR    C1513761   4.756   4.327   0.559
    1STR    C1613762   4.839   4.435   0.520
    1STR    C1713763   4.986   4.416   0.535
    1STR    H1B13764   4.767   4.749   0.445
    1STR    H1C13765   4.594   4.655   0.428
    1STR    H1D13766   4.370   4.547   0.473
    1STR    H1E13767   4.543   4.609   0.826
    1STR    H1F13768   4.803   4.476   0.740
    1STR    H1G13769   4.781   4.548   0.871
    1STR    H1H13770   4.695   4.390   0.846
    1STR    H1I13771   4.740   4.712   0.693
    1STR    H1J13772   4.634   4.768   0.802
    1STR    H1K13773   4.689   4.929   0.681
    1STR    H1M13774   4.478   4.984   0.496
    1STR    H1N13775   4.654   4.962   0.459
    1STR    H1O13776   4.598   5.105   0.547
    1STR    H1P13777   4.430   5.046   0.710
    1STR    H1Q13778   4.432   4.890   0.789
    1STR    H1R13779   4.630   5.126   0.994
    1STR    H1S13780   4.751   5.200   0.801
    1STR    H1T13781   4.658   5.334   0.869
    1STR    H1U13782   4.601   5.253   0.722
    1STR    H1V13783   4.367   5.200   0.854
    1STR    H1W13784   4.418   5.243   1.020
    1STR    H1X13785   4.203   4.845   1.093
    1STR    H1Y13786   4.240   4.623   0.999
    1STR    H1Z13787   4.405   4.442   1.014
    1STR    H2013788   4.774   4.472   1.051
    1STR    H2113789   4.695   4.463   1.193
    1STR    H2213790   4.633   4.366   1.059
    1STR    H2313791   4.806   4.655   0.991
    1STR    H2713792   4.557   4.909   1.048
    1STR    H2813793   4.551   4.263   0.590
    1STR    H2913794   4.799   4.235   0.595
    1STR    H2A13795   5.011   4.421   0.640
    1STR    H2B13796   5.042   4.492   0.483
    1STR    H2C13797   5.012   4.319   0.493
    1STR   BCK113798   4.560   4.651   2.193
    1STR    O0313799   4.454   4.590   2.202
    1STR    N0413800   4.646   4.607   2.100
    1STR    C0513801   4.773   4.555   2.113
    1STR    C0613802   4.870   4.635   2.168
    1STR    C0713803   5.004   4.598   2.186
    1STR    N0813804   5.077   4.675   2.273
    1STR    C0913805   5.075   4.805   2.249
    1STR    O0A13806   5.148   4.856   2.165
    1STR    O0B13807   4.972   4.871   2.307
    1STR    C0C13808   4.905   4.834   2.427
    1STR    C0D13809   4.833   4.964   2.459
    1STR    C0E13810   4.802   4.718   2.439
    1STR    O0F13811   4.852   4.589   2.413
    1STR    C0G13812   4.780   4.472   2.448
    1STR    C0H13813   4.635   4.461   2.407
    1STR    C0I13814   4.856   4.343   2.402
    1STR    O0J13815   4.995   4.352   2.370
    1STR    C0K13816   5.094   4.392   2.464
    1STR    C0M13817   5.031   4.446   2.587
    1STR    C0N13818   5.189   4.280   2.504
    1STR    O0O13819   5.318   4.334   2.534
    1STR    C0P13820   5.334   4.414   2.638
    1STR    O0Q13821   5.298   4.392   2.753
    1STR    N0R13822   5.380   4.529   2.592
    1STR    C0S13823   5.366   4.653   2.650
    1STR    C0T13824   5.480   4.730   2.675
    1STR    C0U13825   5.466   4.866   2.701
    1STR    C0V13826   5.340   4.925   2.710
    1STR    C0W13827   5.333   5.075   2.721
    1STR    C0X13828   5.224   4.846   2.698
    1STR    N0Y13829   5.102   4.907   2.714
    1STR   BCK213830   4.980   4.867   2.744
    1STR    O1013831   4.895   4.950   2.726
    1STR    C1313832   5.239   4.712   2.661
    1STR    C1413833   5.048   4.478   2.131
    1STR    C1513834   4.953   4.394   2.069
    1STR    C1613835   4.816   4.431   2.062
    1STR    C1713836   4.718   4.338   1.997
    1STR    H1B13837   4.616   4.604   2.001
    1STR    H1C13838   4.834   4.729   2.200
    1STR    H1D13839   5.032   4.652   2.361
    1STR    H1E13840   4.987   4.816   2.496
    1STR    H1F13841   4.774   5.002   2.378
    1STR    H1G13842   4.761   4.952   2.540
    1STR    H1H13843   4.904   5.041   2.488
    1STR    H1I13844   4.718   4.734   2.377
    1STR    H1J13845   4.757   4.720   2.536
    1STR    H1K13846   4.777   4.480   2.554
    1STR    H1M13847   4.628   4.437   2.301
    1STR    H1N13848   4.578   4.550   2.431
    1STR    H1O13849   4.589   4.377   2.459
    1STR    H1P13850   4.838   4.263   2.473
    1STR    H1Q13851   4.812   4.309   2.308
    1STR    H1R13852   5.152   4.472   2.417
    1STR    H1S13853   4.998   4.544   2.563
    1STR    H1T13854   5.097   4.458   2.669
    1STR    H1U13855   4.951   4.382   2.620
    1STR    H1V13856   5.200   4.212   2.420
    1STR    H1W13857   5.150   4.224   2.590
    1STR    H1X13858   5.410   4.527   2.496
    1STR    H1Y13859   5.578   4.685   2.666
    1STR    H1Z13860   5.554   4.928   2.712
    1STR    H2013861   5.233   5.115   2.705
    1STR    H2113862   5.372   5.106   2.817
    1STR    H2213863   5.394   5.118   2.642
    1STR    H2313864   5.102   5.008   2.710
    1STR    H2713865   5.153   4.656   2.634
    1STR    H2813866   5.150   4.447   2.145
    1STR    H2913867   4.986   4.300   2.028
    1STR    H2A13868   4.647   4.394   1.937
    1STR    H2B13869   4.664   4.285   2.076
    1STR    H2C13870   4.770   4.268   1.933
    1STR   BCK113871   4.832   4.825   3.681
    1STR    O0313872   4.758   4.728   3.700
    1STR    N0413873   4.804   4.929   3.606
    1STR    C0513874   4.685   4.990   3.573
    1STR    C0613875   4.563   4.941   3.618
    1STR    C0713876   4.448   5.022   3.616
    1STR    N0813877   4.327   4.967   3.651
    1STR    C0913878   4.303   4.956   3.780
    1STR    O0A13879   4.272   5.050   3.853
    1STR    O0B13880   4.340   4.834   3.818
    1STR    C0C13881   4.410   4.819   3.939
    1STR    C0D13882   4.414   4.669   3.967
    1STR    C0E13883   4.552   4.877   3.929
    1STR    O0F13884   4.543   5.015   3.893
    1STR    C0G13885   4.661   5.088   3.862
    1STR    C0H13886   4.629   5.225   3.806
    1STR    C0I13887   4.725   5.123   3.985
    1STR    O0J13888   4.772   5.011   4.047
    1STR    C0K13889   4.905   4.980   4.026
    1STR    C0M13890   4.886   4.835   3.997
    1STR    C0N13891   5.003   5.076   3.958
    1STR    O0O13892   5.025   5.170   4.064
    1STR    C0P13893   5.011   5.301   4.050
    1STR    O0Q13894   5.056   5.362   3.954
    1STR    N0R13895   4.934   5.361   4.142
    1STR    C0S13896   4.834   5.299   4.218
    1STR    C0T13897   4.702   5.346   4.201
    1STR    C0U13898   4.593   5.262   4.232
    1STR    C0V13899   4.618   5.129   4.266
    1STR    C0W13900   4.511   5.030   4.226
    1STR    C0X13901   4.748   5.087   4.303
    1STR    N0Y13902   4.779   4.953   4.307
    1STR   BCK213903   4.879   4.902   4.376
    1STR    O1013904   4.931   4.970   4.464
    1STR    C1313905   4.855   5.178   4.284
    1STR    C1413906   4.456   5.151   3.564
    1STR    C1513907   4.577   5.198   3.507
    1STR    C1613908   4.692   5.117   3.515
    1STR    C1713909   4.827   5.174   3.479
    1STR    H1B13910   4.888   4.966   3.563
    1STR    H1C13911   4.556   4.842   3.659
    1STR    H1D13912   4.313   4.878   3.605
    1STR    H1E13913   4.356   4.871   4.019
    1STR    H1F13914   4.458   4.615   3.883
    1STR    H1G13915   4.474   4.647   4.054
    1STR    H1H13916   4.313   4.633   3.985
    1STR    H1I13917   4.610   4.821   3.857
    1STR    H1J13918   4.601   4.861   4.025
    1STR    H1K13919   4.734   5.031   3.808
    1STR    H1M13920   4.526   5.228   3.774
    1STR    H1N13921   4.700   5.251   3.728
    1STR    H1O13922   4.632   5.307   3.877
    1STR    H1P13923   4.794   5.206   3.978
    1STR    H1Q13924   4.638   5.159   4.033
    1STR    H1R13925   4.944   4.987   4.123
    1STR    H1S13926   4.981   4.783   3.986
    1STR    H1T13927   4.820   4.820   3.915
    1STR    H1U13928   4.824   4.792   4.074
    1STR    H1V13929   4.965   5.120   3.866
    1STR    H1W13930   5.098   5.027   3.937
    1STR    H1X13931   4.932   5.460   4.128
    1STR    H1Y13932   4.682   5.439   4.152
    1STR    H1Z13933   4.493   5.293   4.208
    1STR    H2013934   4.490   5.038   4.121
    1STR    H2113935   4.541   4.927   4.243
    1STR    H2213936   4.415   5.053   4.270
    1STR    H2313937   4.755   4.906   4.220
    1STR    H2713938   4.957   5.143   4.297
    1STR    H2813939   4.369   5.214   3.570
    1STR    H2913940   4.583   5.297   3.466
    1STR    H2A13941   4.886   5.191   3.569
    1STR    H2B13942   4.817   5.266   3.423
    1STR    H2C13943   4.880   5.101   3.419
    1STR   BCK113944   4.838   4.752   5.205
    1STR    O0313945   4.957   4.731   5.196
    1STR    N0413946   4.761   4.667   5.271
    1STR    C0513947   4.707   4.539   5.270
    1STR    C0613948   4.613   4.497   5.366
    1STR    C0713949   4.617   4.360   5.390
    1STR    N0813950   4.737   4.329   5.453
    1STR    C0913951   4.851   4.306   5.385
    1STR    O0A13952   4.865   4.216   5.305
    1STR    O0B13953   4.944   4.400   5.397
    1STR    C0C13954   4.961   4.483   5.509
    1STR    C0D13955   5.112   4.479   5.523
    1STR    C0E13956   4.903   4.627   5.496
    1STR    O0F13957   4.761   4.645   5.519
    1STR    C0G13958   4.696   4.777   5.510
    1STR    C0H13959   4.557   4.772   5.437
    1STR    C0I13960   4.655   4.797   5.645
    1STR    O0J13961   4.646   4.920   5.708
    1STR    C0K13962   4.518   4.976   5.707
    1STR    C0M13963   4.525   5.062   5.580
    1STR    C0N13964   4.391   4.887   5.728
    1STR    O0O13965   4.412   4.754   5.775
    1STR    C0P13966   4.343   4.654   5.720
    1STR    O0Q13967   4.230   4.666   5.676
    1STR    N0R13968   4.404   4.535   5.704
    1STR    C0S13969   4.528   4.475   5.729
    1STR    C0T13970   4.543   4.339   5.696
    1STR    C0U13971   4.665   4.273   5.721
    1STR    C0V13972   4.778   4.345   5.767
    1STR    C0W13973   4.905   4.271   5.800
    1STR    C0X13974   4.771   4.484   5.780
    1STR    N0Y13975   4.892   4.558   5.785
    1STR   BCK213976   4.929   4.689   5.786
    1STR    O1013977   4.872   4.782   5.841
    1STR    C1313978   4.641   4.539   5.781
    1STR    C1413979   4.575   4.293   5.275
    1STR    C1513980   4.617   4.350   5.153
    1STR    C1613981   4.710   4.456   5.162
    1STR    C1713982   4.820   4.477   5.070
    1STR    H1B13983   4.732   4.705   5.361
    1STR    H1C13984   4.515   4.531   5.336
    1STR    H1D13985   4.751   4.395   5.529
    1STR    H1E13986   4.919   4.429   5.589
    1STR    H1F13987   5.158   4.531   5.439
    1STR    H1G13988   5.147   4.521   5.615
    1STR    H1H13989   5.145   4.375   5.521
    1STR    H1I13990   4.946   4.656   5.404
    1STR    H1J13991   4.949   4.707   5.547
    1STR    H1K13992   4.766   4.858   5.489
    1STR    H1M13993   4.500   4.684   5.466
    1STR    H1N13994   4.561   4.781   5.331
    1STR    H1O13995   4.483   4.844   5.467
    1STR    H1P13996   4.577   4.729   5.653
    1STR    H1Q13997   4.729   4.749   5.694
    1STR    H1R13998   4.523   5.041   5.795
    1STR    H1S13999   4.430   5.107   5.554
    1STR    H1T14000   4.565   5.018   5.490
    1STR    H1U14001   4.604   5.135   5.596
    1STR    H1V14002   4.336   4.882   5.634
    1STR    H1W14003   4.324   4.933   5.800
    1STR    H1X14004   4.335   4.476   5.663
    1STR    H1Y14005   4.461   4.283   5.656
    1STR    H1Z14006   4.672   4.167   5.703
    1STR    H2014007   4.897   4.167   5.770
    1STR    H2114008   4.993   4.314   5.753
    1STR    H2214009   4.919   4.276   5.909
    1STR    H2314010   4.972   4.497   5.785
    1STR    H2714011   4.625   4.637   5.820
    1STR    H2814012   4.541   4.191   5.279
    1STR    H2914013   4.601   4.298   5.060
    1STR    H2A14014   4.850   4.577   5.060
    1STR    H2B14015   4.776   4.455   4.978
    1STR    H2C14016   4.908   4.420   5.097
    1HEX    C0114017   0.362   0.151   5.960
    1HEX    C0214018   0.247   0.163   6.059
    1HEX    C0314019   0.169   0.040   6.102
    1HEX    O0414020   0.224   6.283   6.153
    1HEX    O0514021   0.041   0.059   6.084
    1HEX    C0614022   6.298   6.305   6.018
    1HEX    C0714023   6.158   6.299   6.075
    1HEX    C0814024   6.093   0.095   6.049
    1HEX    O0914025   6.179   0.205   6.054
    1HEX    C0A14026   6.186   0.277   6.163
    1HEX    O0B14027   6.108   0.280   6.257
    1HEX    C0C14028   6.296   0.375   6.149
    1HEX    C0D14029   0.088   0.368   6.229
    1HEX    C0F14030   6.067   6.196   6.010
    1HEX    O0G14031   6.106   6.061   6.006
    1HEX    C0H14032   6.017   5.978   5.948
    1HEX    O0I14033   5.927   6.011   5.872
    1HEX    C0J14034   6.035   5.832   5.975
    1HEX    C0K14035   5.996   5.798   6.117
    1HEX    C0N14036   6.154   6.261   6.222
    1HEX    O0O14037   6.170   0.036   6.296
    1HEX    C0P14038   6.290   0.049   0.022
    1HEX    C0Q14039   6.284   0.034   0.173
    1HEX    C0R14040   0.027   6.254   0.212
    1HEX    O0S14041   0.145   6.243   0.137
    1HEX    C0T14042   0.242   6.317   0.177
    1HEX    O0U14043   0.299   6.303   0.284
    1HEX    C0V14044   0.272   0.088   0.078
    1HEX    C0W14045   0.346   0.209   0.137
    1HEX    C0Y14046   6.335   0.161   0.244
    1HEX    O0Z14047   0.022   0.138   0.380
    1HEX    C1014048   0.114   0.210   0.443
    1HEX    O1114049   0.170   0.311   0.405
    1HEX    C1214050   0.161   0.152   0.571
    1HEX    C1314051   0.313   0.137   0.551
    1HEX    C1514052   6.138   0.019   0.210
    1HEX    O1614053   6.113   6.282   0.323
    1HEX    C1714054   6.041   6.174   0.304
    1HEX    O1814055   6.080   6.079   0.238
    1HEX    C1914056   5.909   6.168   0.376
    1HEX    C1A14057   5.791   6.252   0.329
    1HEX    H1D14058   0.346   0.217   5.875
    1HEX    H1E14059   0.455   0.179   6.010
    1HEX    H1F14060   0.173   0.224   6.007
    1HEX    H1G14061   0.286   0.208   6.149
    1HEX    H1H14062   0.003   6.208   6.008
    1HEX    H1I14063   6.287   6.340   5.917
    1HEX    H1J14064   6.028   0.107   6.129
    1HEX    H1K14065   6.036   0.104   5.958
    1HEX    H1M14066   6.236   0.461   6.169
    1HEX    H1N14067   6.321   0.369   6.044
    1HEX    H1O14068   0.162   0.369   6.151
    1HEX    H1P14069   0.102   0.280   6.287
    1HEX    H1R14070   6.025   6.235   5.919
    1HEX    H1S14071   5.979   6.185   6.069
    1HEX    H1T14072   6.137   5.804   5.952
    1HEX    H1U14073   5.967   5.782   5.907
    1HEX    H1V14074   5.960   5.696   6.127
    1HEX    H1W14075   5.919   5.865   6.154
    1HEX    H1Y14076   6.229   6.187   6.242
    1HEX    H1Z14077   6.060   6.219   6.255
    1HEX    H2014078   6.309   0.151   0.002
    1HEX    H2114079   0.026   6.330   6.312
    1HEX    H2214080   6.308   6.165   0.201
    1HEX    H2314081   0.053   6.263   0.316
    1HEX    H2414082   0.182   0.120   0.033
    1HEX    H2514083   0.322   0.045   6.334
    1HEX    H2614084   0.290   0.253   0.217
    1HEX    H2714085   0.363   0.282   0.058
    1HEX    H2914086   6.259   0.237   0.238
    1HEX    H2A14087   0.080   0.204   0.195
    1HEX    H2B14088   0.103   0.061   0.587
    1HEX    H2C14089   0.137   0.220   0.651
    1HEX    H2D14090   0.364   0.225   0.588
    1HEX    H2E14091   0.339   0.131   0.446
    1HEX    H2G14092   6.080   6.311   0.134
    1HEX    H2H14093   6.093   0.118   0.214
    1HEX    H2I14094   5.924   6.182   0.482
    1HEX    H2J14095   5.877   6.066   0.361
    1HEX    H2K14096   5.729   6.277   0.414
    1HEX    H2M14097   5.732   6.190   0.264
    1STR    S0014098   0.389   6.329   5.897
    1STR    S0E14099   0.158   0.511   6.313
    1STR    S0M14100   6.148   5.815   6.207
    1STR    S0X14101   0.503   0.164   0.206
    1STR    S1414102   0.383   6.329   0.623
    1STR    S1B14103   5.828   0.065   0.242
    1HEX    C0114104   0.368   0.121   1.078
    1HEX    C0214105   0.239   0.200   1.100
    1HEX    C0314106   0.140   0.127   1.188
    1HEX    O0414107   0.164   0.019   1.241
    1HEX    O0514108   0.039   0.205   1.213
    1HEX    C0614109   6.252   0.158   1.249
    1HEX    C0714110   6.192   0.102   1.379
    1HEX    C0814111   6.191   0.202   1.493
    1HEX    O0914112   6.148   0.324   1.435
    1HEX    C0A14113   6.027   0.366   1.454
    1HEX    O0B14114   5.957   0.329   1.544
    1HEX    C0C14115   5.975   0.460   1.349
    1HEX    C0D14116   6.048   0.592   1.358
    1HEX    C0F14117   6.038   0.086   1.361
    1HEX    O0G14118   5.994   6.313   1.293
    1HEX    C0H14119   5.868   6.303   1.249
    1HEX    O0I14120   5.797   0.056   1.212
    1HEX    C0J14121   5.813   6.161   1.251
    1HEX    C0K14122   5.865   6.073   1.366
    1HEX    C0N14123   6.237   6.299   1.406
    1HEX    O0O14124   0.027   6.258   1.441
    1HEX    C0P14125   0.073   6.303   1.563
    1HEX    C0Q14126   0.034   6.239   1.693
    1HEX    C0R14127   0.092   6.101   1.709
    1HEX    O0S14128   0.227   6.091   1.676
    1HEX    C0T14129   0.283   5.973   1.691
    1HEX    O0U14130   0.248   5.887   1.772
    1HEX    C0V14131   0.404   5.955   1.604
    1HEX    C0W14132   0.473   6.087   1.578
    1HEX    C0Y14133   0.089   0.000   1.791
    1HEX    O0Z14134   0.012   6.332   1.909
    1HEX    C1014135   6.264   0.082   1.936
    1HEX    O1114136   6.235   0.175   1.864
    1HEX    C1214137   6.182   0.054   2.058
    1HEX    C1314138   6.248   6.333   2.179
    1HEX    C1514139   6.225   6.225   1.715
    1HEX    O1614140   6.182   6.163   1.836
    1HEX    C1714141   6.151   6.034   1.844
    1HEX    O1814142   6.193   5.942   1.774
    1HEX    C1914143   6.046   6.005   1.947
    1HEX    C1A14144   5.909   6.043   1.893
    1HEX    H1D14145   0.448   0.187   1.050
    1HEX    H1E14146   0.398   0.069   1.169
    1HEX    H1F14147   0.189   0.229   1.008
    1HEX    H1G14148   0.263   0.294   1.146
    1HEX    H1H14149   6.238   0.077   1.182
    1HEX    H1I14150   6.196   0.245   1.219
    1HEX    H1J14151   6.282   0.225   1.545
    1HEX    H1K14152   6.131   0.164   1.575
    1HEX    H1M14153   5.870   0.476   1.372
    1HEX    H1N14154   5.983   0.413   1.251
    1HEX    H1O14155   6.065   0.612   1.464
    1HEX    H1P14156   5.989   0.675   1.321
    1HEX    H1R14157   5.991   0.173   1.316
    1HEX    H1S14158   5.991   0.072   1.456
    1HEX    H1T14159   5.835   6.117   1.155
    1HEX    H1U14160   5.705   6.169   1.259
    1HEX    H1V14161   5.818   5.974   1.369
    1HEX    H1W14162   5.863   6.115   1.466
    1HEX    H1Y14163   6.223   6.242   1.314
    1HEX    H1Z14164   6.163   6.261   1.473
    1HEX    H2014165   0.047   0.065   1.571
    1HEX    H2114166   0.180   6.302   1.559
    1HEX    H2214167   0.039   6.034   1.644
    1HEX    H2314168   0.075   6.062   1.807
    1HEX    H2414169   0.373   5.907   1.511
    1HEX    H2514170   0.471   5.889   1.659
    1HEX    H2614171   0.575   6.070   1.548
    1HEX    H2714172   0.469   6.147   1.669
    1HEX    H2914173   0.094   0.105   1.760
    1HEX    H2A14174   0.194   6.317   1.799
    1HEX    H2B14175   6.111   6.320   2.025
    1HEX    H2C14176   6.132   0.147   2.083
    1HEX    H2D14177   6.173   6.338   2.257
    1HEX    H2E14178   6.326   0.055   2.217
    1HEX    H2G14179   6.177   6.165   1.642
    1HEX    H2H14180   6.183   6.324   1.703
    1HEX    H2I14181   6.069   6.059   2.038
    1HEX    H2J14182   6.052   5.899   1.969
    1HEX    H2K14183   5.833   5.975   1.930
    1HEX    H2M14184   5.906   6.043   1.783
    1STR    S0014185   0.347   6.336   0.952
    1STR    S0E14186   6.203   0.582   1.264
    1STR    S0M14187   6.035   6.050   1.332
    1STR    S0X14188   0.395   6.178   1.445
    1STR    S1414189   6.277   6.154   2.159
    1STR    S1B14190   5.871   6.208   1.953
    1HEX    C0114191   0.339   5.973   2.744
    1HEX    C0214192   0.263   5.998   2.871
    1HEX    C0314193   0.116   5.971   2.848
    1HEX    O0414194   0.075   5.856   2.840
    1HEX    O0514195   0.048   6.082   2.831
    1HEX    C0614196   6.263   6.080   2.767
    1HEX    C0714197   6.168   6.190   2.813
    1HEX    C0814198   6.204   6.335   2.779
    1HEX    O0914199   6.101   0.094   2.803
    1HEX    C0A14200   6.089   0.158   2.922
    1HEX    O0B14201   6.151   0.128   3.021
    1HEX    C0C14202   6.000   0.280   2.924
    1HEX    C0D14203   5.984   0.354   3.062
    1HEX    C0F14204   6.041   6.170   2.736
    1HEX    O0G14205   5.995   6.038   2.752
    1HEX    C0H14206   5.963   5.968   2.646
    1HEX    O0I14207   5.954   6.011   2.531
    1HEX    C0J14208   5.933   5.823   2.677
    1HEX    C0K14209   5.955   5.781   2.823
    1HEX    C0N14210   6.146   6.168   2.962
    1HEX    O0O14211   6.265   6.154   3.034
    1HEX    C0P14212   6.339   6.268   3.069
    1HEX    C0Q14213   0.028   6.287   3.219
    1HEX    C0R14214   0.083   6.155   3.264
    1HEX    O0S14215   0.193   6.127   3.184
    1HEX    C0T14216   0.306   6.114   3.238
    1HEX    O0U14217   0.333   6.070   3.349
    1HEX    C0V14218   0.408   6.165   3.145
    1HEX    C0W14219   0.368   6.284   3.059
    1HEX    C0Y14220   0.125   0.058   3.230
    1HEX    O0Z14221   0.215   0.021   3.331
    1HEX    C1014222   0.198   0.067   3.450
    1HEX    O1114223   0.168   0.185   3.470
    1HEX    C1214224   0.223   6.299   3.554
    1HEX    C1314225   0.284  -0.001   3.688
    1HEX    C1514226   6.259   6.335   3.311
    1HEX    O1614227   6.208   6.237   3.397
    1HEX    C1714228   6.121   6.158   3.344
    1HEX    O1814229   6.124   6.110   3.233
    1HEX    C1914230   5.992   6.165   3.410
    1HEX    C1A14231   5.932   6.297   3.360
    1HEX    H1D14232   0.317   5.873   2.708
    1HEX    H1E14233   0.446   5.981   2.761
    1HEX    H1F14234   0.274   6.099   2.908
    1HEX    H1G14235   0.303   5.930   2.945
    1HEX    H1H14236   6.218   5.986   2.793
    1HEX    H1I14237   6.275   6.080   2.659
    1HEX    H1J14238   6.223   0.003   2.673
    1HEX    H1K14239   6.300   0.017   2.824
    1HEX    H1M14240   5.903   0.252   2.885
    1HEX    H1N14241   6.043   0.349   2.852
    1HEX    H1O14242   5.914   0.312   3.127
    1HEX    H1P14243   5.947   0.454   3.044
    1HEX    H1R14244   6.056   6.198   2.632
    1HEX    H1S14245   5.971   6.239   2.775
    1HEX    H1T14246   5.994   5.762   2.611
    1HEX    H1U14247   5.829   5.809   2.652
    1HEX    H1V14248   5.901   5.692   2.852
    1HEX    H1W14249   5.926   5.859   2.892
    1HEX    H1Y14250   6.091   6.076   2.982
    1HEX    H1Z14251   6.084   6.245   3.001
    1HEX    H2014252   6.334   0.020   3.018
    1HEX    H2114253   0.086   6.235   3.017
    1HEX    H2214254   0.009   6.084   3.241
    1HEX    H2314255   0.100   6.148   3.371
    1HEX    H2414256   0.440   6.079   3.087
    1HEX    H2514257   0.487   6.191   3.210
    1HEX    H2614258   0.273   6.280   3.011
    1HEX    H2714259   0.435   6.264   2.978
    1HEX    H2914260   0.081   0.157   3.244
    1HEX    H2A14261   0.170   0.068   3.134
    1HEX    H2B14262   0.292   6.227   3.512
    1HEX    H2C14263   0.130   6.246   3.566
    1HEX    H2D14264   0.389   0.020   3.677
    1HEX    H2E14265   0.273   6.256   3.757
    1HEX    H2G14266   6.189   0.051   3.252
    1HEX    H2H14267   6.292   0.070   3.382
    1HEX    H2I14268   6.005   6.156   3.516
    1HEX    H2J14269   5.941   6.078   3.372
    1HEX    H2K14270   6.001   0.037   3.377
    1HEX    H2M14271   5.833   6.323   3.396
    1STR    S0014272   0.285   6.085   2.616
    1STR    S0E14273   6.129   0.365   3.170
    1STR    S0M14274   6.128   5.752   2.855
    1STR    S0X14275   0.414   0.117   3.091
    1STR    S1414276   0.202   0.143   3.757
    1STR    S1B14277   5.955   6.328   3.192
    1HEX    C0114278   0.234   6.305   4.084
    1HEX    C0214279   0.223   6.233   4.216
    1HEX    C0314280   0.089   6.167   4.243
    1HEX    O0414281   0.047   6.069   4.182
    1HEX    O0514282   0.027   6.234   4.338
    1HEX    C0614283   6.244   6.190   4.386
    1HEX    C0714284   6.202   6.273   4.509
    1HEX    C0814285   6.260   0.074   4.496
    1HEX    O0914286   6.203   0.169   4.582
    1HEX    C0A14287   6.206   0.299   4.550
    1HEX    O0B14288   6.110   0.371   4.568
    1HEX    C0C14289   6.335   0.362   4.495
    1HEX    C0D14290   0.129   0.301   4.533
    1HEX    C0F14291   6.052   6.268   4.506
    1HEX    O0G14292   6.010   6.132   4.491
    1HEX    C0H14293   5.888   6.097   4.448
    1HEX    O0I14294   5.795   6.172   4.425
    1HEX    C0J14295   5.873   5.952   4.416
    1HEX    C0K14296   5.935   5.864   4.521
    1HEX    C0N14297   6.227   6.217   4.647
    1HEX    O0O14298   0.015   6.210   4.700
    1HEX    C0P14299   0.077   6.329   4.738
    1HEX    C0Q14300   0.098   6.320   4.886
    1HEX    C0R14301   0.169   6.185   4.908
    1HEX    O0S14302   0.290   6.197   4.978
    1HEX    C0T14303   0.359   6.090   5.009
    1HEX    O0U14304   0.323   5.975   4.988
    1HEX    C0V14305   0.493   6.118   5.071
    1HEX    C0W14306   0.509   6.257   5.135
    1HEX    C0Y14307   0.175   0.110   4.923
    1HEX    O0Z14308   0.256   0.105   5.039
    1HEX    C1014309   0.273   0.206   5.126
    1HEX    O1114310   0.383   0.242   5.168
    1HEX    C1214311   0.149   0.260   5.191
    1HEX    C1314312   0.087   0.192   5.309
    1HEX    C1514313   6.296   6.328   4.944
    1HEX    O1614314   6.243   6.239   5.037
    1HEX    C1714315   6.179   6.132   5.011
    1HEX    O1814316   6.198   6.058   4.916
    1HEX    C1914317   6.079   6.111   5.123
    1HEX    C1A14318   5.940   6.077   5.073
    1HEX    H1D14319   0.279   6.240   4.009
    1HEX    H1E14320   0.292   0.057   4.094
    1HEX    H1F14321   0.231   6.311   4.291
    1HEX    H1G14322   0.304   6.163   4.230
    1HEX    H1H14323   6.241   6.084   4.402
    1HEX    H1I14324   6.180   6.203   4.301
    1HEX    H1J14325   6.247   0.109   4.397
    1HEX    H1K14326   0.028   0.068   4.501
    1HEX    H1M14327   6.329   0.466   4.525
    1HEX    H1N14328   6.336   0.369   4.388
    1HEX    H1O14329   0.171   0.251   4.447
    1HEX    H1P14330   0.123   0.228   4.613
    1HEX    H1R14331   6.025   6.336   4.429
    1HEX    H1S14332   6.008   6.308   4.596
    1HEX    H1T14333   5.914   5.933   4.317
    1HEX    H1U14334   5.766   5.933   4.413
    1HEX    H1V14335   5.874   5.776   4.534
    1HEX    H1W14336   5.935   5.916   4.617
    1HEX    H1Y14337   6.182   6.121   4.659
    1HEX    H1Z14338   6.170   6.278   4.712
    1HEX    H2014339   0.020   0.077   4.719
    1HEX    H2114340   0.168   6.338   4.681
    1HEX    H2214341   0.194   6.139   4.814
    1HEX    H2314342   0.103   6.110   4.948
    1HEX    H2414343   0.568   6.099   4.996
    1HEX    H2514344   0.503   6.041   5.146
    1HEX    H2614345   0.552   6.247   5.235
    1HEX    H2714346   0.417   6.308   5.146
    1HEX    H2914347   0.106   0.189   4.930
    1HEX    H2A14348   0.238   0.147   4.844
    1HEX    H2B14349   0.071   0.263   5.120
    1HEX    H2C14350   0.178   0.357   5.226
    1HEX    H2D14351   0.013   0.257   5.355
    1HEX    H2E14352   0.162   0.168   5.381
    1HEX    H2G14353   6.219   0.015   4.876
    1HEX    H2H14354   6.293   0.078   5.002
    1HEX    H2I14355   6.076   6.201   5.184
    1HEX    H2J14356   6.111   6.034   5.190
    1HEX    H2K14357   5.880   6.034   5.152
    1HEX    H2M14358   5.944   6.009   4.988
    1STR    S0014359   0.070   0.007   4.029
    1STR    S0E14360   0.237   0.435   4.587
    1STR    S0M14361   6.100   5.818   4.463
    1STR    S0X14362   0.603   0.042   5.047
    1STR    S1414363   6.339   0.052   5.242
    1STR    S1B14364   5.868   6.234   5.025
    1HEX    C0114365   0.332   1.459   5.868
    1HEX    C0214366   0.210   1.438   5.954
    1HEX    C0314367   0.080   1.488   5.899
    1HEX    O0414368   0.035   1.449   5.791
    1HEX    O0514369   0.018   1.566   5.986
    1HEX    C0614370   6.218   1.574   5.976
    1HEX    C0714371   6.149   1.625   6.101
    1HEX    C0814372   6.206   1.761   6.136
    1HEX    O0914373   6.103   1.858   6.127
    1HEX    C0A14374   6.034   1.889   6.233
    1HEX    O0B14375   6.070   1.871   0.006
    1HEX    C0C14376   5.912   1.971   6.207
    1HEX    C0D14377   5.941   2.108   6.266
    1HEX    C0F14378   5.999   1.636   6.062
    1HEX    O0G14379   5.950   1.514   6.011
    1HEX    C0H14380   5.889   1.514   5.893
    1HEX    O0I14381   5.863   1.612   5.825
    1HEX    C0J14382   5.851   1.376   5.843
    1HEX    C0K14383   5.913   1.266   5.926
    1HEX    C0N14384   6.158   1.535   6.225
    1HEX    O0O14385   6.253   1.431   6.229
    1HEX    C0P14386   0.044   1.452   6.268
    1HEX    C0Q14387   0.072   1.383   0.061
    1HEX    C0R14388   0.062   1.233   0.054
    1HEX    O0S14389   0.175   1.175   6.336
    1HEX    C0T14390   0.243   1.083   0.063
    1HEX    O0U14391   0.221   1.042   0.177
    1HEX    C0V14392   0.360   1.032   6.322
    1HEX    C0W14393   0.458   1.144   6.301
    1HEX    C0Y14394   0.210   1.418   0.105
    1HEX    O0Z14395   0.243   1.370   0.230
    1HEX    C1014396   0.229   1.451   0.330
    1HEX    O1114397   0.194   1.568   0.322
    1HEX    C1214398   0.262   1.383   0.459
    1HEX    C1314399   0.390   1.445   0.515
    1HEX    C1514400   6.315   1.441   0.158
    1HEX    O1614401   6.302   1.367   0.275
    1HEX    C1714402   6.219   1.405   0.370
    1HEX    O1814403   6.168   1.321   0.444
    1HEX    C1914404   6.208   1.555   0.400
    1HEX    C1A14405   6.173   1.663   0.292
    1HEX    H1D14406   0.316   1.410   5.772
    1HEX    H1E14407   0.417   1.413   5.917
    1HEX    H1F14408   0.225   1.486   6.048
    1HEX    H1G14409   0.197   1.332   5.975
    1HEX    H1H14410   6.181   1.479   5.956
    1HEX    H1I14411   6.183   1.619   5.885
    1HEX    H1J14412   6.292   1.788   6.077
    1HEX    H1K14413   6.256   1.759   6.230
    1HEX    H1M14414   5.830   1.922   6.258
    1HEX    H1N14415   5.892   1.975   6.100
    1HEX    H1O14416   5.990   2.104   0.024
    1HEX    H1P14417   5.850   2.166   6.278
    1HEX    H1R14418   5.987   1.716   5.989
    1HEX    H1S14419   5.937   1.662   6.147
    1HEX    H1T14420   5.882   1.367   5.739
    1HEX    H1U14421   5.743   1.370   5.848
    1HEX    H1V14422   5.867   1.170   5.904
    1HEX    H1W14423   5.904   1.284   6.033
    1HEX    H1Y14424   6.066   1.480   6.228
    1HEX    H1Z14425   6.160   1.595   6.315
    1HEX    H2014426   0.059   1.557   6.276
    1HEX    H2114427   0.109   1.408   6.194
    1HEX    H2214428   6.320   1.209   6.331
    1HEX    H2314429   0.045   1.194   0.154
    1HEX    H2414430   0.327   0.991   6.227
    1HEX    H2514431   0.406   0.953   0.041
    1HEX    H2614432   0.560   1.110   6.283
    1HEX    H2714433   0.459   1.198   0.056
    1HEX    H2914434   0.220   1.525   0.098
    1HEX    H2A14435   0.282   1.370   0.042
    1HEX    H2B14436   0.278   1.278   0.435
    1HEX    H2C14437   0.176   1.390   0.525
    1HEX    H2D14438   0.444   1.489   0.431
    1HEX    H2E14439   0.454   1.370   0.559
    1HEX    H2G14440   6.215   1.450   0.119
    1HEX    H2H14441   0.018   1.538   0.177
    1HEX    H2I14442   6.308   1.574   0.435
    1HEX    H2J14443   6.146   1.569   0.488
    1HEX    H2K14444   6.207   1.651   0.192
    1HEX    H2M14445   6.218   1.751   0.326
    1STR    S0014446   0.384   1.629   5.837
    1STR    S0E14447   6.044   2.191   6.146
    1STR    S0M14448   6.087   1.261   5.877
    1STR    S0X14449   0.409   1.255   6.164
    1STR    S1414450   0.357   1.574   0.638
    1STR    S1B14451   6.016   1.736   0.257
    1HEX    C0114452   0.208   1.286   0.946
    1HEX    C0214453   0.218   1.183   1.059
    1HEX    C0314454   0.108   1.181   1.166
    1HEX    O0414455   0.069   1.072   1.206
    1HEX    O0514456   0.065   1.299   1.212
    1HEX    C0614457   6.266   1.316   1.223
    1HEX    C0714458   6.201   1.420   1.317
    1HEX    C0814459   6.213   1.568   1.282
    1HEX    O0914460   6.115   1.665   1.315
    1HEX    C0A14461   6.075   1.684   1.438
    1HEX    O0B14462   6.046   1.599   1.519
    1HEX    C0C14463   6.064   1.827   1.477
    1HEX    C0D14464   6.159   1.863   1.584
    1HEX    C0F14465   6.051   1.392   1.310
    1HEX    O0G14466   6.013   1.270   1.252
    1HEX    C0H14467   5.983   1.263   1.122
    1HEX    O0I14468   5.988   1.355   1.041
    1HEX    C0J14469   5.937   1.125   1.082
    1HEX    C0K14470   5.947   1.020   1.194
    1HEX    C0N14471   6.249   1.392   1.456
    1HEX    O0O14472   0.047   1.383   1.482
    1HEX    C0P14473   0.114   1.498   1.525
    1HEX    C0Q14474   0.098   1.548   1.670
    1HEX    C0R14475   0.143   1.437   1.765
    1HEX    O0S14476   0.221   1.498   1.865
    1HEX    C0T14477   0.341   1.457   1.893
    1HEX    O0U14478   0.379   1.340   1.887
    1HEX    C0V14479   0.425   1.568   1.952
    1HEX    C0W14480   0.481   1.672   1.852
    1HEX    C0Y14481   0.195   1.668   1.676
    1HEX    O0Z14482   0.187   1.738   1.798
    1HEX    C1014483   0.214   1.866   1.811
    1HEX    O1114484   0.238   1.945   1.721
    1HEX    C1214485   0.235   1.900   1.957
    1HEX    C1314486   0.106   1.921   2.037
    1HEX    C1514487   6.304   1.614   1.696
    1HEX    O1614488   6.200   1.578   1.781
    1HEX    C1714489   6.121   1.478   1.756
    1HEX    O1814490   6.162   1.370   1.726
    1HEX    C1914491   5.975   1.502   1.782
    1HEX    C1A14492   5.958   1.650   1.815
    1HEX    H1D14493   0.269   1.254   0.863
    1HEX    H1E14494   0.105   1.296   0.911
    1HEX    H1F14495   0.316   1.185   1.104
    1HEX    H1G14496   0.209   1.084   1.014
    1HEX    H1H14497   6.230   1.221   1.256
    1HEX    H1I14498   6.228   1.329   1.122
    1HEX    H1J14499   6.218   1.576   1.174
    1HEX    H1K14500   6.299   1.609   1.332
    1HEX    H1M14501   5.969   1.851   1.518
    1HEX    H1N14502   6.081   1.886   1.389
    1HEX    H1O14503   6.156   1.805   1.672
    1HEX    H1P14504   6.133   1.961   1.623
    1HEX    H1R14505   6.005   1.471   1.253
    1HEX    H1S14506   6.006   1.393   1.409
    1HEX    H1T14507   5.995   1.095   0.995
    1HEX    H1U14508   5.834   1.137   1.053
    1HEX    H1V14509   5.888   0.932   1.176
    1HEX    H1W14510   5.913   1.062   1.289
    1HEX    H1Y14511   6.195   1.306   1.486
    1HEX    H1Z14512   6.209   1.459   1.524
    1HEX    H2014513   0.110   1.580   1.455
    1HEX    H2114514   0.215   1.465   1.517
    1HEX    H2214515   0.201   1.362   1.713
    1HEX    H2314516   0.057   1.386   1.807
    1HEX    H2414517   0.506   1.521   2.007
    1HEX    H2514518   0.363   1.614   2.028
    1HEX    H2614519   0.550   1.735   1.906
    1HEX    H2714520   0.412   1.742   1.810
    1HEX    H2914521   0.192   1.735   1.590
    1HEX    H2A14522   0.291   1.621   1.674
    1HEX    H2B14523   0.300   1.986   1.963
    1HEX    H2C14524   0.287   1.815   2.001
    1HEX    H2D14525   0.062   2.017   2.011
    1HEX    H2E14526   0.125   1.915   2.144
    1HEX    H2G14527   6.263   1.629   1.599
    1HEX    H2H14528   6.320   1.713   1.734
    1HEX    H2I14529   5.936   1.438   1.860
    1HEX    H2J14530   5.928   1.470   1.690
    1HEX    H2K14531   6.005   1.704   1.736
    1HEX    H2M14532   6.013   1.671   1.904
    1STR    S0014533   0.273   1.447   0.993
    1STR    S0E14534   6.317   1.852   1.500
    1STR    S0M14535   6.119   0.969   1.213
    1STR    S0X14536   0.565   1.605   1.708
    1STR    S1414537   6.327   1.795   1.995
    1STR    S1B14538   5.794   1.721   1.808
    1HEX    C0114539   0.289   1.550   2.637
    1HEX    C0214540   0.244   1.619   2.766
    1HEX    C0314541   0.118   1.561   2.821
    1HEX    O0414542   0.094   1.442   2.804
    1HEX    O0514543   0.035   1.649   2.874
    1HEX    C0614544   6.238   1.627   2.852
    1HEX    C0714545   6.142   1.591   2.960
    1HEX    C0814546   6.126   1.712   3.049
    1HEX    O0914547   6.073   1.815   2.968
    1HEX    C0A14548   6.074   1.935   3.016
    1HEX    O0B14549   6.100   1.964   3.131
    1HEX    C0C14550   6.053   2.042   2.916
    1HEX    C0D14551   6.189   2.081   2.856
    1HEX    C0F14552   6.005   1.566   2.899
    1HEX    O0G14553   5.981   1.431   2.865
    1HEX    C0H14554   5.860   1.381   2.850
    1HEX    O0I14555   5.759   1.445   2.823
    1HEX    C0J14556   5.858   1.230   2.868
    1HEX    C0K14557   5.965   1.179   2.965
    1HEX    C0N14558   6.177   1.455   3.020
    1HEX    O0O14559   6.310   1.422   3.045
    1HEX    C0P14560   0.036   1.508   3.125
    1HEX    C0Q14561   0.041   1.461   3.265
    1HEX    C0R14562   0.112   1.331   3.272
    1HEX    O0S14563   0.242   1.354   3.234
    1HEX    C0T14564   0.336   1.294   3.295
    1HEX    O0U14565   0.337   1.186   3.353
    1HEX    C0V14566   0.455   1.377   3.287
    1HEX    C0W14567   0.444   1.508   3.366
    1HEX    C0Y14568   0.115   1.579   3.317
    1HEX    O0Z14569   0.134   1.577   3.450
    1HEX    C1014570   0.157   1.694   3.494
    1HEX    O1114571   0.268   1.748   3.498
    1HEX    C1214572   0.028   1.764   3.519
    1HEX    C1314573   0.015   1.792   3.666
    1HEX    C1514574   6.243   1.441   3.322
    1HEX    O1614575   6.221   1.373   3.443
    1HEX    C1714576   6.174   1.249   3.442
    1HEX    O1814577   6.213   1.157   3.372
    1HEX    C1914578   6.063   1.225   3.540
    1HEX    C1A14579   5.930   1.277   3.486
    1HEX    H1D14580   0.394   1.566   2.619
    1HEX    H1E14581   0.272   1.442   2.642
    1HEX    H1F14582   0.230   1.726   2.753
    1HEX    H1G14583   0.313   1.598   2.845
    1HEX    H1H14584   6.229   1.532   2.806
    1HEX    H1I14585   6.202   1.706   2.788
    1HEX    H1J14586   6.217   1.752   3.090
    1HEX    H1K14587   6.066   1.687   3.134
    1HEX    H1M14588   6.005   2.126   2.966
    1HEX    H1N14589   5.979   2.004   2.847
    1HEX    H1O14590   6.176   2.123   2.757
    1HEX    H1P14591   6.258   1.997   2.849
    1HEX    H1R14592   5.985   1.639   2.822
    1HEX    H1S14593   5.934   1.589   2.972
    1HEX    H1T14594   5.867   1.181   2.771
    1HEX    H1U14595   5.760   1.207   2.908
    1HEX    H1V14596   5.921   1.101   3.025
    1HEX    H1W14597   5.990   1.256   3.037
    1HEX    H1Y14598   6.171   1.378   2.944
    1HEX    H1Z14599   6.102   1.428   3.092
    1HEX    H2014600   6.324   1.599   3.125
    1HEX    H2114601   0.134   1.530   3.083
    1HEX    H2214602   0.065   1.259   3.206
    1HEX    H2314603   0.108   1.298   3.374
    1HEX    H2414604   0.475   1.394   3.181
    1HEX    H2514605   0.532   1.312   3.329
    1HEX    H2614606   0.513   1.502   3.449
    1HEX    H2714607   0.349   1.521   3.415
    1HEX    H2914608   0.068   1.674   3.288
    1HEX    H2A14609   0.212   1.582   3.272
    1HEX    H2B14610   6.282   1.710   3.479
    1HEX    H2C14611   0.045   1.847   3.455
    1HEX    H2D14612   6.316   1.887   3.693
    1HEX    H2E14613   0.112   1.792   3.712
    1HEX    H2G14614   6.190   1.378   3.254
    1HEX    H2H14615   6.198   1.539   3.328
    1HEX    H2I14616   6.086   1.261   3.639
    1HEX    H2J14617   6.055   1.117   3.549
    1HEX    H2K14618   5.853   1.223   3.538
    1HEX    H2M14619   5.920   1.256   3.379
    1STR    S0014620   0.206   1.617   2.492
    1STR    S0E14621   6.258   2.213   2.955
    1STR    S0M14622   6.115   1.116   2.883
    1STR    S0X14623   0.500   1.658   3.281
    1STR    S1414624   6.227   1.689   3.735
    1STR    S1B14625   5.900   1.454   3.518
    1HEX    C0114626   0.337   1.323   4.411
    1HEX    C0214627   0.247   1.233   4.487
    1HEX    C0314628   0.134   1.302   4.559
    1HEX    O0414629   0.078   1.234   4.643
    1HEX    O0514630   0.100   1.428   4.517
    1HEX    C0614631   6.320   1.444   4.440
    1HEX    C0714632   6.213   1.550   4.464
    1HEX    C0814633   6.255   1.697   4.453
    1HEX    O0914634   6.147   1.788   4.449
    1HEX    C0A14635   6.085   1.825   4.558
    1HEX    O0B14636   6.101   1.775   4.667
    1HEX    C0C14637   6.012   1.954   4.542
    1HEX    C0D14638   5.997   2.036   4.673
    1HEX    C0F14639   6.106   1.534   4.356
    1HEX    O0G14640   6.083   1.396   4.340
    1HEX    C0H14641   6.056   1.348   4.223
    1HEX    O0I14642   6.011   1.414   4.129
    1HEX    C0J14643   6.091   1.201   4.209
    1HEX    C0K14644   6.068   1.119   4.334
    1HEX    C0N14645   6.158   1.511   4.600
    1HEX    O0O14646   6.255   1.476   4.689
    1HEX    C0P14647  -0.001   1.573   4.739
    1HEX    C0Q14648   6.335   1.534   4.881
    1HEX    C0R14649   0.020   1.384   4.899
    1HEX    O0S14650   0.150   1.355   4.856
    1HEX    C0T14651   0.227   1.273   4.921
    1HEX    O0U14652   0.208   1.229   5.034
    1HEX    C0V14653   0.339   1.224   4.834
    1HEX    C0W14654   0.433   1.329   4.780
    1HEX    C0Y14655   0.099   1.610   4.950
    1HEX    O0Z14656   0.111   1.538   5.070
    1HEX    C1014657   0.226   1.537   5.117
    1HEX    O1114658   0.295   1.631   5.092
    1HEX    C1214659   0.251   1.438   5.228
    1HEX    C1314660   0.315   1.499   5.353
    1HEX    C1514661   6.205   1.583   4.933
    1HEX    O1614662   6.183   1.538   5.064
    1HEX    C1714663   6.106   1.436   5.075
    1HEX    O1814664   6.100   1.341   5.000
    1HEX    C1914665   6.008   1.453   5.184
    1HEX    C1A14666   5.911   1.573   5.159
    1HEX    H1D14667   0.422   1.267   4.376
    1HEX    H1E14668   0.373   1.409   4.466
    1HEX    H1F14669   0.308   1.179   4.558
    1HEX    H1G14670   0.201   1.158   4.423
    1HEX    H1H14671   6.270   1.358   4.469
    1HEX    H1I14672   6.331   1.427   4.334
    1HEX    H1J14673   6.297   1.719   4.357
    1HEX    H1K14674   6.334   1.719   4.524
    1HEX    H1M14675   5.914   1.929   4.501
    1HEX    H1N14676   6.062   2.011   4.465
    1HEX    H1O14677   5.903   2.007   4.718
    1HEX    H1P14678   5.990   2.141   4.647
    1HEX    H1R14679   6.144   1.577   4.263
    1HEX    H1S14680   6.014   1.587   4.380
    1HEX    H1T14681   6.196   1.191   4.182
    1HEX    H1U14682   6.028   1.163   4.130
    1HEX    H1V14683   6.052   1.014   4.313
    1HEX    H1W14684   5.973   1.155   4.374
    1HEX    H1Y14685   6.119   1.414   4.598
    1HEX    H1Z14686   6.076   1.564   4.638
    1HEX    H2014687   6.310   1.676   4.728
    1HEX    H2114688   0.098   1.557   4.700
    1HEX    H2214689   6.288   1.323   4.846
    1HEX    H2314690   0.008   1.358   5.002
    1HEX    H2414691   0.290   1.171   4.755
    1HEX    H2514692   0.399   1.155   4.892
    1HEX    H2614693   0.492   1.356   4.865
    1HEX    H2714694   0.502   1.288   4.707
    1HEX    H2914695   0.077   1.715   4.967
    1HEX    H2A14696   0.189   1.605   4.890
    1HEX    H2B14697   0.316   1.360   5.191
    1HEX    H2C14698   0.155   1.394   5.252
    1HEX    H2D14699   0.422   1.481   5.352
    1HEX    H2E14700   0.271   1.456   5.442
    1HEX    H2G14701   6.125   1.550   4.868
    1HEX    H2H14702   6.201   1.692   4.933
    1HEX    H2I14703   6.070   1.460   5.272
    1HEX    H2J14704   5.952   1.360   5.191
    1HEX    H2K14705   5.916   1.628   5.249
    1HEX    H2M14706   5.809   1.541   5.164
    1STR    S0014707   0.236   1.382   4.280
    1STR    S0E14708   6.115   2.022   4.813
    1STR    S0M14709   6.212   1.132   4.446
    1STR    S0X14710   0.356   1.478   4.710
    1STR    S1414711   0.297   1.677   5.358
    1STR    S1B14712   5.935   1.695   5.021
    1HEX    C0114713   0.347   3.279   5.857
    1HEX    C0214714   0.250   3.323   5.967
    1HEX    C0314715   0.160   3.213   6.011
    1HEX    O0414716   0.199   3.116   6.071
    1HEX    O0514717   0.044   3.221   5.959
    1HEX    C0614718   6.300   3.107   5.959
    1HEX    C0714719   6.181   3.119   6.046
    1HEX    C0814720   6.143   3.260   6.043
    1HEX    O0914721   6.122   3.311   5.914
    1HEX    C0A14722   6.119   3.440   5.901
    1HEX    O0B14723   6.019   3.500   5.867
    1HEX    C0C14724   6.256   3.507   5.915
    1HEX    C0D14725   6.322   3.515   6.055
    1HEX    C0F14726   6.064   3.047   5.992
    1HEX    O0G14727   6.087   2.914   5.962
    1HEX    C0H14728   5.986   2.855   5.902
    1HEX    O0I14729   5.904   2.904   5.824
    1HEX    C0J14730   5.974   2.714   5.944
    1HEX    C0K14731   5.903   2.719   6.076
    1HEX    C0N14732   6.205   3.077   6.189
    1HEX    O0O14733   6.338   3.086   6.232
    1HEX    C0P14734   0.034   3.207   6.295
    1HEX    C0Q14735   0.050   3.191   0.103
    1HEX    C0R14736   0.151   3.083   0.127
    1HEX    O0S14737   0.279   3.141   0.149
    1HEX    C0T14738   0.373   3.074   0.211
    1HEX    O0U14739   0.371   2.955   0.238
    1HEX    C0V14740   0.496   3.157   0.237
    1HEX    C0W14741   0.480   3.301   0.275
    1HEX    C0Y14742   0.105   3.324   0.150
    1HEX    O0Z14743   0.160   3.353   0.276
    1HEX    C1014744   0.189   3.483   0.305
    1HEX    O1114745   0.150   3.581   0.241
    1HEX    C1214746   0.280   3.505   0.423
    1HEX    C1314747   0.229   3.603   0.529
    1HEX    C1514748   6.247   3.166   0.157
    1HEX    O1614749   6.214   3.031   0.179
    1HEX    C1714750   6.090   2.987   0.154
    1HEX    O1814751   6.034   2.989   0.047
    1HEX    C1914752   6.029   2.920   0.272
    1HEX    C1A14753   5.904   2.836   0.256
    1HEX    H1D14754   0.293   3.316   5.773
    1HEX    H1E14755   0.438   3.337   5.860
    1HEX    H1F14756   0.190   3.402   5.924
    1HEX    H1G14757   0.294   3.370   6.052
    1HEX    H1H14758   0.006   3.014   5.984
    1HEX    H1I14759   6.267   3.099   5.860
    1HEX    H1J14760   6.231   3.295   6.086
    1HEX    H1K14761   6.070   3.287   6.116
    1HEX    H1M14762   6.244   3.607   5.874
    1HEX    H1N14763   6.323   3.455   5.846
    1HEX    H1O14764   0.049   3.600   6.066
    1HEX    H1P14765   0.049   3.433   6.075
    1HEX    H1R14766   6.018   3.103   5.911
    1HEX    H1S14767   5.992   3.042   6.070
    1HEX    H1T14768   6.076   2.676   5.949
    1HEX    H1U14769   5.917   2.659   5.869
    1HEX    H1V14770   5.795   2.711   6.067
    1HEX    H1W14771   5.924   2.811   6.132
    1HEX    H1Y14772   6.177   2.974   6.198
    1HEX    H1Z14773   6.138   3.134   6.251
    1HEX    H2014774   6.301   3.283   6.279
    1HEX    H2114775   0.127   3.245   6.254
    1HEX    H2214776   0.151   3.019   0.043
    1HEX    H2314777   0.116   3.016   0.200
    1HEX    H2414778   0.538   3.160   0.139
    1HEX    H2514779   0.559   3.106   0.309
    1HEX    H2614780   0.519   3.320   0.375
    1HEX    H2714781   0.376   3.319   0.273
    1HEX    H2914782   0.013   3.369   0.155
    1HEX    H2A14783   0.166   3.372   0.075
    1HEX    H2B14784   0.373   3.540   0.380
    1HEX    H2C14785   0.301   3.414   0.474
    1HEX    H2D14786   0.205   3.698   0.481
    1HEX    H2E14787   0.310   3.618   0.599
    1HEX    H2G14788   6.170   3.216   0.100
    1HEX    H2H14789   6.237   3.216   0.251
    1HEX    H2I14790   6.013   3.000   0.343
    1HEX    H2J14791   6.103   2.850   0.309
    1HEX    H2K14792   5.906   2.752   0.324
    1HEX    H2M14793   5.899   2.798   0.155
    1STR    S0014794   0.382   3.100   5.819
    1STR    S0E14795   6.212   3.503   6.198
    1STR    S0M14796   5.971   2.586   6.166
    1STR    S0X14797   0.540   3.421   0.156
    1STR    S1414798   0.087   3.548   0.627
    1STR    S1B14799   5.765   2.945   0.292
    1HEX    C0114800   0.346   3.376   1.137
    1HEX    C0214801   0.219   3.440   1.076
    1HEX    C0314802   0.093   3.357   1.086
    1HEX    O0414803   0.075   3.267   1.005
    1HEX    O0514804   0.006   3.395   1.182
    1HEX    C0614805   6.232   3.314   1.208
    1HEX    C0714806   6.161   3.323   1.345
    1HEX    C0814807   6.182   3.457   1.409
    1HEX    O0914808   6.076   3.545   1.383
    1HEX    C0A14809   6.008   3.599   1.482
    1HEX    O0B14810   6.022   3.579   1.601
    1HEX    C0C14811   5.935   3.720   1.434
    1HEX    C0D14812   6.026   3.832   1.465
    1HEX    C0F14813   6.009   3.312   1.324
    1HEX    O0G14814   5.959   3.187   1.287
    1HEX    C0H14815   5.828   3.180   1.277
    1HEX    O0I14816   5.749   3.275   1.280
    1HEX    C0J14817   5.776   3.040   1.258
    1HEX    C0K14818   5.766   2.956   1.383
    1HEX    C0N14819   6.201   3.216   1.447
    1HEX    O0O14820   6.338   3.213   1.486
    1HEX    C0P14821   0.017   3.197   1.627
    1HEX    C0Q14822  -0.000   3.056   1.690
    1HEX    C0R14823   0.045   2.939   1.606
    1HEX    O0S14824   0.185   2.921   1.601
    1HEX    C0T14825   0.238   2.823   1.672
    1HEX    O0U14826   0.173   2.740   1.734
    1HEX    C0V14827   0.390   2.805   1.661
    1HEX    C0W14828   0.488   2.920   1.652
    1HEX    C0Y14829   0.073   3.055   1.820
    1HEX    O0Z14830   0.045   2.937   1.892
    1HEX    C1014831   0.008   2.942   2.019
    1HEX    O1114832   6.315   3.039   2.085
    1HEX    C1214833   0.017   2.808   2.086
    1HEX    C1314834   0.132   2.718   2.034
    1HEX    C1514835   6.196   3.031   1.725
    1HEX    O1614836   6.167   3.129   1.820
    1HEX    C1714837   6.102   3.103   1.930
    1HEX    O1814838   6.075   2.992   1.975
    1HEX    C1914839   6.067   3.230   2.001
    1HEX    C1A14840   6.010   3.342   1.912
    1HEX    H1D14841   0.422   3.453   1.150
    1HEX    H1E14842   0.327   3.331   1.233
    1HEX    H1F14843   0.233   3.455   0.970
    1HEX    H1G14844   0.197   3.536   1.122
    1HEX    H1H14845   6.272   3.216   1.210
    1HEX    H1I14846   6.162   3.325   1.125
    1HEX    H1J14847   6.271   3.504   1.372
    1HEX    H1K14848   6.200   3.444   1.514
    1HEX    H1M14849   5.849   3.741   1.496
    1HEX    H1N14850   5.909   3.712   1.329
    1HEX    H1O14851   6.059   3.816   1.568
    1HEX    H1P14852   5.974   3.927   1.458
    1HEX    H1R14853   5.976   3.383   1.248
    1HEX    H1S14854   5.958   3.340   1.417
    1HEX    H1T14855   5.808   2.992   1.167
    1HEX    H1U14856   5.673   3.058   1.243
    1HEX    H1V14857   5.666   2.918   1.381
    1HEX    H1W14858   5.783   3.009   1.475
    1HEX    H1Y14859   6.165   3.119   1.420
    1HEX    H1Z14860   6.143   3.236   1.535
    1HEX    H2014861   6.294   3.268   1.679
    1HEX    H2114862   0.113   3.237   1.655
    1HEX    H2214863   0.004   2.963   1.513
    1HEX    H2314864   6.334   2.847   1.634
    1HEX    H2414865   0.403   2.757   1.566
    1HEX    H2514866   0.421   2.740   1.742
    1HEX    H2614867   0.585   2.882   1.625
    1HEX    H2714868   0.501   2.971   1.747
    1HEX    H2914869   0.044   3.146   1.869
    1HEX    H2A14870   0.178   3.062   1.801
    1HEX    H2B14871   6.259   2.763   2.074
    1HEX    H2C14872   0.030   2.832   2.191
    1HEX    H2D14873   0.096   2.671   1.943
    1HEX    H2E14874   0.147   2.640   2.108
    1HEX    H2G14875   6.177   2.930   1.763
    1HEX    H2H14876   6.138   3.044   1.636
    1HEX    H2I14877   6.156   3.266   2.051
    1HEX    H2J14878   5.993   3.204   2.077
    1HEX    H2K14879   6.069   3.431   1.923
    1HEX    H2M14880   5.917   3.375   1.951
    1STR    S0014881   0.420   3.241   1.045
    1STR    S0E14882   6.162   3.828   1.348
    1STR    S0M14883   5.852   2.804   1.383
    1STR    S0X14884   0.438   3.024   1.516
    1STR    S1414885   0.300   2.786   1.998
    1STR    S1B14886   5.989   3.316   1.733
    1HEX    C0114887   0.268   2.781   2.771
    1HEX    C0214888   0.135   2.841   2.809
    1HEX    C0314889   0.078   2.921   2.697
    1HEX    O0414890   0.053   2.870   2.587
    1HEX    O0514891   0.054   3.045   2.733
    1HEX    C0614892   6.285   3.109   2.674
    1HEX    C0714893   6.187   3.167   2.775
    1HEX    C0814894   6.204   3.321   2.782
    1HEX    O0914895   6.090   3.405   2.785
    1HEX    C0A14896   6.013   3.407   2.891
    1HEX    O0B14897   5.974   3.312   2.953
    1HEX    C0C14898   5.975   3.540   2.943
    1HEX    C0D14899   6.025   3.561   3.088
    1HEX    C0F14900   6.049   3.125   2.722
    1HEX    O0G14901   6.033   2.985   2.740
    1HEX    C0H14902   6.043   2.902   2.639
    1HEX    O0I14903   6.022   2.931   2.522
    1HEX    C0J14904   6.092   2.763   2.680
    1HEX    C0K14905   6.057   2.721   2.821
    1HEX    C0N14906   6.198   3.113   2.919
    1HEX    O0O14907   6.318   3.060   2.973
    1HEX    C0P14908   0.062   3.147   3.043
    1HEX    C0Q14909   0.049   3.139   3.195
    1HEX    C0R14910   0.056   3.000   3.249
    1HEX    O0S14911   0.173   2.927   3.247
    1HEX    C0T14912   0.186   2.827   3.167
    1HEX    O0U14913   0.102   2.788   3.088
    1HEX    C0V14914   0.316   2.754   3.186
    1HEX    C0W14915   0.444   2.837   3.195
    1HEX    C0Y14916   0.153   3.229   3.253
    1HEX    O0Z14917   0.164   3.230   3.393
    1HEX    C1014918   0.235   3.331   3.444
    1HEX    O1114919   0.253   3.440   3.390
    1HEX    C1214920   0.301   3.296   3.576
    1HEX    C1314921   0.360   3.415   3.654
    1HEX    C1514922   6.261   3.199   3.245
    1HEX    O1614923   6.182   3.111   3.320
    1HEX    C1714924   6.077   3.066   3.261
    1HEX    O1814925   6.074   3.029   3.147
    1HEX    C1914926   5.955   3.117   3.322
    1HEX    C1A14927   5.955   3.260   3.266
    1HEX    H1D14928   0.266   2.674   2.789
    1HEX    H1E14929   0.292   2.801   2.667
    1HEX    H1F14930   0.141   2.909   2.894
    1HEX    H1G14931   0.063   2.764   2.837
    1HEX    H1H14932   6.237   3.045   2.601
    1HEX    H1I14933   6.320   3.186   2.611
    1HEX    H1J14934   6.266   3.361   2.703
    1HEX    H1K14935   6.263   3.341   2.870
    1HEX    H1M14936   5.868   3.551   2.939
    1HEX    H1N14937   6.011   3.608   2.868
    1HEX    H1O14938   5.952   3.516   3.155
    1HEX    H1P14939   6.024   3.664   3.117
    1HEX    H1R14940   6.030   3.159   2.620
    1HEX    H1S14941   5.974   3.167   2.783
    1HEX    H1T14942   6.199   2.755   2.665
    1HEX    H1U14943   6.042   2.696   2.611
    1HEX    H1V14944   6.046   2.613   2.831
    1HEX    H1W14945   5.962   2.764   2.840
    1HEX    H1Y14946   6.129   3.032   2.929
    1HEX    H1Z14947   6.156   3.184   2.985
    1HEX    H2014948   0.049   3.250   3.011
    1HEX    H2114949   0.162   3.114   3.017
    1HEX    H2214950   6.313   2.943   3.207
    1HEX    H2314951   0.047   3.014   3.355
    1HEX    H2414952   0.324   2.686   3.103
    1HEX    H2514953   0.304   2.699   3.279
    1HEX    H2614954   0.517   2.804   3.122
    1HEX    H2714955   0.489   2.824   3.293
    1HEX    H2914956   0.132   3.327   3.220
    1HEX    H2A14957   0.245   3.207   3.206
    1HEX    H2B14958   0.381   3.228   3.557
    1HEX    H2C14959   0.229   3.236   3.631
    1HEX    H2D14960   0.457   3.441   3.613
    1HEX    H2E14961   0.372   3.383   3.757
    1HEX    H2G14962   6.206   3.235   3.162
    1HEX    H2H14963   6.275   3.289   3.302
    1HEX    H2I14964   5.940   3.107   3.426
    1HEX    H2J14965   5.882   3.046   3.286
    1HEX    H2K14966   5.990   3.258   3.166
    1HEX    H2M14967   6.032   3.324   3.304
    1STR    S0014968   0.394   2.853   2.875
    1STR    S0E14969   6.181   3.483   3.137
    1STR    S0M14970   6.160   2.782   2.956
    1STR    S0X14971   0.423   3.013   3.169
    1STR    S1414972   0.259   3.567   3.655
    1STR    S1B14973   5.793   3.330   3.267
    1HEX    C0114974   0.248   3.152   4.162
    1HEX    C0214975   0.232   3.003   4.188
    1HEX    C0314976   0.092   2.973   4.236
    1HEX    O0414977   0.022   2.891   4.176
    1HEX    O0514978   0.057   3.042   4.344
    1HEX    C0614979   6.264   3.025   4.385
    1HEX    C0714980   6.213   3.106   4.501
    1HEX    C0814981   6.247   3.253   4.517
    1HEX    O0914982   6.182   3.355   4.450
    1HEX    C0A14983   6.207   3.478   4.493
    1HEX    O0B14984   6.195   3.518   4.607
    1HEX    C0C14985   6.271   3.565   4.391
    1HEX    C0D14986   0.082   3.560   4.403
    1HEX    C0F14987   6.064   3.094   4.501
    1HEX    O0G14988   6.034   2.958   4.508
    1HEX    C0H14989   5.913   2.913   4.491
    1HEX    O0I14990   5.815   2.975   4.452
    1HEX    C0J14991   5.906   2.767   4.526
    1HEX    C0K14992   6.012   2.728   4.627
    1HEX    C0N14993   6.271   3.035   4.621
    1HEX    O0O14994   0.067   3.062   4.639
    1HEX    C0P14995   0.093   3.170   4.725
    1HEX    C0Q14996   0.097   3.140   4.870
    1HEX    C0R14997   0.168   3.008   4.893
    1HEX    O0S14998   0.303   3.030   4.923
    1HEX    C0T14999   0.369   2.931   4.978
    1HEX    O0U15000   0.333   2.818   4.993
    1HEX    C0V15001   0.505   2.968   5.020
    1HEX    C0W15002   0.513   3.096   5.099
    1HEX    C0Y15003   0.176   3.257   4.924
    1HEX    O0Z15004   0.196   3.263   5.059
    1HEX    C1015005   0.268   3.360   5.105
    1HEX    O1115006   0.361   3.415   5.048
    1HEX    C1215007   0.238   3.394   5.245
    1HEX    C1315008   0.093   3.391   5.302
    1HEX    C1515009   6.293   3.149   4.920
    1HEX    O1615010   6.240   3.051   5.005
    1HEX    C1715011   6.216   2.929   4.972
    1HEX    O1815012   6.246   2.879   4.867
    1HEX    C1915013   6.140   2.852   5.079
    1HEX    C1A15014   6.016   2.923   5.132
    1HEX    H1D15015   0.348   3.182   4.133
    1HEX    H1E15016   0.218   3.201   4.252
    1HEX    H1F15017   0.302   2.969   4.264
    1HEX    H1G15018   0.250   2.946   4.097
    1HEX    H1H15019   6.245   2.920   4.402
    1HEX    H1I15020   6.195   3.031   4.306
    1HEX    H1J15021   0.014   3.267   4.504
    1HEX    H1K15022   6.212   3.274   4.618
    1HEX    H1M15023   6.227   3.664   4.394
    1HEX    H1N15024   6.251   3.519   4.298
    1HEX    H1O15025   0.130   3.572   4.307
    1HEX    H1P15026   0.114   3.463   4.442
    1HEX    H1R15027   6.016   3.145   4.419
    1HEX    H1S15028   6.031   3.141   4.590
    1HEX    H1T15029   5.916   2.710   4.434
    1HEX    H1U15030   5.807   2.750   4.568
    1HEX    H1V15031   5.983   2.638   4.682
    1HEX    H1W15032   6.029   2.806   4.702
    1HEX    H1Y15033   6.260   2.930   4.609
    1HEX    H1Z15034   6.211   3.050   4.707
    1HEX    H2015035   0.036   3.258   4.714
    1HEX    H2115036   0.179   3.221   4.691
    1HEX    H2215037   0.151   2.937   4.815
    1HEX    H2315038   0.124   2.958   4.975
    1HEX    H2415039   0.533   2.982   4.920
    1HEX    H2515040   0.556   2.883   5.064
    1HEX    H2615041   0.542   3.067   5.198
    1HEX    H2715042   0.417   3.147   5.101
    1HEX    H2915043   0.122   3.343   4.896
    1HEX    H2A15044   0.267   3.275   4.875
    1HEX    H2B15045   0.284   3.491   5.262
    1HEX    H2C15046   0.302   3.324   5.292
    1HEX    H2D15047   0.051   3.489   5.308
    1HEX    H2E15048   0.091   3.377   5.408
    1HEX    H2G15049   6.221   3.183   4.848
    1HEX    H2H15050   6.290   3.233   4.985
    1HEX    H2I15051   6.206   2.844   5.163
    1HEX    H2J15052   6.118   2.753   5.040
    1HEX    H2K15053   6.034   3.022   5.174
    1HEX    H2M15054   5.965   2.863   5.206
    1STR    S0015055   0.127   3.207   4.044
    1STR    S0E15056   0.131   3.694   4.510
    1STR    S0M15057   6.170   2.698   4.543
    1STR    S0X15058   0.632   3.214   5.042
    1STR    S1415059   6.304   3.287   5.229
    1STR    S1B15060   5.912   2.951   4.994
    1HEX    C0115061   0.282   4.671   5.826
    1HEX    C0215062   0.213   4.543   5.871
    1HEX    C0315063   0.064   4.559   5.859
    1HEX    O0415064   0.002   4.510   5.764
    1HEX    O0515065   0.015   4.641   5.952
    1HEX    C0615066   6.220   4.675   5.942
    1HEX    C0715067   6.151   4.725   6.070
    1HEX    C0815068   6.195   4.866   6.083
    1HEX    O0915069   6.087   4.953   6.100
    1HEX    C0A15070   6.087   5.020   6.205
    1HEX    O0B15071   6.151   4.987   6.302
    1HEX    C0C15072   6.016   5.152   6.192
    1HEX    C0D15073   6.061   5.253   6.297
    1HEX    C0F15074   5.998   4.718   6.054
    1HEX    O0G15075   5.958   4.586   6.024
    1HEX    C0H15076   5.920   4.557   5.899
    1HEX    O0I15077   5.877   4.637   5.818
    1HEX    C0J15078   5.945   4.413   5.859
    1HEX    C0K15079   6.007   4.332   5.971
    1HEX    C0N15080   6.188   4.656   6.202
    1HEX    O0O15081   6.323   4.616   6.208
    1HEX    C0P15082   0.090   4.684   6.267
    1HEX    C0Q15083   0.113   4.646   0.072
    1HEX    C0R15084   0.111   4.499   0.094
    1HEX    O0S15085   0.179   4.433   6.330
    1HEX    C0T15086   0.306   4.401   0.001
    1HEX    O0U15087   0.368   4.384   0.106
    1HEX    C0V15088   0.371   4.390   6.205
    1HEX    C0W15089   0.478   4.496   6.176
    1HEX    C0Y15090   0.244   4.686   0.119
    1HEX    O0Z15091   0.279   4.639   0.245
    1HEX    C1015092   0.325   4.721   0.331
    1HEX    O1115093   0.304   4.842   0.337
    1HEX    C1215094   0.394   4.647   0.438
    1HEX    C1315095   0.336   4.697   0.566
    1HEX    C1515096   0.014   4.723   0.153
    1HEX    O1615097   6.294   4.635   0.238
    1HEX    C1715098   6.168   4.640   0.248
    1HEX    O1815099   6.108   4.534   0.255
    1HEX    C1915100   6.118   4.775   0.301
    1HEX    C1A15101   6.097   4.905   0.222
    1HEX    H1D15102   0.383   4.654   5.792
    1HEX    H1E15103   0.285   4.741   5.909
    1HEX    H1F15104   0.237   4.524   5.975
    1HEX    H1G15105   0.240   4.457   5.811
    1HEX    H1H15106   6.161   4.601   5.893
    1HEX    H1I15107   6.218   4.745   5.863
    1HEX    H1J15108   6.246   4.900   5.998
    1HEX    H1K15109   6.273   4.873   6.156
    1HEX    H1M15110   5.909   5.135   6.194
    1HEX    H1N15111   6.041   5.188   6.093
    1HEX    H1O15112   6.008   5.232   0.050
    1HEX    H1P15113   6.035   5.353   6.264
    1HEX    H1R15114   5.964   4.787   5.978
    1HEX    H1S15115   5.950   4.750   6.145
    1HEX    H1T15116   6.009   4.409   5.771
    1HEX    H1U15117   5.848   4.370   5.835
    1HEX    H1V15118   5.999   4.229   5.943
    1HEX    H1W15119   5.941   4.351   6.054
    1HEX    H1Y15120   6.139   4.561   6.202
    1HEX    H1Z15121   6.148   4.708   6.289
    1HEX    H2015122   0.079   4.789   6.263
    1HEX    H2115123   0.173   4.655   6.206
    1HEX    H2215124   0.006   4.480   0.093
    1HEX    H2315125   0.146   4.469   0.192
    1HEX    H2415126   0.295   4.391   6.128
    1HEX    H2515127   0.415   4.291   6.204
    1HEX    H2615128   0.547   4.491   6.260
    1HEX    H2715129   0.536   4.466   6.090
    1HEX    H2915130   0.248   4.791   0.112
    1HEX    H2A15131   0.312   4.638   0.055
    1HEX    H2B15132   0.500   4.668   0.428
    1HEX    H2C15133   0.378   4.540   0.425
    1HEX    H2D15134   0.341   4.805   0.570
    1HEX    H2E15135   0.392   4.656   0.648
    1HEX    H2G15136   6.285   4.767   0.084
    1HEX    H2H15137   0.055   4.803   0.212
    1HEX    H2I15138   6.212   4.806   0.333
    1HEX    H2J15139   6.066   4.766   0.395
    1HEX    H2K15140   6.175   4.907   0.154
    1HEX    H2M15141   6.130   4.991   0.277
    1STR    S0015142   0.185   4.747   5.695
    1STR    S0E15143   6.237   5.250   0.001
    1STR    S0M15144   6.186   4.375   5.979
    1STR    S0X15145   0.422   4.668   6.137
    1STR    S1415146   0.166   4.641   0.576
    1STR    S1B15147   5.938   4.972   0.168
    1HEX    C0115148   0.284   4.530   1.018
    1HEX    C0215149   0.255   4.427   1.128
    1HEX    C0315150   0.112   4.422   1.168
    1HEX    O0415151   0.037   4.331   1.132
    1HEX    O0515152   0.083   4.525   1.246
    1HEX    C0615153   6.290   4.561   1.247
    1HEX    C0715154   6.244   4.666   1.346
    1HEX    C0815155   6.292   4.809   1.343
    1HEX    O0915156   6.193   4.907   1.323
    1HEX    C0A15157   6.179   5.000   1.415
    1HEX    O0B15158   6.106   4.989   1.511
    1HEX    C0C15159   6.284   5.108   1.406
    1HEX    C0D15160   0.055   5.076   1.506
    1HEX    C0F15161   6.095   4.660   1.334
    1HEX    O0G15162   6.037   4.532   1.306
    1HEX    C0H15163   6.012   4.496   1.178
    1HEX    O0I15164   6.024   4.569   1.081
    1HEX    C0J15165   5.965   4.355   1.157
    1HEX    C0K15166   5.894   4.295   1.277
    1HEX    C0N15167   6.290   4.627   1.479
    1HEX    O0O15168   0.086   4.641   1.503
    1HEX    C0P15169   0.137   4.748   1.574
    1HEX    C0Q15170   0.091   4.788   1.714
    1HEX    C0R15171   0.116   4.675   1.808
    1HEX    O0S15172   0.250   4.627   1.811
    1HEX    C0T15173   0.321   4.652   1.920
    1HEX    O0U15174   0.281   4.685   2.029
    1HEX    C0V15175   0.467   4.660   1.900
    1HEX    C0W15176   0.492   4.810   1.883
    1HEX    C0Y15177   0.186   4.901   1.751
    1HEX    O0Z15178   0.160   4.957   1.876
    1HEX    C1015179   0.247   5.040   1.930
    1HEX    O1115180   0.349   5.083   1.878
    1HEX    C1215181   0.208   5.077   2.071
    1HEX    C1315182   0.191   4.952   2.157
    1HEX    C1515183   6.284   4.835   1.730
    1HEX    O1615184   6.212   4.783   1.840
    1HEX    C1715185   6.110   4.703   1.815
    1HEX    O1815186   6.100   4.622   1.727
    1HEX    C1915187   5.996   4.717   1.908
    1HEX    C1A15188   5.861   4.724   1.840
    1HEX    H1D15189   0.389   4.529   0.991
    1HEX    H1E15190   0.231   4.506   0.926
    1HEX    H1F15191   0.296   4.457   1.223
    1HEX    H1G15192   0.289   4.328   1.102
    1HEX    H1H15193   6.244   4.466   1.273
    1HEX    H1I15194   6.252   4.583   1.150
    1HEX    H1J15195   0.050   4.815   1.299
    1HEX    H1K15196   6.318   4.839   1.441
    1HEX    H1M15197   6.239   5.205   1.415
    1HEX    H1N15198   6.326   5.109   1.308
    1HEX    H1O15199   0.137   5.030   1.452
    1HEX    H1P15200   0.016   5.005   1.575
    1HEX    H1R15201   6.066   4.729   1.255
    1HEX    H1S15202   6.057   4.699   1.426
    1HEX    H1T15203   6.051   4.297   1.123
    1HEX    H1U15204   5.895   4.359   1.074
    1HEX    H1V15205   5.824   4.218   1.248
    1HEX    H1W15206   5.842   4.371   1.335
    1HEX    H1Y15207   6.278   4.527   1.469
    1HEX    H1Z15208   6.225   4.656   1.556
    1HEX    H2015209   0.167   4.829   1.509
    1HEX    H2115210   0.227   4.698   1.591
    1HEX    H2215211   0.040   4.601   1.793
    1HEX    H2315212   0.095   4.722   1.901
    1HEX    H2415213   0.498   4.596   1.819
    1HEX    H2515214   0.511   4.623   1.992
    1HEX    H2615215   0.563   4.850   1.955
    1HEX    H2715216   0.407   4.864   1.915
    1HEX    H2915217   0.202   4.975   1.676
    1HEX    H2A15218   0.283   4.858   1.755
    1HEX    H2B15219   0.117   5.137   2.065
    1HEX    H2C15220   0.287   5.141   2.108
    1HEX    H2D15221   0.196   4.970   2.264
    1HEX    H2E15222   0.272   4.884   2.137
    1HEX    H2G15223   6.226   4.833   1.640
    1HEX    H2H15224   6.284   4.940   1.755
    1HEX    H2I15225   6.018   4.801   1.973
    1HEX    H2J15226   5.991   4.624   1.959
    1HEX    H2K15227   5.783   4.740   1.914
    1HEX    H2M15228   5.841   4.628   1.792
    1STR    S0015229   0.242   4.696   1.075
    1STR    S0E15230   0.128   5.206   1.609
    1STR    S0M15231   6.017   4.218   1.376
    1STR    S0X15232   0.539   4.860   1.716
    1STR    S1415233   0.032   4.876   2.116
    1STR    S1B15234   5.853   4.858   1.722
    1HEX    C0115235   0.366   4.685   2.669
    1HEX    C0215236   0.338   4.730   2.812
    1HEX    C0315237   0.213   4.665   2.866
    1HEX    O0415238   0.200   4.544   2.855
    1HEX    O0515239   0.127   4.750   2.926
    1HEX    C0615240   6.327   4.735   2.903
    1HEX    C0715241   6.213   4.716   3.003
    1HEX    C0815242   6.234   4.832   3.097
    1HEX    O0915243   6.208   4.943   3.013
    1HEX    C0A15244   6.100   5.011   3.023
    1HEX    O0B15245   6.029   5.010   3.121
    1HEX    C0C15246   6.058   5.071   2.891
    1HEX    C0D15247   6.102   5.212   2.857
    1HEX    C0F15248   6.069   4.737   2.952
    1HEX    O0G15249   5.986   4.627   2.931
    1HEX    C0H15250   5.866   4.645   2.884
    1HEX    O0I15251   5.826   4.750   2.835
    1HEX    C0J15252   5.784   4.518   2.879
    1HEX    C0K15253   5.836   4.414   2.977
    1HEX    C0N15254   6.204   4.572   3.049
    1HEX    O0O15255   6.320   4.497   3.068
    1HEX    C0P15256   0.081   4.555   3.141
    1HEX    C0Q15257   0.069   4.548   3.291
    1HEX    C0R15258   0.133   4.423   3.342
    1HEX    O0S15259   0.258   4.415   3.277
    1HEX    C0T15260   0.364   4.387   3.343
    1HEX    O0U15261   0.371   4.304   3.432
    1HEX    C0V15262   0.484   4.460   3.288
    1HEX    C0W15263   0.467   4.611   3.272
    1HEX    C0Y15264   0.143   4.670   3.343
    1HEX    O0Z15265   0.066   4.729   3.439
    1HEX    C1015266   0.010   4.839   3.416
    1HEX    O1115267   0.032   4.915   3.325
    1HEX    C1215268   6.237   4.857   3.508
    1HEX    C1315269   6.273   4.847   3.651
    1HEX    C1515270   6.261   4.543   3.324
    1HEX    O1615271   6.216   4.516   3.452
    1HEX    C1715272   6.158   4.400   3.477
    1HEX    O1815273   6.176   4.293   3.419
    1HEX    C1915274   6.050   4.416   3.578
    1HEX    C1A15275   5.925   4.456   3.501
    1HEX    H1D15276   0.473   4.679   2.653
    1HEX    H1E15277   0.323   4.587   2.649
    1HEX    H1F15278   0.330   4.838   2.820
    1HEX    H1G15279   0.420   4.698   2.876
    1HEX    H1H15280   6.325   4.644   2.854
    1HEX    H1I15281   6.301   4.818   2.840
    1HEX    H1J15282   6.339   4.840   3.121
    1HEX    H1K15283   6.175   4.828   3.188
    1HEX    H1M15284   5.949   5.066   2.889
    1HEX    H1N15285   6.098   5.006   2.815
    1HEX    H1O15286   6.036   5.258   2.785
    1HEX    H1P15287   6.203   5.217   2.818
    1HEX    H1R15288   6.069   4.801   2.866
    1HEX    H1S15289   6.010   4.784   3.031
    1HEX    H1T15290   5.784   4.482   2.777
    1HEX    H1U15291   5.682   4.544   2.905
    1HEX    H1V15292   5.765   4.336   3.001
    1HEX    H1W15293   5.872   4.460   3.069
    1HEX    H1Y15294   6.168   4.511   2.969
    1HEX    H1Z15295   6.123   4.560   3.120
    1HEX    H2015296   0.089   4.658   3.116
    1HEX    H2115297   0.170   4.511   3.099
    1HEX    H2215298   0.061   4.345   3.327
    1HEX    H2315299   0.144   4.418   3.448
    1HEX    H2415300   0.504   4.420   3.192
    1HEX    H2515301   0.570   4.439   3.350
    1HEX    H2615302   0.556   4.652   3.233
    1HEX    H2715303   0.441   4.665   3.362
    1HEX    H2915304   0.171   4.746   3.272
    1HEX    H2A15305   0.237   4.642   3.384
    1HEX    H2B15306   6.177   4.771   3.487
    1HEX    H2C15307   6.187   4.949   3.485
    1HEX    H2D15308   6.191   4.891   3.706
    1HEX    H2E15309   0.015   4.913   3.677
    1HEX    H2G15310   6.217   4.463   3.265
    1HEX    H2H15311   6.220   4.639   3.295
    1HEX    H2I15312   6.079   4.490   3.652
    1HEX    H2J15313   6.038   4.321   3.627
    1HEX    H2K15314   5.843   4.398   3.540
    1HEX    H2M15315   5.935   4.436   3.394
    1STR    S0015316   0.300   4.806   2.553
    1STR    S0E15317   6.096   5.306   3.005
    1STR    S0M15318   5.973   4.334   2.895
    1STR    S0X15319   0.376   4.666   3.131
    1STR    S1415320   6.277   4.669   3.695
    1STR    S1B15321   5.890   4.630   3.526
    1HEX    C0115322   0.244   4.385   4.317
    1HEX    C0215323   0.253   4.440   4.454
    1HEX    C0315324   0.120   4.440   4.515
    1HEX    O0415325   0.083   4.342   4.579
    1HEX    O0515326   0.055   4.549   4.479
    1HEX    C0615327   6.268   4.545   4.421
    1HEX    C0715328   6.174   4.665   4.440
    1HEX    C0815329   6.221   4.805   4.407
    1HEX    O0915330   6.118   4.891   4.446
    1HEX    C0A15331   6.131   5.018   4.421
    1HEX    O0B15332   6.219   5.067   4.351
    1HEX    C0C15333   6.020   5.099   4.485
    1HEX    C0D15334   6.017   5.103   4.640
    1HEX    C0F15335   6.055   4.639   4.346
    1HEX    O0G15336   6.017   4.503   4.349
    1HEX    C0H15337   5.998   4.439   4.235
    1HEX    O0I15338   5.977   4.493   4.126
    1HEX    C0J15339   6.006   4.288   4.245
    1HEX    C0K15340   6.001   4.234   4.387
    1HEX    C0N15341   6.141   4.661   4.587
    1HEX    O0O15342   6.244   4.622   4.669
    1HEX    C0P15343   0.002   4.718   4.690
    1HEX    C0Q15344   0.039   4.700   4.832
    1HEX    C0R15345   0.076   4.551   4.851
    1HEX    O0S15346   0.187   4.504   4.784
    1HEX    C0T15347   0.279   4.432   4.846
    1HEX    O0U15348   0.280   4.395   4.962
    1HEX    C0V15349   0.385   4.388   4.751
    1HEX    C0W15350   0.455   4.506   4.680
    1HEX    C0Y15351   0.150   4.797   4.859
    1HEX    O0Z15352   0.224   4.729   4.954
    1HEX    C1015353   0.214   4.765   5.075
    1HEX    O1115354   0.207   4.882   5.111
    1HEX    C1215355   0.214   4.641   5.163
    1HEX    C1315356   0.262   4.655   5.307
    1HEX    C1515357   6.264   4.740   4.922
    1HEX    O1615358   6.247   4.650   5.028
    1HEX    C1715359   6.165   4.549   5.006
    1HEX    O1815360   6.121   4.518   4.898
    1HEX    C1915361   6.117   4.483   5.131
    1HEX    C1A15362   6.050   4.587   5.212
    1HEX    H1D15363   0.160   4.316   4.305
    1HEX    H1E15364   0.337   4.336   4.291
    1HEX    H1F15365   0.285   4.542   4.456
    1HEX    H1G15366   0.323   4.379   4.505
    1HEX    H1H15367   6.222   4.477   4.483
    1HEX    H1I15368   6.266   4.499   4.323
    1HEX    H1J15369   6.230   4.824   4.300
    1HEX    H1K15370   6.315   4.831   4.455
    1HEX    H1M15371   5.927   5.058   4.447
    1HEX    H1N15372   6.027   5.199   4.445
    1HEX    H1O15373   5.915   5.087   4.675
    1HEX    H1P15374   6.045   5.203   4.672
    1HEX    H1R15375   6.087   4.667   4.246
    1HEX    H1S15376   5.969   4.700   4.365
    1HEX    H1T15377   6.098   4.256   4.196
    1HEX    H1U15378   5.921   4.250   4.190
    1HEX    H1V15379   5.969   4.131   4.392
    1HEX    H1W15380   5.925   4.290   4.442
    1HEX    H1Y15381   6.071   4.582   4.602
    1HEX    H1Z15382   6.099   4.749   4.628
    1HEX    H2015383   6.303   4.815   4.673
    1HEX    H2115384   0.089   4.708   4.626
    1HEX    H2215385   6.337   4.483   4.821
    1HEX    H2315386   0.092   4.537   4.956
    1HEX    H2415387   0.336   4.315   4.689
    1HEX    H2515388   0.456   4.333   4.811
    1HEX    H2615389   0.513   4.479   4.592
    1HEX    H2715390   0.525   4.528   4.755
    1HEX    H2915391   0.117   4.896   4.889
    1HEX    H2A15392   0.204   4.816   4.770
    1HEX    H2B15393   0.276   4.569   5.114
    1HEX    H2C15394   0.114   4.600   5.161
    1HEX    H2D15395   0.369   4.671   5.311
    1HEX    H2E15396   0.239   4.564   5.361
    1HEX    H2G15397   6.174   4.746   4.862
    1HEX    H2H15398   6.273   4.839   4.965
    1HEX    H2I15399   6.202   4.441   5.184
    1HEX    H2J15400   6.043   4.409   5.103
    1HEX    H2K15401   6.119   4.666   5.209
    1HEX    H2M15402   6.029   4.555   5.313
    1STR    S0015403   0.227   4.525   4.212
    1STR    S0E15404   6.120   4.984   4.730
    1STR    S0M15405   6.166   4.244   4.462
    1STR    S0X15406   0.368   4.664   4.653
    1STR    S1415407   0.180   4.793   5.382
    1STR    S1B15408   5.903   4.642   5.131
    1HEX    C0115409   1.814   0.296   6.062
    1HEX    C0215410   1.804   0.148   6.094
    1HEX    C0315411   1.699   0.057   6.043
    1HEX    O0415412   1.725   6.277   6.038
    1HEX    O0515413   1.587   0.113   6.005
    1HEX    C0615414   1.483   0.025   5.966
    1HEX    C0715415   1.366   0.025   6.063
    1HEX    C0815416   1.300   0.161   6.067
    1HEX    O0915417   1.308   0.229   5.944
    1HEX    C0A15418   1.286   0.359   5.949
    1HEX    O0B15419   1.217   0.417   6.032
    1HEX    C0C15420   1.374   0.435   5.853
    1HEX    C0D15421   1.514   0.439   5.912
    1HEX    C0F15422   1.266   6.264   6.009
    1HEX    O0G15423   1.321   6.133   6.017
    1HEX    C0H15424   1.241   6.028   6.000
    1HEX    O0I15425   1.122   6.034   5.981
    1HEX    C0J15426   1.308   5.894   5.998
    1HEX    C0K15427   1.267   5.809   6.117
    1HEX    C0N15428   1.402   6.322   6.206
    1HEX    O0O15429   1.534   0.004   6.244
    1HEX    C0P15430   1.565   0.128   6.300
    1HEX    C0Q15431   1.616   0.104   0.101
    1HEX    C0R15432   1.695   6.312   0.112
    1HEX    O0S15433   1.817   6.326   0.183
    1HEX    C0T15434   1.885   6.218   0.222
    1HEX    O0U15435   1.850   6.105   0.203
    1HEX    C0V15436   2.020   6.243   0.286
    1HEX    C0W15437   2.042   0.046   0.337
    1HEX    C0Y15438   1.708   0.220   0.135
    1HEX    O0Z15439   1.715   0.235   0.274
    1HEX    C1015440   1.778   0.337   0.325
    1HEX    O1115441   1.839   0.422   0.262
    1HEX    C1215442   1.758   0.348   0.475
    1HEX    C1315443   1.781   0.219   0.552
    1HEX    C1515444   1.481   0.100   0.170
    1HEX    O1615445   1.468   0.117   0.305
    1HEX    C1715446   1.392   0.034   0.369
    1HEX    O1815447   1.380   6.257   0.344
    1HEX    C1915448   1.316   0.097   0.480
    1HEX    C1A15449   1.223   0.196   0.418
    1HEX    H1D15450   1.859   0.349   6.146
    1HEX    H1E15451   1.717   0.335   6.042
    1HEX    H1F15452   1.811   0.131   6.201
    1HEX    H1G15453   1.883   0.098   6.043
    1HEX    H1H15454   1.516   6.262   5.962
    1HEX    H1I15455   1.453   0.052   5.865
    1HEX    H1J15456   1.355   0.219   6.138
    1HEX    H1K15457   1.198   0.156   6.102
    1HEX    H1M15458   1.335   0.536   5.840
    1HEX    H1N15459   1.376   0.383   5.758
    1HEX    H1O15460   1.589   0.471   5.839
    1HEX    H1P15461   1.538   0.338   5.944
    1HEX    H1R15462   1.241   6.292   5.907
    1HEX    H1S15463   1.174   6.269   6.066
    1HEX    H1T15464   1.416   5.907   5.995
    1HEX    H1U15465   1.279   5.846   5.905
    1HEX    H1V15466   1.216   5.719   6.085
    1HEX    H1W15467   1.202   5.858   6.187
    1HEX    H1Y15468   1.398   6.215   6.218
    1HEX    H1Z15469   1.333   0.024   6.277
    1HEX    H2015470   1.479   0.191   6.295
    1HEX    H2115471   1.629   0.191   6.244
    1HEX    H2215472   1.721   6.280   0.012
    1HEX    H2315473   1.633   6.231   0.151
    1HEX    H2415474   2.099   6.213   0.219
    1HEX    H2515475   2.024   6.173   0.369
    1HEX    H2615476   2.080   0.041   0.439
    1HEX    H2715477   1.951   0.105   0.336
    1HEX    H2915478   1.676   0.309   0.088
    1HEX    H2A15479   1.806   0.208   0.093
    1HEX    H2B15480   1.656   0.378   0.495
    1HEX    H2C15481   1.825   0.426   0.510
    1HEX    H2D15482   1.780   0.237   0.659
    1HEX    H2E15483   1.877   0.178   0.526
    1HEX    H2G15484   1.429   0.012   0.134
    1HEX    H2H15485   1.423   0.187   0.143
    1HEX    H2I15486   1.387   0.154   0.537
    1HEX    H2J15487   1.267   0.019   0.538
    1HEX    H2K15488   1.279   0.251   0.345
    1HEX    H2M15489   1.178   0.261   0.492
    1STR    S0015490   1.919   0.315   5.919
    1STR    S0E15491   1.524   0.550   6.053
    1STR    S0M15492   1.420   5.774   6.198
    1STR    S0X15493   2.152   0.144   0.237
    1STR    S1415494   1.643   0.109   0.519
    1STR    S1B15495   1.101   0.105   0.332
    1HEX    C0115496   2.035   0.025   1.113
    1HEX    C0215497   1.911   0.100   1.059
    1HEX    C0315498   1.797   0.102   1.156
    1HEX    O0415499   1.808   0.060   1.269
    1HEX    O0515500   1.690   0.147   1.104
    1HEX    C0615501   1.569   0.087   1.143
    1HEX    C0715502   1.503   0.110   1.278
    1HEX    C0815503   1.545   0.248   1.323
    1HEX    O0915504   1.449   0.343   1.279
    1HEX    C0A15505   1.355   0.375   1.365
    1HEX    O0B15506   1.345   0.330   1.478
    1HEX    C0C15507   1.270   0.489   1.320
    1HEX    C0D15508   1.313   0.608   1.405
    1HEX    C0F15509   1.351   0.107   1.254
    1HEX    O0G15510   1.297   6.325   1.210
    1HEX    C0H15511   1.169   6.328   1.170
    1HEX    O0I15512   1.100   0.088   1.159
    1HEX    C0J15513   1.108   6.191   1.151
    1HEX    C0K15514   1.161   6.096   1.252
    1HEX    C0N15515   1.525   6.338   1.381
    1HEX    O0O15516   1.640   0.003   1.459
    1HEX    C0P15517   1.625   0.055   1.588
    1HEX    C0Q15518   1.582   6.298   1.701
    1HEX    C0R15519   1.571   6.153   1.659
    1HEX    O0S15520   1.688   6.097   1.609
    1HEX    C0T15521   1.743   5.986   1.654
    1HEX    O0U15522   1.696   5.909   1.737
    1HEX    C0V15523   1.876   5.957   1.587
    1HEX    C0W15524   1.969   6.077   1.593
    1HEX    C0Y15525   1.681   6.306   1.816
    1HEX    O0Z15526   1.728   6.184   1.868
    1HEX    C1015527   1.670   6.123   1.971
    1HEX    O1115528   1.573   6.162   2.033
    1HEX    C1215529   1.741   5.998   2.016
    1HEX    C1315530   1.889   5.993   1.971
    1HEX    C1515531   1.440   0.002   1.745
    1HEX    O1615532   1.412   6.335   1.884
    1HEX    C1715533   1.329   6.242   1.930
    1HEX    O1815534   1.270   6.159   1.867
    1HEX    C1915535   1.309   6.238   2.078
    1HEX    C1A15536   1.160   6.254   2.109
    1HEX    H1D15537   2.114   0.024   1.040
    1HEX    H1E15538   2.074   0.080   1.198
    1HEX    H1F15539   1.867   0.056   0.972
    1HEX    H1G15540   1.932   0.201   1.025
    1HEX    H1H15541   1.575   6.320   1.125
    1HEX    H1I15542   1.509   0.140   1.071
    1HEX    H1J15543   1.644   0.279   1.290
    1HEX    H1K15544   1.558   0.252   1.429
    1HEX    H1M15545   1.165   0.464   1.335
    1HEX    H1N15546   1.286   0.506   1.214
    1HEX    H1O15547   1.319   0.583   1.512
    1HEX    H1P15548   1.246   0.693   1.393
    1HEX    H1R15549   1.323   0.183   1.181
    1HEX    H1S15550   1.301   0.128   1.347
    1HEX    H1T15551   1.118   6.144   1.055
    1HEX    H1U15552   1.002   6.202   1.168
    1HEX    H1V15553   1.083   6.029   1.284
    1HEX    H1W15554   1.199   6.152   1.334
    1HEX    H1Y15555   1.540   6.250   1.320
    1HEX    H1Z15556   1.438   6.318   1.443
    1HEX    H2015557   1.561   0.141   1.587
    1HEX    H2115558   1.720   0.101   1.609
    1HEX    H2215559   1.499   6.150   1.580
    1HEX    H2315560   1.538   6.096   1.745
    1HEX    H2415561   1.855   5.930   1.484
    1HEX    H2515562   1.922   5.873   1.637
    1HEX    H2615563   2.071   6.055   1.562
    1HEX    H2715564   1.974   6.116   1.694
    1HEX    H2915565   1.632   0.025   1.889
    1HEX    H2A15566   1.770   0.022   1.793
    1HEX    H2B15567   1.684   5.916   1.973
    1HEX    H2C15568   1.730   5.991   2.123
    1HEX    H2D15569   1.894   6.017   1.866
    1HEX    H2E15570   1.927   5.893   1.983
    1HEX    H2G15571   1.367   6.290   1.682
    1HEX    H2H15572   1.420   0.106   1.724
    1HEX    H2I15573   1.375   6.309   2.126
    1HEX    H2J15574   1.342   6.138   2.104
    1HEX    H2K15575   1.137   6.204   2.202
    1HEX    H2M15576   1.099   6.206   2.031
    1STR    S0015577   2.014   6.192   1.173
    1STR    S0E15578   1.474   0.650   1.336
    1STR    S0M15579   1.320   6.026   1.228
    1STR    S0X15580   1.903   6.201   1.482
    1STR    S1415581   2.005   6.107   2.054
    1STR    S1B15582   1.121   0.090   2.121
    1HEX    C0115583   1.863   6.036   2.632
    1HEX    C0215584   1.798   6.032   2.771
    1HEX    C0315585   1.649   6.047   2.753
    1HEX    O0415586   1.590   5.967   2.680
    1HEX    O0515587   1.599   6.158   2.809
    1HEX    C0615588   1.474   6.203   2.760
    1HEX    C0715589   1.383   6.276   2.859
    1HEX    C0815590   1.404   0.087   2.857
    1HEX    O0915591   1.285   0.162   2.853
    1HEX    C0A15592   1.222   0.184   2.968
    1HEX    O0B15593   1.171   0.102   3.041
    1HEX    C0C15594   1.218   0.328   3.001
    1HEX    C0D15595   1.279   0.372   3.136
    1HEX    C0F15596   1.238   6.251   2.811
    1HEX    O0G15597   1.202   6.116   2.818
    1HEX    C0H15598   1.168   6.052   2.706
    1HEX    O0I15599   1.161   6.102   2.594
    1HEX    C0J15600   1.139   5.905   2.730
    1HEX    C0K15601   1.190   5.854   2.864
    1HEX    C0N15602   1.402   6.226   3.001
    1HEX    O0O15603   1.537   6.216   3.048
    1HEX    C0P15604   1.612   6.324   3.101
    1HEX    C0Q15605   1.605   0.012   3.252
    1HEX    C0R15606   1.665   6.242   3.332
    1HEX    O0S15607   1.787   6.219   3.272
    1HEX    C0T15608   1.891   6.238   3.338
    1HEX    O0U15609   1.908   6.212   3.457
    1HEX    C0V15610   1.986   6.313   3.251
    1HEX    C0W15611   1.967   6.308   3.103
    1HEX    C0Y15612   1.687   0.137   3.295
    1HEX    O0Z15613   1.757   0.126   3.416
    1HEX    C1015614   1.856   0.205   3.449
    1HEX    O1115615   1.907   0.292   3.379
    1HEX    C1215616   1.905   0.170   3.589
    1HEX    C1315617   1.959   0.288   3.670
    1HEX    C1515618   1.456   0.018   3.275
    1HEX    O1615619   1.412   6.224   3.291
    1HEX    C1715620   1.296   6.187   3.337
    1HEX    O1815621   1.277   6.104   3.423
    1HEX    C1915622   1.182   6.253   3.273
    1HEX    C1A15623   1.105   6.170   3.172
    1HEX    H1D15624   1.920   5.949   2.608
    1HEX    H1E15625   1.788   6.042   2.552
    1HEX    H1F15626   1.834   6.110   2.839
    1HEX    H1G15627   1.813   5.936   2.819
    1HEX    H1H15628   1.420   6.117   2.722
    1HEX    H1I15629   1.491   6.264   2.672
    1HEX    H1J15630   1.474   0.115   2.779
    1HEX    H1K15631   1.449   0.122   2.947
    1HEX    H1M15632   1.123   0.369   2.989
    1HEX    H1N15633   1.252   0.369   2.911
    1HEX    H1O15634   1.233   0.331   3.224
    1HEX    H1P15635   1.278   0.479   3.150
    1HEX    H1R15636   1.227   6.294   2.713
    1HEX    H1S15637   1.161   6.296   2.871
    1HEX    H1T15638   1.187   5.851   2.649
    1HEX    H1U15639   1.031   5.893   2.724
    1HEX    H1V15640   1.162   5.751   2.887
    1HEX    H1W15641   1.152   5.915   2.945
    1HEX    H1Y15642   1.357   6.128   3.007
    1HEX    H1Z15643   1.338   6.279   3.066
    1HEX    H2015644   1.599   0.078   3.052
    1HEX    H2115645   1.711   6.293   3.076
    1HEX    H2215646   1.606   6.155   3.332
    1HEX    H2315647   1.674   6.260   3.438
    1HEX    H2415648   2.070   6.259   3.278
    1HEX    H2515649   1.991   0.077   3.275
    1HEX    H2615650   1.898   0.046   3.089
    1HEX    H2715651   1.924   6.218   3.062
    1HEX    H2915652   1.626   0.224   3.316
    1HEX    H2A15653   1.763   0.159   3.222
    1HEX    H2B15654   1.969   0.085   3.589
    1HEX    H2C15655   1.827   0.121   3.644
    1HEX    H2D15656   2.050   0.326   3.623
    1HEX    H2E15657   1.980   0.254   3.771
    1HEX    H2G15658   1.405   0.065   3.194
    1HEX    H2H15659   1.438   0.090   3.349
    1HEX    H2I15660   1.206   0.013   3.243
    1HEX    H2J15661   1.127   6.266   3.361
    1HEX    H2K15662   1.143   6.189   3.073
    1HEX    H2M15663   1.002   6.199   3.170
    1STR    S0015664   1.962   6.185   2.619
    1STR    S0E15665   1.439   0.311   3.173
    1STR    S0M15666   1.368   5.865   2.862
    1STR    S0X15667   2.120   0.015   3.026
    1STR    S1415668   1.839   0.423   3.681
    1STR    S1B15669   1.117   5.992   3.196
    1HEX    C0115670   1.879   6.122   4.212
    1HEX    C0215671   1.867   6.122   4.365
    1HEX    C0315672   1.722   6.133   4.398
    1HEX    O0415673   1.639   6.051   4.359
    1HEX    O0515674   1.698   6.252   4.441
    1HEX    C0615675   1.569   6.304   4.445
    1HEX    C0715676   1.508   6.338   4.574
    1HEX    C0815677   1.543   0.141   4.612
    1HEX    O0915678   1.499   0.226   4.509
    1HEX    C0A15679   1.411   0.319   4.531
    1HEX    O0B15680   1.340   0.332   4.628
    1HEX    C0C15681   1.421   0.425   4.428
    1HEX    C0D15682   1.565   0.474   4.413
    1HEX    C0F15683   1.357   0.012   4.563
    1HEX    O0G15684   1.310   6.231   4.597
    1HEX    C0H15685   1.291   6.139   4.513
    1HEX    O0I15686   1.268   6.148   4.395
    1HEX    C0J15687   1.290   6.013   4.581
    1HEX    C0K15688   1.290   6.012   4.736
    1HEX    C0N15689   1.546   6.210   4.653
    1HEX    O0O15690   1.679   6.200   4.674
    1HEX    C0P15691   1.723   6.292   4.763
    1HEX    C0Q15692   1.670   6.267   4.900
    1HEX    C0R15693   1.676   6.114   4.923
    1HEX    O0S15694   1.811   6.080   4.902
    1HEX    C0T15695   1.878   6.002   4.980
    1HEX    O0U15696   1.832   5.920   5.057
    1HEX    C0V15697   2.026   6.019   4.967
    1HEX    C0W15698   2.062   6.166   4.968
    1HEX    C0Y15699   1.779   6.329   4.980
    1HEX    O0Z15700   1.803   0.125   4.993
    1HEX    C1015701   1.898   0.151   5.083
    1HEX    O1115702   1.992   0.081   5.117
    1HEX    C1215703   1.867   0.272   5.158
    1HEX    C1315704   1.736   0.251   5.236
    1HEX    C1515705   1.535   0.003   4.917
    1HEX    O1615706   1.441   6.316   5.018
    1HEX    C1715707   1.369   6.207   5.036
    1HEX    O1815708   1.397   6.095   4.998
    1HEX    C1915709   1.247   6.232   5.122
    1HEX    C1A15710   1.207   0.042   5.136
    1HEX    H1D15711   1.980   6.093   4.185
    1HEX    H1E15712   1.810   6.047   4.172
    1HEX    H1F15713   1.921   6.205   4.411
    1HEX    H1G15714   1.904   6.031   4.410
    1HEX    H1H15715   1.500   6.231   4.405
    1HEX    H1I15716   1.576   0.052   4.386
    1HEX    H1J15717   1.646   0.168   4.619
    1HEX    H1K15718   1.501   0.167   4.708
    1HEX    H1M15719   1.350   0.504   4.449
    1HEX    H1N15720   1.392   0.373   4.340
    1HEX    H1O15721   1.571   0.550   4.336
    1HEX    H1P15722   1.634   0.394   4.388
    1HEX    H1R15723   1.320   0.046   4.468
    1HEX    H1S15724   1.315   0.081   4.635
    1HEX    H1T15725   1.387   5.991   4.541
    1HEX    H1U15726   1.221   5.943   4.535
    1HEX    H1V15727   1.197   5.974   4.775
    1HEX    H1W15728   1.302   6.108   4.783
    1HEX    H1Y15729   1.534   6.122   4.592
    1HEX    H1Z15730   1.487   6.183   4.738
    1HEX    H2015731   1.734   0.057   4.744
    1HEX    H2115732   1.821   6.254   4.748
    1HEX    H2215733   1.617   6.057   4.853
    1HEX    H2315734   1.642   6.086   5.020
    1HEX    H2415735   2.054   5.973   4.873
    1HEX    H2515736   2.073   5.968   5.051
    1HEX    H2615737   2.150   6.192   5.023
    1HEX    H2715738   1.992   6.209   5.037
    1HEX    H2915739   1.868   6.309   4.931
    1HEX    H2A15740   1.794   6.274   5.068
    1HEX    H2B15741   1.874   0.347   5.081
    1HEX    H2C15742   1.950   0.291   5.225
    1HEX    H2D15743   1.706   0.333   5.300
    1HEX    H2E15744   1.757   0.170   5.295
    1HEX    H2G15745   1.472   0.010   4.832
    1HEX    H2H15746   1.563   0.107   4.924
    1HEX    H2I15747   1.275   6.194   5.220
    1HEX    H2J15748   1.166   6.172   5.083
    1HEX    H2K15749   1.292   0.109   5.123
    1HEX    H2M15750   1.171   0.060   5.236
    1STR    S0015751   1.847   6.284   4.137
    1STR    S0E15752   1.617   0.547   4.567
    1STR    S0M15753   1.423   5.901   4.780
    1STR    S0X15754   2.061   6.219   4.793
    1STR    S1415755   1.594   0.162   5.176
    1STR    S1B15756   1.079   0.096   5.021
    1HEX    C0115757   1.933   1.366   5.905
    1HEX    C0215758   1.844   1.270   5.983
    1HEX    C0315759   1.700   1.310   5.991
    1HEX    O0415760   1.618   1.245   5.926
    1HEX    O0515761   1.673   1.413   6.074
    1HEX    C0615762   1.535   1.436   6.091
    1HEX    C0715763   1.474   1.549   6.176
    1HEX    C0815764   1.551   1.677   6.160
    1HEX    O0915765   1.465   1.788   6.152
    1HEX    C0A15766   1.412   1.842   6.260
    1HEX    O0B15767   1.403   1.795   0.032
    1HEX    C0C15768   1.384   1.986   6.238
    1HEX    C0D15769   1.465   2.070   6.335
    1HEX    C0F15770   1.333   1.570   6.124
    1HEX    O0G15771   1.275   1.445   6.111
    1HEX    C0H15772   1.226   1.396   6.001
    1HEX    O0I15773   1.185   1.452   5.901
    1HEX    C0J15774   1.214   1.250   6.014
    1HEX    C0K15775   1.116   1.212   6.126
    1HEX    C0N15776   1.455   1.514   6.324
    1HEX    O0O15777   1.533   1.407   0.018
    1HEX    C0P15778   1.663   1.442   0.043
    1HEX    C0Q15779   1.687   1.375   0.176
    1HEX    C0R15780   1.681   1.223   0.153
    1HEX    O0S15781   1.776   1.187   0.054
    1HEX    C0T15782   1.901   1.157   0.087
    1HEX    O0U15783   1.945   1.128   0.197
    1HEX    C0V15784   1.995   1.167   6.310
    1HEX    C0W15785   2.061   1.305   6.307
    1HEX    C0Y15786   1.821   1.421   0.227
    1HEX    O0Z15787   1.881   1.345   0.327
    1HEX    C1015788   1.825   1.303   0.439
    1HEX    O1115789   1.713   1.258   0.462
    1HEX    C1215790   1.925   1.322   0.547
    1HEX    C1315791   1.910   1.461   0.607
    1HEX    C1515792   1.589   1.439   0.273
    1HEX    O1615793   1.467   1.372   0.288
    1HEX    C1715794   1.365   1.449   0.314
    1HEX    O1815795   1.354   1.564   0.274
    1HEX    C1915796   1.260   1.387   0.402
    1HEX    C1A15797   1.124   1.451   0.387
    1HEX    H1D15798   2.038   1.341   5.916
    1HEX    H1E15799   1.920   1.465   5.945
    1HEX    H1F15800   1.873   1.266   6.085
    1HEX    H1G15801   1.849   1.169   5.944
    1HEX    H1H15802   1.491   1.341   6.119
    1HEX    H1I15803   1.499   1.455   5.993
    1HEX    H1J15804   1.608   1.673   6.069
    1HEX    H1K15805   1.624   1.692   6.239
    1HEX    H1M15806   1.279   2.008   6.243
    1HEX    H1N15807   1.410   2.004   6.135
    1HEX    H1O15808   1.406   2.080   0.086
    1HEX    H1P15809   1.482   2.167   6.291
    1HEX    H1R15810   1.326   1.628   6.035
    1HEX    H1S15811   1.281   1.624   6.199
    1HEX    H1T15812   1.318   1.224   6.030
    1HEX    H1U15813   1.183   1.207   5.920
    1HEX    H1V15814   1.124   1.108   6.148
    1HEX    H1W15815   1.015   1.222   6.090
    1HEX    H1Y15816   1.352   1.488   0.007
    1HEX    H1Z15817   1.477   1.592   0.054
    1HEX    H2015818   1.685   1.549   0.045
    1HEX    H2115819   1.716   1.397   6.302
    1HEX    H2215820   1.583   1.196   0.114
    1HEX    H2315821   1.698   1.167   0.244
    1HEX    H2415822   1.943   1.138   6.220
    1HEX    H2515823   2.072   1.093   6.328
    1HEX    H2615824   2.088   1.330   0.070
    1HEX    H2715825   2.152   1.307   6.248
    1HEX    H2915826   1.816   1.527   0.251
    1HEX    H2A15827   1.894   1.416   0.150
    1HEX    H2B15828   2.020   1.307   0.498
    1HEX    H2C15829   1.913   1.244   0.621
    1HEX    H2D15830   1.997   1.479   0.669
    1HEX    H2E15831   1.819   1.468   0.667
    1HEX    H2G15832   1.579   1.543   0.243
    1HEX    H2H15833   1.625   1.450   0.373
    1HEX    H2I15834   1.295   1.388   0.504
    1HEX    H2J15835   1.247   1.285   0.373
    1HEX    H2K15836   1.119   1.547   0.435
    1HEX    H2M15837   1.050   1.387   0.434
    1STR    S0015838   1.888   1.370   5.730
    1STR    S0E15839   1.624   1.994   0.043
    1STR    S0M15840   1.124   1.294   6.287
    1STR    S0X15841   1.954   1.439   6.249
    1STR    S1415842   1.910   1.594   0.487
    1STR    S1B15843   1.088   1.476   0.213
    1HEX    C0115844   1.813   1.484   1.010
    1HEX    C0215845   1.778   1.381   1.115
    1HEX    C0315846   1.631   1.362   1.116
    1HEX    O0415847   1.582   1.250   1.127
    1HEX    O0515848   1.567   1.480   1.110
    1HEX    C0615849   1.431   1.483   1.144
    1HEX    C0715850   1.414   1.511   1.293
    1HEX    C0815851   1.414   1.659   1.320
    1HEX    O0915852   1.298   1.735   1.296
    1HEX    C0A15853   1.280   1.854   1.358
    1HEX    O0B15854   1.170   1.898   1.388
    1HEX    C0C15855   1.398   1.949   1.366
    1HEX    C0D15856   1.524   1.919   1.445
    1HEX    C0F15857   1.278   1.459   1.337
    1HEX    O0G15858   1.251   1.325   1.302
    1HEX    C0H15859   1.175   1.301   1.196
    1HEX    O0I15860   1.129   1.385   1.118
    1HEX    C0J15861   1.161   1.154   1.166
    1HEX    C0K15862   1.292   1.101   1.105
    1HEX    C0N15863   1.519   1.440   1.382
    1HEX    O0O15864   1.659   1.474   1.383
    1HEX    C0P15865   1.729   1.585   1.441
    1HEX    C0Q15866   1.719   1.623   1.590
    1HEX    C0R15867   1.754   1.502   1.672
    1HEX    O0S15868   1.879   1.514   1.735
    1HEX    C0T15869   1.912   1.433   1.834
    1HEX    O0U15870   1.861   1.327   1.863
    1HEX    C0V15871   2.035   1.480   1.908
    1HEX    C0W15872   2.035   1.632   1.927
    1HEX    C0Y15873   1.800   1.749   1.615
    1HEX    O0Z15874   1.788   1.789   1.749
    1HEX    C1015875   1.873   1.880   1.792
    1HEX    O1115876   1.965   1.928   1.729
    1HEX    C1215877   1.849   1.924   1.935
    1HEX    C1315878   1.762   1.834   2.022
    1HEX    C1515879   1.576   1.654   1.605
    1HEX    O1615880   1.501   1.728   1.697
    1HEX    C1715881   1.369   1.707   1.689
    1HEX    O1815882   1.316   1.627   1.615
    1HEX    C1915883   1.284   1.775   1.788
    1HEX    C1A15884   1.135   1.794   1.759
    1HEX    H1D15885   1.731   1.509   0.943
    1HEX    H1E15886   1.893   1.442   0.950
    1HEX    H1F15887   1.805   1.416   1.214
    1HEX    H1G15888   1.827   1.285   1.099
    1HEX    H1H15889   1.390   1.388   1.116
    1HEX    H1I15890   1.372   1.551   1.085
    1HEX    H1J15891   1.505   1.703   1.286
    1HEX    H1K15892   1.409   1.664   1.424
    1HEX    H1M15893   1.357   2.042   1.399
    1HEX    H1N15894   1.425   1.957   1.265
    1HEX    H1O15895   1.588   1.852   1.391
    1HEX    H1P15896   1.491   1.885   1.541
    1HEX    H1R15897   1.201   1.524   1.298
    1HEX    H1S15898   1.274   1.465   1.445
    1HEX    H1T15899   1.081   1.145   1.094
    1HEX    H1U15900   1.131   1.104   1.258
    1HEX    H1V15901   1.363   1.181   1.088
    1HEX    H1W15902   1.275   1.054   1.009
    1HEX    H1Y15903   1.522   1.343   1.340
    1HEX    H1Z15904   1.480   1.411   1.478
    1HEX    H2015905   1.693   1.669   1.387
    1HEX    H2115906   1.833   1.577   1.414
    1HEX    H2215907   1.741   1.418   1.608
    1HEX    H2315908   1.680   1.475   1.744
    1HEX    H2415909   2.112   1.441   1.847
    1HEX    H2515910   2.046   1.425   2.001
    1HEX    H2615911   2.040   1.655   2.033
    1HEX    H2715912   1.942   1.669   1.890
    1HEX    H2915913   1.768   1.829   1.550
    1HEX    H2A15914   1.903   1.737   1.585
    1HEX    H2B15915   1.815   2.025   1.928
    1HEX    H2C15916   1.948   1.929   1.979
    1HEX    H2D15917   1.757   1.873   2.123
    1HEX    H2E15918   1.811   1.738   2.030
    1HEX    H2G15919   1.530   1.565   1.579
    1HEX    H2H15920   1.561   1.709   1.522
    1HEX    H2I15921   1.338   1.852   1.841
    1HEX    H2J15922   1.283   1.703   1.864
    1HEX    H2K15923   1.101   1.893   1.771
    1HEX    H2M15924   1.085   1.760   1.845
    1STR    S0015925   1.876   1.634   1.087
    1STR    S0E15926   1.644   2.047   1.477
    1STR    S0M15927   1.371   0.980   1.211
    1STR    S0X15928   2.164   1.729   1.846
    1STR    S1415929   1.589   1.807   1.974
    1STR    S1B15930   1.045   1.751   1.607
    1HEX    C0115931   2.105   1.432   2.809
    1HEX    C0215932   2.027   1.559   2.841
    1HEX    C0315933   1.885   1.531   2.886
    1HEX    O0415934   1.848   1.423   2.932
    1HEX    O0515935   1.808   1.636   2.871
    1HEX    C0615936   1.676   1.612   2.834
    1HEX    C0715937   1.573   1.628   2.942
    1HEX    C0815938   1.567   1.770   2.983
    1HEX    O0915939   1.485   1.863   2.914
    1HEX    C0A15940   1.381   1.906   2.984
    1HEX    O0B15941   1.331   1.848   3.079
    1HEX    C0C15942   1.334   2.044   2.946
    1HEX    C0D15943   1.393   2.147   3.044
    1HEX    C0F15944   1.439   1.602   2.885
    1HEX    O0G15945   1.438   1.465   2.887
    1HEX    C0H15946   1.327   1.414   2.894
    1HEX    O0I15947   1.230   1.463   2.840
    1HEX    C0J15948   1.330   1.283   2.965
    1HEX    C0K15949   1.291   1.294   3.112
    1HEX    C0N15950   1.591   1.527   3.061
    1HEX    O0O15951   1.681   1.565   3.159
    1HEX    C0P15952   1.622   1.625   3.272
    1HEX    C0Q15953   1.539   1.560   3.378
    1HEX    C0R15954   1.606   1.430   3.418
    1HEX    O0S15955   1.740   1.422   3.376
    1HEX    C0T15956   1.794   1.305   3.383
    1HEX    O0U15957   1.762   1.217   3.463
    1HEX    C0V15958   1.899   1.283   3.280
    1HEX    C0W15959   2.021   1.370   3.297
    1HEX    C0Y15960   1.538   1.667   3.486
    1HEX    O0Z15961   1.491   1.619   3.608
    1HEX    C1015962   1.457   1.702   3.701
    1HEX    O1115963   1.450   1.824   3.686
    1HEX    C1215964   1.428   1.635   3.835
    1HEX    C1315965   1.466   1.488   3.870
    1HEX    C1515966   1.391   1.539   3.346
    1HEX    O1615967   1.324   1.500   3.465
    1HEX    C1715968   1.229   1.407   3.473
    1HEX    O1815969   1.188   1.334   3.386
    1HEX    C1915970   1.163   1.399   3.607
    1HEX    C1A15971   1.169   1.528   3.688
    1HEX    H1D15972   2.211   1.454   2.807
    1HEX    H1E15973   2.087   1.357   2.886
    1HEX    H1F15974   2.026   1.627   2.757
    1HEX    H1G15975   2.077   1.609   2.923
    1HEX    H1H15976   1.669   1.510   2.803
    1HEX    H1I15977   1.652   1.676   2.749
    1HEX    H1J15978   1.665   1.807   2.990
    1HEX    H1K15979   1.530   1.759   3.081
    1HEX    H1M15980   1.226   2.044   2.948
    1HEX    H1N15981   1.368   2.062   2.844
    1HEX    H1O15982   1.357   2.247   3.020
    1HEX    H1P15983   1.500   2.147   3.024
    1HEX    H1R15984   1.423   1.644   2.786
    1HEX    H1S15985   1.360   1.640   2.951
    1HEX    H1T15986   1.432   1.249   2.956
    1HEX    H1U15987   1.267   1.215   2.911
    1HEX    H1V15988   1.194   1.249   3.128
    1HEX    H1W15989   1.276   1.398   3.131
    1HEX    H1Y15990   1.626   1.430   3.027
    1HEX    H1Z15991   1.496   1.505   3.108
    1HEX    H2015992   1.572   1.718   3.259
    1HEX    H2115993   1.715   1.643   3.321
    1HEX    H2215994   1.557   1.347   3.372
    1HEX    H2315995   1.597   1.413   3.522
    1HEX    H2415996   1.846   1.301   3.186
    1HEX    H2515997   1.935   1.182   3.285
    1HEX    H2615998   2.112   1.312   3.300
    1HEX    H2715999   2.014   1.427   3.388
    1HEX    H2916000   1.478   1.753   3.453
    1HEX    H2A16001   1.637   1.705   3.499
    1HEX    H2B16002   1.326   1.659   3.860
    1HEX    H2C16003   1.489   1.693   3.901
    1HEX    H2D16004   1.395   1.446   3.939
    1HEX    H2E16005   1.560   1.493   3.925
    1HEX    H2G16006   1.386   1.463   3.274
    1HEX    H2H16007   1.347   1.629   3.303
    1HEX    H2I16008   1.216   1.320   3.659
    1HEX    H2J16009   1.061   1.365   3.592
    1HEX    H2K16010   1.275   1.539   3.689
    1HEX    H2M16011   1.134   1.514   3.789
    1STR    S0016012   2.059   1.365   2.649
    1STR    S0E16013   1.357   2.113   3.222
    1STR    S0M16014   1.400   1.215   3.235
    1STR    S0X16015   2.021   1.472   3.151
    1STR    S1416016   1.489   1.358   3.744
    1STR    S1B16017   1.114   1.691   3.624
    1HEX    C0116018   1.770   1.166   4.328
    1HEX    C0216019   1.651   1.231   4.398
    1HEX    C0316020   1.536   1.256   4.300
    1HEX    O0416021   1.481   1.165   4.238
    1HEX    O0516022   1.509   1.384   4.289
    1HEX    C0616023   1.386   1.432   4.246
    1HEX    C0716024   1.319   1.514   4.359
    1HEX    C0816025   1.327   1.660   4.318
    1HEX    O0916026   1.262   1.763   4.395
    1HEX    C0A16027   1.328   1.814   4.497
    1HEX    O0B16028   1.408   1.750   4.559
    1HEX    C0C16029   1.313   1.960   4.528
    1HEX    C0D16030   1.352   2.003   4.674
    1HEX    C0F16031   1.169   1.481   4.363
    1HEX    O0G16032   1.156   1.344   4.394
    1HEX    C0H16033   1.127   1.255   4.301
    1HEX    O0I16034   1.084   1.281   4.188
    1HEX    C0J16035   1.161   1.114   4.341
    1HEX    C0K16036   1.203   1.099   4.487
    1HEX    C0N16037   1.390   1.483   4.495
    1HEX    O0O16038   1.532   1.501   4.499
    1HEX    C0P16039   1.603   1.556   4.608
    1HEX    C0Q16040   1.587   1.509   4.752
    1HEX    C0R16041   1.635   1.367   4.762
    1HEX    O0S16042   1.757   1.339   4.703
    1HEX    C0T16043   1.867   1.334   4.774
    1HEX    O0U16044   1.884   1.347   4.894
    1HEX    C0V16045   1.980   1.312   4.682
    1HEX    C0W16046   1.985   1.434   4.596
    1HEX    C0Y16047   1.663   1.603   4.841
    1HEX    O0Z16048   1.702   1.527   4.949
    1HEX    C1016049   1.751   1.579   5.053
    1HEX    O1116050   1.778   1.698   5.066
    1HEX    C1216051   1.755   1.471   5.159
    1HEX    C1316052   1.864   1.476   5.264
    1HEX    C1516053   1.446   1.517   4.805
    1HEX    O1616054   1.438   1.518   4.947
    1HEX    C1716055   1.417   1.409   5.016
    1HEX    O1816056   1.504   1.345   5.073
    1HEX    C1916057   1.273   1.386   5.051
    1HEX    C1A16058   1.186   1.336   4.938
    1HEX    H1D16059   1.800   1.077   4.381
    1HEX    H1E16060   1.743   1.140   4.225
    1HEX    H1F16061   1.678   1.324   4.447
    1HEX    H1G16062   1.620   1.168   4.480
    1HEX    H1H16063   1.328   1.349   4.210
    1HEX    H1I16064   1.407   1.492   4.159
    1HEX    H1J16065   1.288   1.673   4.217
    1HEX    H1K16066   1.433   1.673   4.310
    1HEX    H1M16067   1.214   1.994   4.502
    1HEX    H1N16068   1.376   2.014   4.459
    1HEX    H1O16069   1.267   2.041   4.727
    1HEX    H1P16070   1.420   2.084   4.660
    1HEX    H1R16071   1.121   1.506   4.269
    1HEX    H1S16072   1.117   1.537   4.440
    1HEX    H1T16073   1.241   1.078   4.276
    1HEX    H1U16074   1.072   1.055   4.324
    1HEX    H1V16075   1.144   1.019   4.528
    1HEX    H1W16076   1.173   1.183   4.549
    1HEX    H1Y16077   1.371   1.379   4.513
    1HEX    H1Z16078   1.346   1.533   4.576
    1HEX    H2016079   1.605   1.663   4.608
    1HEX    H2116080   1.705   1.537   4.581
    1HEX    H2216081   1.569   1.318   4.697
    1HEX    H2316082   1.625   1.327   4.862
    1HEX    H2416083   1.958   1.224   4.623
    1HEX    H2516084   2.071   1.296   4.736
    1HEX    H2616085   1.889   1.463   4.557
    1HEX    H2716086   2.048   1.404   4.515
    1HEX    H2916087   1.602   1.686   4.876
    1HEX    H2A16088   1.745   1.643   4.788
    1HEX    H2B16089   1.765   1.377   5.106
    1HEX    H2C16090   1.656   1.467   5.203
    1HEX    H2D16091   1.959   1.469   5.214
    1HEX    H2E16092   1.852   1.388   5.327
    1HEX    H2G16093   1.384   1.439   4.765
    1HEX    H2H16094   1.410   1.611   4.767
    1HEX    H2I16095   1.236   1.482   5.079
    1HEX    H2J16096   1.268   1.320   5.136
    1HEX    H2K16097   1.119   1.259   4.972
    1HEX    H2M16098   1.243   1.304   4.854
    1STR    S0016099   1.908   1.280   4.321
    1STR    S0E16100   1.454   1.906   4.791
    1STR    S0M16101   1.382   1.060   4.505
    1STR    S0X16102   2.061   1.576   4.668
    1STR    S1416103   1.852   1.622   5.371
    1STR    S1B16104   1.091   1.469   4.879
    1HEX    C0116105   1.827   3.050   5.935
    1HEX    C0216106   1.766   2.918   5.887
    1HEX    C0316107   1.618   2.922   5.907
    1HEX    O0416108   1.538   2.862   5.839
    1HEX    O0516109   1.592   3.002   6.000
    1HEX    C0616110   1.500   3.106   5.989
    1HEX    C0716111   1.424   3.104   6.117
    1HEX    C0816112   1.356   3.239   6.146
    1HEX    O0916113   1.358   3.322   6.033
    1HEX    C0A16114   1.315   3.445   6.047
    1HEX    O0B16115   1.251   3.488   6.143
    1HEX    C0C16116   1.368   3.534   5.938
    1HEX    C0D16117   1.500   3.598   5.981
    1HEX    C0F16118   1.318   3.006   6.093
    1HEX    O0G16119   1.359   2.878   6.059
    1HEX    C0H16120   1.300   2.813   5.962
    1HEX    O0I16121   1.228   2.859   5.874
    1HEX    C0J16122   1.333   2.667   5.969
    1HEX    C0K16123   1.353   2.620   6.114
    1HEX    C0N16124   1.510   3.050   6.230
    1HEX    O0O16125   1.639   3.105   6.232
    1HEX    C0P16126   1.662   3.237   6.272
    1HEX    C0Q16127   1.662   3.250   0.085
    1HEX    C0R16128   1.725   3.128   0.150
    1HEX    O0S16129   1.852   3.150   0.206
    1HEX    C0T16130   1.920   3.046   0.248
    1HEX    O0U16131   1.890   2.932   0.225
    1HEX    C0V16132   2.053   3.074   0.310
    1HEX    C0W16133   2.052   3.200   0.396
    1HEX    C0Y16134   1.735   3.384   0.110
    1HEX    O0Z16135   1.816   3.414   0.223
    1HEX    C1016136   1.771   3.457   0.337
    1HEX    O1116137   1.830   3.536   0.410
    1HEX    C1216138   1.644   3.391   0.379
    1HEX    C1316139   1.629   3.369   0.527
    1HEX    C1516140   1.514   3.255   0.123
    1HEX    O1616141   1.465   3.223   0.250
    1HEX    C1716142   1.410   3.104   0.272
    1HEX    O1816143   1.442   2.999   0.218
    1HEX    C1916144   1.285   3.115   0.356
    1HEX    C1A16145   1.191   3.219   0.293
    1HEX    H1D16146   1.930   3.040   5.912
    1HEX    H1E16147   1.809   3.072   6.040
    1HEX    H1F16148   1.805   2.828   5.928
    1HEX    H1G16149   1.800   2.901   5.789
    1HEX    H1H16150   1.441   3.109   5.898
    1HEX    H1I16151   1.556   3.195   6.000
    1HEX    H1J16152   1.400   3.295   6.226
    1HEX    H1K16153   1.253   3.227   6.175
    1HEX    H1M16154   1.292   3.608   5.916
    1HEX    H1N16155   1.385   3.472   5.850
    1HEX    H1O16156   1.552   3.649   5.901
    1HEX    H1P16157   1.565   3.526   6.029
    1HEX    H1R16158   1.255   3.049   6.017
    1HEX    H1S16159   1.275   2.993   6.189
    1HEX    H1T16160   1.422   2.655   5.909
    1HEX    H1U16161   1.251   2.614   5.921
    1HEX    H1V16162   1.327   2.516   6.129
    1HEX    H1W16163   1.286   2.676   6.177
    1HEX    H1Y16164   1.533   2.949   6.204
    1HEX    H1Z16165   1.458   3.028   6.322
    1HEX    H2016166   1.601   3.312   6.222
    1HEX    H2116167   1.758   3.258   6.230
    1HEX    H2216168   1.710   3.034   0.098
    1HEX    H2316169   1.665   3.106   0.233
    1HEX    H2416170   2.127   3.076   0.230
    1HEX    H2516171   2.076   2.987   0.370
    1HEX    H2616172   2.081   3.173   0.496
    1HEX    H2716173   1.957   3.251   0.400
    1HEX    H2916174   1.663   3.458   0.096
    1HEX    H2A16175   1.797   3.412   0.026
    1HEX    H2B16176   1.663   3.298   0.332
    1HEX    H2C16177   1.553   3.421   0.332
    1HEX    H2D16178   1.573   3.450   0.572
    1HEX    H2E16179   1.727   3.359   0.574
    1HEX    H2G16180   1.452   3.201   0.057
    1HEX    H2H16181   1.473   3.348   0.095
    1HEX    H2I16182   1.304   3.143   0.458
    1HEX    H2J16183   1.243   3.016   0.356
    1HEX    H2K16184   1.227   3.319   0.311
    1HEX    H2M16185   1.088   3.212   0.326
    1STR    S0016186   1.759   3.181   5.833
    1STR    S0E16187   1.476   3.704   6.117
    1STR    S0M16188   1.522   2.652   6.171
    1STR    S0X16189   2.168   3.319   0.333
    1STR    S1416190   1.540   3.215   0.529
    1STR    S1B16191   1.201   3.185   0.119
    1HEX    C0116192   2.022   3.331   1.086
    1HEX    C0216193   1.869   3.354   1.061
    1HEX    C0316194   1.775   3.301   1.168
    1HEX    O0416195   1.812   3.228   1.259
    1HEX    O0516196   1.658   3.362   1.162
    1HEX    C0616197   1.540   3.288   1.157
    1HEX    C0716198   1.462   3.227   1.275
    1HEX    C0816199   1.450   3.308   1.398
    1HEX    O0916200   1.405   3.439   1.383
    1HEX    C0A16201   1.390   3.499   1.498
    1HEX    O0B16202   1.407   3.445   1.608
    1HEX    C0C16203   1.347   3.643   1.485
    1HEX    C0D16204   1.356   3.713   1.620
    1HEX    C0F16205   1.315   3.211   1.231
    1HEX    O0G16206   1.279   3.075   1.234
    1HEX    C0H16207   1.183   3.026   1.162
    1HEX    O0I16208   1.106   3.087   1.090
    1HEX    C0J16209   1.179   2.878   1.179
    1HEX    C0K16210   1.073   2.833   1.273
    1HEX    C0N16211   1.512   3.091   1.323
    1HEX    O0O16212   1.640   3.062   1.367
    1HEX    C0P16213   1.685   3.098   1.494
    1HEX    C0Q16214   1.633   3.035   1.625
    1HEX    C0R16215   1.633   2.888   1.595
    1HEX    O0S16216   1.759   2.844   1.546
    1HEX    C0T16217   1.829   2.749   1.607
    1HEX    O0U16218   1.795   2.679   1.702
    1HEX    C0V16219   1.964   2.732   1.544
    1HEX    C0W16220   2.057   2.849   1.574
    1HEX    C0Y16221   1.725   3.057   1.746
    1HEX    O0Z16222   1.802   2.952   1.798
    1HEX    C1016223   1.768   2.898   1.915
    1HEX    O1116224   1.656   2.867   1.952
    1HEX    C1216225   1.884   2.884   2.009
    1HEX    C1316226   1.997   2.985   1.987
    1HEX    C1516227   1.499   3.101   1.662
    1HEX    O1616228   1.458   3.092   1.796
    1HEX    C1716229   1.423   2.976   1.846
    1HEX    O1816230   1.423   2.867   1.791
    1HEX    C1916231   1.370   2.987   1.984
    1HEX    C1A16232   1.218   2.989   1.969
    1HEX    H1D16233   2.077   3.356   0.996
    1HEX    H1E16234   2.064   3.400   1.156
    1HEX    H1F16235   1.832   3.310   0.969
    1HEX    H1G16236   1.848   3.460   1.049
    1HEX    H1H16237   1.573   3.203   1.102
    1HEX    H1I16238   1.474   3.348   1.095
    1HEX    H1J16239   1.540   3.305   1.454
    1HEX    H1K16240   1.382   3.257   1.466
    1HEX    H1M16241   1.247   3.648   1.445
    1HEX    H1N16242   1.406   3.688   1.405
    1HEX    H1O16243   1.280   3.673   1.686
    1HEX    H1P16244   1.332   3.817   1.606
    1HEX    H1R16245   1.290   3.259   1.137
    1HEX    H1S16246   1.251   3.258   1.303
    1HEX    H1T16247   1.276   2.847   1.216
    1HEX    H1U16248   1.158   2.829   1.085
    1HEX    H1V16249   1.064   2.725   1.273
    1HEX    H1W16250   0.977   2.866   1.235
    1HEX    H1Y16251   1.492   3.012   1.253
    1HEX    H1Z16252   1.453   3.072   1.408
    1HEX    H2016253   1.701   3.202   1.498
    1HEX    H2116254   1.782   3.060   1.479
    1HEX    H2216255   1.559   2.874   1.518
    1HEX    H2316256   1.610   2.827   1.681
    1HEX    H2416257   1.946   2.717   1.439
    1HEX    H2516258   2.006   2.641   1.585
    1HEX    H2616259   2.043   2.872   1.679
    1HEX    H2716260   2.161   2.822   1.560
    1HEX    H2916261   1.673   3.097   1.830
    1HEX    H2A16262   1.791   3.136   1.721
    1HEX    H2B16263   1.921   2.784   1.989
    1HEX    H2C16264   1.845   2.890   2.111
    1HEX    H2D16265   2.025   2.981   1.884
    1HEX    H2E16266   2.086   2.954   2.040
    1HEX    H2G16267   1.416   3.067   1.605
    1HEX    H2H16268   1.504   3.208   1.644
    1HEX    H2I16269   1.415   3.074   2.032
    1HEX    H2J16270   1.404   2.898   2.036
    1HEX    H2K16271   1.169   2.947   2.056
    1HEX    H2M16272   1.182   2.942   1.877
    1STR    S0016273   2.083   3.169   1.145
    1STR    S0E16274   1.512   3.689   1.712
    1STR    S0M16275   1.093   2.905   1.437
    1STR    S0X16276   2.027   2.996   1.471
    1STR    S1416277   1.975   3.161   2.028
    1STR    S1B16278   1.169   3.157   1.953
    1HEX    C0116279   1.827   2.866   2.561
    1HEX    C0216280   1.800   2.841   2.707
    1HEX    C0316281   1.654   2.821   2.734
    1HEX    O0416282   1.599   2.716   2.706
    1HEX    O0516283   1.597   2.927   2.793
    1HEX    C0616284   1.456   2.932   2.792
    1HEX    C0716285   1.392   3.025   2.894
    1HEX    C0816286   1.420   3.169   2.869
    1HEX    O0916287   1.361   3.246   2.968
    1HEX    C0A16288   1.376   3.375   2.964
    1HEX    O0B16289   1.285   3.452   2.944
    1HEX    C0C16290   1.517   3.423   2.991
    1HEX    C0D16291   1.539   3.504   3.117
    1HEX    C0F16292   1.239   3.014   2.886
    1HEX    O0G16293   1.192   2.883   2.858
    1HEX    C0H16294   1.166   2.852   2.730
    1HEX    O0I16295   1.178   2.929   2.635
    1HEX    C0J16296   1.119   2.710   2.709
    1HEX    C0K16297   1.158   2.613   2.821
    1HEX    C0N16298   1.443   2.995   3.031
    1HEX    O0O16299   1.589   2.986   3.046
    1HEX    C0P16300   1.689   3.091   3.054
    1HEX    C0Q16301   1.692   3.161   3.189
    1HEX    C0R16302   1.733   3.064   3.294
    1HEX    O0S16303   1.870   3.049   3.307
    1HEX    C0T16304   1.910   3.040   3.431
    1HEX    O0U16305   1.854   2.980   3.522
    1HEX    C0V16306   2.040   3.105   3.452
    1HEX    C0W16307   2.086   3.226   3.366
    1HEX    C0Y16308   1.777   3.284   3.202
    1HEX    O0Z16309   1.800   3.305   3.339
    1HEX    C1016310   1.790   3.415   3.408
    1HEX    O1116311   1.745   3.523   3.373
    1HEX    C1216312   1.840   3.386   3.548
    1HEX    C1316313   1.743   3.426   3.658
    1HEX    C1516314   1.554   3.195   3.217
    1HEX    O1616315   1.530   3.282   3.322
    1HEX    C1716316   1.406   3.286   3.351
    1HEX    O1816317   1.336   3.187   3.353
    1HEX    C1916318   1.357   3.424   3.385
    1HEX    C1A16319   1.250   3.464   3.286
    1HEX    H1D16320   1.931   2.849   2.535
    1HEX    H1E16321   1.760   2.809   2.496
    1HEX    H1F16322   1.834   2.923   2.771
    1HEX    H1G16323   1.851   2.750   2.737
    1HEX    H1H16324   1.419   2.834   2.812
    1HEX    H1I16325   1.420   2.955   2.692
    1HEX    H1J16326   1.378   3.197   2.775
    1HEX    H1K16327   1.525   3.181   2.869
    1HEX    H1M16328   1.518   3.498   2.916
    1HEX    H1N16329   1.596   3.353   2.972
    1HEX    H1O16330   1.567   3.450   3.203
    1HEX    H1P16331   1.449   3.554   3.143
    1HEX    H1R16332   1.198   3.085   2.814
    1HEX    H1S16333   1.197   3.046   2.979
    1HEX    H1T16334   1.158   2.676   2.614
    1HEX    H1U16335   1.011   2.714   2.703
    1HEX    H1V16336   1.108   2.517   2.813
    1HEX    H1W16337   1.130   2.656   2.917
    1HEX    H1Y16338   1.402   2.898   3.053
    1HEX    H1Z16339   1.385   3.052   3.102
    1HEX    H2016340   1.689   3.161   2.973
    1HEX    H2116341   1.784   3.041   3.043
    1HEX    H2216342   1.679   2.975   3.278
    1HEX    H2316343   1.700   3.106   3.388
    1HEX    H2416344   2.077   3.012   3.413
    1HEX    H2516345   2.060   3.116   3.558
    1HEX    H2616346   2.167   3.271   3.421
    1HEX    H2716347   2.017   3.306   3.350
    1HEX    H2916348   1.750   3.369   3.144
    1HEX    H2A16349   1.867   3.248   3.161
    1HEX    H2B16350   1.937   3.434   3.562
    1HEX    H2C16351   1.856   3.279   3.557
    1HEX    H2D16352   1.750   3.533   3.678
    1HEX    H2E16353   1.761   3.369   3.749
    1HEX    H2G16354   1.509   3.102   3.237
    1HEX    H2H16355   1.504   3.232   3.132
    1HEX    H2I16356   1.441   3.493   3.385
    1HEX    H2J16357   1.317   3.418   3.486
    1HEX    H2K16358   1.276   3.463   3.182
    1HEX    H2M16359   1.206   3.558   3.316
    1STR    S0016360   1.793   3.038   2.539
    1STR    S0E16361   1.679   3.612   3.093
    1STR    S0M16362   1.336   2.581   2.811
    1STR    S0X16363   2.153   3.178   3.207
    1STR    S1416364   1.575   3.395   3.607
    1STR    S1B16365   1.123   3.346   3.296
    1HEX    C0116366   1.974   3.111   4.219
    1HEX    C0216367   1.922   3.162   4.353
    1HEX    C0316368   1.788   3.102   4.383
    1HEX    O0416369   1.755   2.993   4.339
    1HEX    O0516370   1.714   3.183   4.449
    1HEX    C0616371   1.574   3.172   4.447
    1HEX    C0716372   1.510   3.157   4.579
    1HEX    C0816373   1.474   3.295   4.638
    1HEX    O0916374   1.400   3.374   4.548
    1HEX    C0A16375   1.334   3.476   4.598
    1HEX    O0B16376   1.289   3.488   4.712
    1HEX    C0C16377   1.311   3.582   4.494
    1HEX    C0D16378   1.424   3.674   4.461
    1HEX    C0F16379   1.380   3.082   4.568
    1HEX    O0G16380   1.391   2.940   4.564
    1HEX    C0H16381   1.327   2.874   4.472
    1HEX    O0I16382   1.273   2.924   4.379
    1HEX    C0J16383   1.312   2.728   4.486
    1HEX    C0K16384   1.284   2.692   4.630
    1HEX    C0N16385   1.604   3.060   4.645
    1HEX    O0O16386   1.714   3.116   4.703
    1HEX    C0P16387   1.678   3.179   4.821
    1HEX    C0Q16388   1.616   3.104   4.935
    1HEX    C0R16389   1.690   2.971   4.944
    1HEX    O0S16390   1.823   2.988   4.979
    1HEX    C0T16391   1.910   2.892   4.951
    1HEX    O0U16392   1.887   2.781   4.905
    1HEX    C0V16393   2.051   2.934   4.971
    1HEX    C0W16394   2.068   3.085   4.952
    1HEX    C0Y16395   1.654   3.212   5.039
    1HEX    O0Z16396   1.554   3.232   5.131
    1HEX    C1016397   1.452   3.306   5.096
    1HEX    O1116398   1.426   3.340   4.982
    1HEX    C1216399   1.369   3.342   5.215
    1HEX    C1316400   1.406   3.259   5.336
    1HEX    C1516401   1.464   3.070   4.918
    1HEX    O1616402   1.380   3.052   5.030
    1HEX    C1716403   1.287   2.955   5.029
    1HEX    O1816404   1.293   2.848   4.968
    1HEX    C1916405   1.157   2.991   5.099
    1HEX    C1A16406   1.104   3.138   5.101
    1HEX    H1D16407   2.079   3.134   4.209
    1HEX    H1E16408   1.964   3.003   4.215
    1HEX    H1F16409   1.910   3.270   4.353
    1HEX    H1G16410   1.988   3.135   4.435
    1HEX    H1H16411   1.543   3.084   4.395
    1HEX    H1I16412   1.538   3.262   4.402
    1HEX    H1J16413   1.557   3.360   4.657
    1HEX    H1K16414   1.420   3.289   4.731
    1HEX    H1M16415   1.221   3.637   4.518
    1HEX    H1N16416   1.297   3.523   4.407
    1HEX    H1O16417   1.393   3.746   4.386
    1HEX    H1P16418   1.515   3.625   4.428
    1HEX    H1R16419   1.323   3.127   4.486
    1HEX    H1S16420   1.327   3.099   4.660
    1HEX    H1T16421   1.398   2.684   4.437
    1HEX    H1U16422   1.228   2.698   4.424
    1HEX    H1V16423   1.202   2.621   4.639
    1HEX    H1W16424   1.269   2.776   4.698
    1HEX    H1Y16425   1.640   2.991   4.570
    1HEX    H1Z16426   1.555   2.991   4.707
    1HEX    H2016427   1.634   3.276   4.811
    1HEX    H2116428   1.774   3.205   4.857
    1HEX    H2216429   1.691   2.924   4.848
    1HEX    H2316430   1.639   2.896   5.004
    1HEX    H2416431   2.096   2.868   4.899
    1HEX    H2516432   2.090   2.901   5.065
    1HEX    H2616433   2.170   3.120   4.959
    1HEX    H2716434   2.008   3.139   5.027
    1HEX    H2916435   1.671   3.314   5.004
    1HEX    H2A16436   1.754   3.197   5.076
    1HEX    H2B16437   1.265   3.341   5.192
    1HEX    H2C16438   1.392   3.445   5.238
    1HEX    H2D16439   1.367   3.308   5.424
    1HEX    H2E16440   1.514   3.262   5.346
    1HEX    H2G16441   1.449   2.980   4.862
    1HEX    H2H16442   1.413   3.142   4.858
    1HEX    H2I16443   1.163   2.949   5.199
    1HEX    H2J16444   1.083   2.931   5.047
    1HEX    H2K16445   1.129   3.183   5.196
    1HEX    H2M16446   0.996   3.132   5.100
    1STR    S0016447   1.888   3.180   4.074
    1STR    S0E16448   1.451   3.765   4.604
    1STR    S0M16449   1.435   2.614   4.669
    1STR    S0X16450   2.006   3.125   4.789
    1STR    S1416451   1.341   3.089   5.339
    1STR    S1B16452   1.139   3.261   4.970
    1HEX    C0116453   1.889   4.562   5.786
    1HEX    C0216454   1.875   4.577   5.937
    1HEX    C0316455   1.741   4.526   5.982
    1HEX    O0416456   1.703   4.413   5.953
    1HEX    O0516457   1.670   4.621   6.037
    1HEX    C0616458   1.534   4.594   6.050
    1HEX    C0716459   1.448   4.705   6.108
    1HEX    C0816460   1.511   4.839   6.081
    1HEX    O0916461   1.426   4.952   6.094
    1HEX    C0A16462   1.440   5.027   6.199
    1HEX    O0B16463   1.487   4.989   6.305
    1HEX    C0C16464   1.410   5.172   6.172
    1HEX    C0D16465   1.411   5.274   6.290
    1HEX    C0F16466   1.306   4.705   6.054
    1HEX    O0G16467   1.262   4.575   6.040
    1HEX    C0H16468   1.157   4.544   5.969
    1HEX    O0I16469   1.080   4.620   5.913
    1HEX    C0J16470   1.141   4.397   5.953
    1HEX    C0K16471   1.174   4.326   6.080
    1HEX    C0N16472   1.439   4.685   6.255
    1HEX    O0O16473   1.528   4.592   6.305
    1HEX    C0P16474   1.649   4.647   6.339
    1HEX    C0Q16475   1.696   4.567   0.114
    1HEX    C0R16476   1.720   4.424   0.071
    1HEX    O0S16477   1.814   4.412   6.305
    1HEX    C0T16478   1.928   4.348   6.328
    1HEX    O0U16479   1.955   4.279   0.086
    1HEX    C0V16480   2.031   4.373   6.221
    1HEX    C0W16481   2.108   4.503   6.247
    1HEX    C0Y16482   1.831   4.619   0.149
    1HEX    O0Z16483   1.865   4.576   0.276
    1HEX    C1016484   1.836   4.660   0.368
    1HEX    O1116485   1.801   4.775   0.343
    1HEX    C1216486   1.837   4.593   0.503
    1HEX    C1316487   1.902   4.675   0.614
    1HEX    C1516488   1.586   4.593   0.220
    1HEX    O1616489   1.598   4.525   0.342
    1HEX    C1716490   1.498   4.511   0.431
    1HEX    O1816491   1.502   4.432   0.525
    1HEX    C1916492   1.379   4.603   0.416
    1HEX    C1A16493   1.267   4.548   0.330
    1HEX    H1D16494   1.992   4.537   5.763
    1HEX    H1E16495   1.826   4.482   5.749
    1HEX    H1F16496   1.888   4.680   5.970
    1HEX    H1G16497   1.949   4.516   5.985
    1HEX    H1H16498   1.525   4.502   6.103
    1HEX    H1I16499   1.499   4.573   5.953
    1HEX    H1J16500   1.573   4.843   5.994
    1HEX    H1K16501   1.588   4.840   6.150
    1HEX    H1M16502   1.321   5.179   6.111
    1HEX    H1N16503   1.492   5.195   6.107
    1HEX    H1O16504   1.312   5.296   6.324
    1HEX    H1P16505   1.444   5.371   6.256
    1HEX    H1R16506   1.293   4.762   5.966
    1HEX    H1S16507   1.241   4.751   6.123
    1HEX    H1T16508   1.202   4.359   5.872
    1HEX    H1U16509   1.037   4.380   5.930
    1HEX    H1V16510   1.138   4.227   6.060
    1HEX    H1W16511   1.110   4.364   6.160
    1HEX    H1Y16512   1.344   4.648   6.279
    1HEX    H1Z16513   1.436   4.776   6.307
    1HEX    H2016514   1.636   4.748   0.035
    1HEX    H2116515   1.720   4.639   6.258
    1HEX    H2216516   1.632   4.379   0.034
    1HEX    H2316517   1.756   4.374   0.160
    1HEX    H2416518   1.981   4.370   6.125
    1HEX    H2516519   2.100   4.290   6.227
    1HEX    H2616520   2.196   4.512   6.184
    1HEX    H2716521   2.139   4.505   0.011
    1HEX    H2916522   1.836   4.725   0.129
    1HEX    H2A16523   1.912   4.576   0.095
    1HEX    H2B16524   1.883   4.496   0.494
    1HEX    H2C16525   1.736   4.566   0.529
    1HEX    H2D16526   2.010   4.670   0.602
    1HEX    H2E16527   1.873   4.632   0.709
    1HEX    H2G16528   1.490   4.566   0.180
    1HEX    H2H16529   1.584   4.700   0.242
    1HEX    H2I16530   1.418   4.694   0.372
    1HEX    H2J16531   1.343   4.627   0.515
    1HEX    H2K16532   1.219   4.460   0.374
    1HEX    H2M16533   1.302   4.521   0.232
    1STR    S0016534   1.852   4.717   5.703
    1STR    S0E16535   1.512   5.242   0.097
    1STR    S0M16536   1.353   4.323   6.129
    1STR    S0X16537   2.003   4.645   6.217
    1STR    S1416538   1.855   4.848   0.610
    1STR    S1B16539   1.150   4.677   0.297
    1HEX    C0116540   1.922   4.890   1.094
    1HEX    C0216541   1.869   4.767   1.169
    1HEX    C0316542   1.748   4.692   1.126
    1HEX    O0416543   1.758   4.595   1.051
    1HEX    O0516544   1.634   4.741   1.176
    1HEX    C0616545   1.515   4.672   1.145
    1HEX    C0716546   1.425   4.668   1.267
    1HEX    C0816547   1.379   4.801   1.315
    1HEX    O0916548   1.254   4.846   1.269
    1HEX    C0A16549   1.174   4.901   1.361
    1HEX    O0B16550   1.093   4.837   1.425
    1HEX    C0C16551   1.208   5.045   1.397
    1HEX    C0D16552   1.332   5.049   1.483
    1HEX    C0F16553   1.296   4.593   1.230
    1HEX    O0G16554   1.303   4.453   1.227
    1HEX    C0H16555   1.314   4.389   1.111
    1HEX    O0I16556   1.351   4.438   1.005
    1HEX    C0J16557   1.270   4.244   1.116
    1HEX    C0K16558   1.251   4.191   1.257
    1HEX    C0N16559   1.498   4.605   1.385
    1HEX    O0O16560   1.630   4.637   1.421
    1HEX    C0P16561   1.663   4.760   1.481
    1HEX    C0Q16562   1.654   4.783   1.633
    1HEX    C0R16563   1.717   4.666   1.710
    1HEX    O0S16564   1.840   4.709   1.772
    1HEX    C0T16565   1.937   4.627   1.810
    1HEX    O0U16566   1.943   4.508   1.794
    1HEX    C0V16567   2.050   4.689   1.885
    1HEX    C0W16568   2.059   4.841   1.883
    1HEX    C0Y16569   1.732   4.910   1.662
    1HEX    O0Z16570   1.708   4.965   1.789
    1HEX    C1016571   1.798   5.046   1.844
    1HEX    O1116572   1.876   5.117   1.783
    1HEX    C1216573   1.806   5.035   1.995
    1HEX    C1316574   1.801   4.893   2.055
    1HEX    C1516575   1.510   4.821   1.661
    1HEX    O1616576   1.465   4.812   1.791
    1HEX    C1716577   1.408   4.704   1.823
    1HEX    O1816578   1.409   4.604   1.752
    1HEX    C1916579   1.344   4.709   1.962
    1HEX    C1A16580   1.264   4.828   2.013
    1HEX    H1D16581   1.887   4.896   0.995
    1HEX    H1E16582   2.027   4.880   1.075
    1HEX    H1F16583   1.862   4.780   1.275
    1HEX    H1G16584   1.939   4.690   1.146
    1HEX    H1H16585   1.535   4.569   1.116
    1HEX    H1I16586   1.465   4.719   1.061
    1HEX    H1J16587   1.458   4.874   1.303
    1HEX    H1K16588   1.362   4.785   1.419
    1HEX    H1M16589   1.125   5.084   1.456
    1HEX    H1N16590   1.216   5.113   1.314
    1HEX    H1O16591   1.398   4.967   1.477
    1HEX    H1P16592   1.311   5.053   1.586
    1HEX    H1R16593   1.257   4.633   1.136
    1HEX    H1S16594   1.219   4.616   1.301
    1HEX    H1T16595   1.343   4.186   1.062
    1HEX    H1U16596   1.175   4.240   1.064
    1HEX    H1V16597   1.210   4.090   1.261
    1HEX    H1W16598   1.183   4.257   1.312
    1HEX    H1Y16599   1.503   4.506   1.348
    1HEX    H1Z16600   1.441   4.602   1.476
    1HEX    H2016601   1.613   4.840   1.429
    1HEX    H2116602   1.768   4.770   1.459
    1HEX    H2216603   1.733   4.585   1.642
    1HEX    H2316604   1.650   4.623   1.782
    1HEX    H2416605   2.138   4.642   1.847
    1HEX    H2516606   2.036   4.652   1.986
    1HEX    H2616607   2.088   4.877   1.981
    1HEX    H2716608   1.963   4.878   1.855
    1HEX    H2916609   1.709   4.976   1.584
    1HEX    H2A16610   1.835   4.896   1.645
    1HEX    H2B16611   1.731   5.095   2.043
    1HEX    H2C16612   1.900   5.081   2.023
    1HEX    H2D16613   1.808   4.904   2.161
    1HEX    H2E16614   1.882   4.827   2.034
    1HEX    H2G16615   1.441   4.771   1.596
    1HEX    H2H16616   1.498   4.926   1.642
    1HEX    H2I16617   1.422   4.720   2.029
    1HEX    H2J16618   1.304   4.613   1.990
    1HEX    H2K16619   1.328   4.901   2.061
    1HEX    H2M16620   1.199   4.792   2.092
    1STR    S0016621   1.901   5.053   1.167
    1STR    S0E16622   1.447   5.169   1.434
    1STR    S0M16623   1.412   4.189   1.334
    1STR    S0X16624   2.158   4.925   1.764
    1STR    S1416625   1.660   4.798   2.007
    1STR    S1B16626   1.161   4.922   1.902
    1HEX    C0116627   2.025   4.807   2.731
    1HEX    C0216628   1.895   4.880   2.695
    1HEX    C0316629   1.777   4.862   2.790
    1HEX    O0416630   1.773   4.775   2.874
    1HEX    O0516631   1.682   4.948   2.772
    1HEX    C0616632   1.550   4.902   2.791
    1HEX    C0716633   1.481   4.896   2.925
    1HEX    C0816634   1.492   5.030   2.993
    1HEX    O0916635   1.419   5.124   2.916
    1HEX    C0A16636   1.313   5.182   2.969
    1HEX    O0B16637   1.270   5.165   3.082
    1HEX    C0C16638   1.255   5.289   2.880
    1HEX    C0D16639   1.348   5.411   2.873
    1HEX    C0F16640   1.334   4.873   2.894
    1HEX    O0G16641   1.319   4.744   2.841
    1HEX    C0H16642   1.203   4.705   2.792
    1HEX    O0I16643   1.113   4.777   2.750
    1HEX    C0J16644   1.187   4.555   2.795
    1HEX    C0K16645   1.248   4.497   2.921
    1HEX    C0N16646   1.521   4.778   3.011
    1HEX    O0O16647   1.629   4.804   3.095
    1HEX    C0P16648   1.601   4.821   3.231
    1HEX    C0Q16649   1.545   4.706   3.317
    1HEX    C0R16650   1.579   4.571   3.262
    1HEX    O0S16651   1.708   4.526   3.293
    1HEX    C0T16652   1.742   4.400   3.273
    1HEX    O0U16653   1.669   4.302   3.290
    1HEX    C0V16654   1.887   4.387   3.230
    1HEX    C0W16655   1.960   4.520   3.228
    1HEX    C0Y16656   1.605   4.709   3.455
    1HEX    O0Z16657   1.602   4.580   3.513
    1HEX    C1016658   1.575   4.561   3.636
    1HEX    O1116659   1.518   4.641   3.708
    1HEX    C1216660   1.616   4.426   3.687
    1HEX    C1316661   1.732   4.356   3.612
    1HEX    C1516662   1.395   4.724   3.327
    1HEX    O1616663   1.345   4.676   3.449
    1HEX    C1716664   1.299   4.553   3.459
    1HEX    O1816665   1.296   4.471   3.369
    1HEX    C1916666   1.248   4.518   3.597
    1HEX    C1A16667   1.232   4.640   3.692
    1HEX    H1D16668   2.086   4.806   2.642
    1HEX    H1E16669   2.075   4.864   2.808
    1HEX    H1F16670   1.863   4.846   2.599
    1HEX    H1G16671   1.913   4.983   2.670
    1HEX    H1H16672   1.536   4.809   2.737
    1HEX    H1I16673   1.498   4.981   2.742
    1HEX    H1J16674   1.596   5.061   3.002
    1HEX    H1K16675   1.455   5.023   3.095
    1HEX    H1M16676   1.160   5.317   2.925
    1HEX    H1N16677   1.237   5.247   2.781
    1HEX    H1O16678   1.298   5.497   2.830
    1HEX    H1P16679   1.437   5.389   2.814
    1HEX    H1R16680   1.291   4.947   2.827
    1HEX    H1S16681   1.284   4.881   2.989
    1HEX    H1T16682   1.233   4.506   2.712
    1HEX    H1U16683   1.082   4.532   2.789
    1HEX    H1V16684   1.196   4.407   2.946
    1HEX    H1W16685   1.249   4.561   3.009
    1HEX    H1Y16686   1.553   4.696   2.948
    1HEX    H1Z16687   1.436   4.738   3.066
    1HEX    H2016688   1.539   4.908   3.241
    1HEX    H2116689   1.697   4.847   3.270
    1HEX    H2216690   1.576   4.590   3.158
    1HEX    H2316691   1.509   4.495   3.289
    1HEX    H2416692   1.888   4.350   3.129
    1HEX    H2516693   1.936   4.317   3.296
    1HEX    H2616694   2.066   4.511   3.205
    1HEX    H2716695   1.953   4.564   3.327
    1HEX    H2916696   1.555   4.786   3.514
    1HEX    H2A16697   1.711   4.733   3.444
    1HEX    H2B16698   1.528   4.363   3.683
    1HEX    H2C16699   1.642   4.441   3.791
    1HEX    H2D16700   1.688   4.318   3.522
    1HEX    H2E16701   1.766   4.273   3.673
    1HEX    H2G16702   1.349   4.674   3.242
    1HEX    H2H16703   1.366   4.829   3.323
    1HEX    H2I16704   1.320   4.448   3.637
    1HEX    H2J16705   1.155   4.463   3.585
    1HEX    H2K16706   1.306   4.717   3.672
    1HEX    H2M16707   1.247   4.608   3.795
    1STR    S0016708   2.007   4.633   2.784
    1STR    S0E16709   1.395   5.456   3.040
    1STR    S0M16710   1.419   4.473   2.893
    1STR    S0X16711   1.882   4.629   3.107
    1STR    S1416712   1.886   4.441   3.559
    1STR    S1B16713   1.076   4.730   3.679
    1HEX    C0116714   1.768   4.399   4.263
    1HEX    C0216715   1.645   4.405   4.355
    1HEX    C0316716   1.528   4.470   4.285
    1HEX    O0416717   1.468   4.416   4.192
    1HEX    O0516718   1.506   4.587   4.335
    1HEX    C0616719   1.399   4.667   4.296
    1HEX    C0716720   1.337   4.721   4.425
    1HEX    C0816721   1.380   4.861   4.450
    1HEX    O0916722   1.283   4.964   4.443
    1HEX    C0A16723   1.222   4.994   4.558
    1HEX    O0B16724   1.203   4.915   4.650
    1HEX    C0C16725   1.218   5.142   4.583
    1HEX    C0D16726   1.275   5.174   4.721
    1HEX    C0F16727   1.185   4.714   4.421
    1HEX    O0G16728   1.144   4.582   4.397
    1HEX    C0H16729   1.087   4.550   4.282
    1HEX    O0I16730   1.067   4.627   4.188
    1HEX    C0J16731   1.050   4.404   4.275
    1HEX    C0K16732   1.074   4.328   4.404
    1HEX    C0N16733   1.387   4.644   4.547
    1HEX    O0O16734   1.529   4.643   4.582
    1HEX    C0P16735   1.602   4.746   4.651
    1HEX    C0Q16736   1.590   4.757   4.805
    1HEX    C0R16737   1.644   4.633   4.874
    1HEX    O0S16738   1.772   4.626   4.826
    1HEX    C0T16739   1.838   4.520   4.833
    1HEX    O0U16740   1.848   4.446   4.929
    1HEX    C0V16741   1.888   4.495   4.695
    1HEX    C0W16742   1.947   4.621   4.636
    1HEX    C0Y16743   1.674   4.876   4.858
    1HEX    O0Z16744   1.776   4.840   4.947
    1HEX    C1016745   1.851   4.932   5.000
    1HEX    O1116746   1.834   5.054   4.987
    1HEX    C1216747   1.953   4.866   5.090
    1HEX    C1316748   2.016   4.949   5.205
    1HEX    C1516749   1.444   4.778   4.840
    1HEX    O1616750   1.387   4.681   4.919
    1HEX    C1716751   1.345   4.568   4.881
    1HEX    O1816752   1.354   4.523   4.771
    1HEX    C1916753   1.268   4.499   4.986
    1HEX    C1A16754   1.146   4.429   4.933
    1HEX    H1D16755   1.813   4.301   4.268
    1HEX    H1E16756   1.738   4.420   4.160
    1HEX    H1F16757   1.665   4.462   4.446
    1HEX    H1G16758   1.612   4.306   4.384
    1HEX    H1H16759   1.329   4.612   4.235
    1HEX    H1I16760   1.441   4.746   4.236
    1HEX    H1J16761   1.473   4.880   4.399
    1HEX    H1K16762   1.409   4.867   4.553
    1HEX    H1M16763   1.120   5.184   4.575
    1HEX    H1N16764   1.271   5.193   4.503
    1HEX    H1O16765   1.200   5.174   4.797
    1HEX    H1P16766   1.310   5.271   4.728
    1HEX    H1R16767   1.146   4.785   4.348
    1HEX    H1S16768   1.139   4.738   4.516
    1HEX    H1T16769   1.106   4.359   4.193
    1HEX    H1U16770   0.944   4.402   4.251
    1HEX    H1V16771   1.020   4.234   4.408
    1HEX    H1W16772   1.046   4.386   4.493
    1HEX    H1Y16773   1.360   4.540   4.532
    1HEX    H1Z16774   1.321   4.680   4.624
    1HEX    H2016775   1.592   4.844   4.608
    1HEX    H2116776   1.705   4.727   4.626
    1HEX    H2216777   1.588   4.548   4.844
    1HEX    H2316778   1.645   4.637   4.981
    1HEX    H2416779   1.803   4.480   4.631
    1HEX    H2516780   1.941   4.402   4.686
    1HEX    H2616781   1.921   4.716   4.682
    1HEX    H2716782   1.906   4.622   4.539
    1HEX    H2916783   1.618   4.957   4.903
    1HEX    H2A16784   1.729   4.917   4.777
    1HEX    H2B16785   2.029   4.824   5.025
    1HEX    H2C16786   1.903   4.779   5.133
    1HEX    H2D16787   2.076   5.027   5.164
    1HEX    H2E16788   2.076   4.883   5.267
    1HEX    H2G16789   1.381   4.807   4.759
    1HEX    H2H16790   1.436   4.861   4.907
    1HEX    H2I16791   1.246   4.574   5.059
    1HEX    H2J16792   1.331   4.437   5.041
    1HEX    H2K16793   1.122   4.339   4.987
    1HEX    H2M16794   1.147   4.412   4.825
    1STR    S0016795   1.894   4.521   4.306
    1STR    S0E16796   1.414   5.079   4.778
    1STR    S0M16797   1.249   4.290   4.414
    1STR    S0X16798   2.120   4.619   4.612
    1STR    S1416799   1.915   5.052   5.312
    1STR    S1B16800   1.029   4.548   4.973
    1HEX    C0116801   3.350   6.111   5.769
    1HEX    C0216802   3.352   6.114   5.919
    1HEX    C0316803   3.211   6.116   5.957
    1HEX    O0416804   3.136   6.022   5.939
    1HEX    O0516805   3.179   6.240   5.969
    1HEX    C0616806   3.045   6.274   5.967
    1HEX    C0716807   3.029   6.330   6.101
    1HEX    C0816808   3.083   0.132   6.098
    1HEX    O0916809   3.029   0.216   5.998
    1HEX    C0A16810   2.944   0.310   6.033
    1HEX    O0B16811   2.889   0.323   6.141
    1HEX    C0C16812   2.933   0.420   5.934
    1HEX    C0D16813   3.031   0.535   5.965
    1HEX    C0F16814   2.886   6.330   6.129
    1HEX    O0G16815   2.850   6.197   6.147
    1HEX    C0H16816   2.799   6.125   6.050
    1HEX    O0I16817   2.753   6.167   5.943
    1HEX    C0J16818   2.799   5.982   6.086
    1HEX    C0K16819   2.867   5.946   6.222
    1HEX    C0N16820   3.094   6.239   6.207
    1HEX    O0O16821   3.231   6.262   6.221
    1HEX    C0P16822   3.262   0.023   6.311
    1HEX    C0Q16823   3.235   6.330   0.114
    1HEX    C0R16824   3.253   6.178   0.136
    1HEX    O0S16825   3.391   6.145   0.150
    1HEX    C0T16826   3.423   6.031   0.205
    1HEX    O0U16827   3.343   5.950   0.241
    1HEX    C0V16828   3.569   6.005   0.232
    1HEX    C0W16829   3.613   6.091   0.349
    1HEX    C0Y16830   3.344   0.073   0.181
    1HEX    O0Z16831   3.344   0.089   0.315
    1HEX    C1016832   3.454   0.136   0.370
    1HEX    O1116833   3.568   0.099   0.351
    1HEX    C1216834   3.426   0.249   0.459
    1HEX    C1316835   3.301   0.234   0.545
    1HEX    C1516836   3.098   0.052   0.138
    1HEX    O1616837   3.016   0.026   0.247
    1HEX    C1716838   2.940   6.261   0.253
    1HEX    O1816839   2.943   6.168   0.174
    1HEX    C1916840   2.843   6.270   0.372
    1HEX    C1A16841   2.808   0.075   0.422
    1HEX    H1D16842   3.324   6.009   5.741
    1HEX    H1E16843   3.450   6.126   5.733
    1HEX    H1F16844   3.397   6.202   5.957
    1HEX    H1G16845   3.405   6.032   5.962
    1HEX    H1H16846   2.988   6.188   5.937
    1HEX    H1I16847   3.009   0.006   5.897
    1HEX    H1J16848   3.191   0.129   6.083
    1HEX    H1K16849   3.064   0.171   6.196
    1HEX    H1M16850   2.831   0.456   5.943
    1HEX    H1N16851   2.948   0.379   5.834
    1HEX    H1O16852   2.981   0.629   5.943
    1HEX    H1P16853   3.117   0.538   5.901
    1HEX    H1R16854   2.826   0.045   6.056
    1HEX    H1S16855   2.883   0.034   6.227
    1HEX    H1T16856   2.847   5.942   5.998
    1HEX    H1U16857   2.697   5.946   6.087
    1HEX    H1V16858   2.817   5.862   6.268
    1HEX    H1W16859   2.868   6.025   6.298
    1HEX    H1Y16860   3.087   6.139   6.171
    1HEX    H1Z16861   3.039   6.227   6.299
    1HEX    H2016862   3.235   0.126   6.289
    1HEX    H2116863   3.364   0.035   6.300
    1HEX    H2216864   3.210   6.115   0.058
    1HEX    H2316865   3.195   6.148   0.220
    1HEX    H2416866   3.626   6.017   0.141
    1HEX    H2516867   3.584   5.902   0.261
    1HEX    H2616868   3.614   6.033   0.440
    1HEX    H2716869   3.548   6.178   0.360
    1HEX    H2916870   3.357   0.172   0.135
    1HEX    H2A16871   3.434   0.020   0.169
    1HEX    H2B16872   3.419   0.324   0.386
    1HEX    H2C16873   3.515   0.268   0.517
    1HEX    H2D16874   3.286   0.317   0.612
    1HEX    H2E16875   3.325   0.145   0.596
    1HEX    H2G16876   3.037   0.065   0.050
    1HEX    H2H16877   3.128   0.150   0.164
    1HEX    H2I16878   2.891   6.217   0.453
    1HEX    H2J16879   2.754   6.211   0.355
    1HEX    H2K16880   2.877   0.150   0.384
    1HEX    H2M16881   2.814   0.079   0.529
    1STR    S0016882   3.220   6.215   5.688
    1STR    S0E16883   3.090   0.555   6.135
    1STR    S0M16884   3.035   5.894   6.197
    1STR    S0X16885   3.775   6.159   0.328
    1STR    S1416886   3.144   0.184   0.478
    1STR    S1B16887   2.639   0.133   0.397
    1HEX    C0116888   3.591   6.166   1.297
    1HEX    C0216889   3.469   6.245   1.341
    1HEX    C0316890   3.342   6.192   1.287
    1HEX    O0416891   3.309   6.076   1.308
    1HEX    O0516892   3.273   6.291   1.229
    1HEX    C0616893   3.138   6.280   1.192
    1HEX    C0716894   3.031   6.311   1.293
    1HEX    C0816895   3.034   0.108   1.353
    1HEX    O0916896   2.954   0.211   1.300
    1HEX    C0A16897   2.918   0.300   1.392
    1HEX    O0B16898   2.919   0.279   1.513
    1HEX    C0C16899   2.892   0.438   1.341
    1HEX    C0D16900   2.940   0.540   1.447
    1HEX    C0F16901   2.890   6.284   1.237
    1HEX    O0G16902   2.866   6.146   1.250
    1HEX    C0H16903   2.766   6.080   1.194
    1HEX    O0I16904   2.689   6.122   1.109
    1HEX    C0J16905   2.761   5.937   1.240
    1HEX    C0K16906   2.801   5.935   1.384
    1HEX    C0N16907   3.055   6.217   1.407
    1HEX    O0O16908   3.175   6.232   1.479
    1HEX    C0P16909   3.206   6.331   1.572
    1HEX    C0Q16910   3.179   6.275   1.710
    1HEX    C0R16911   3.231   6.130   1.715
    1HEX    O0S16912   3.353   6.113   1.648
    1HEX    C0T16913   3.448   6.033   1.692
    1HEX    O0U16914   3.449   5.968   1.796
    1HEX    C0V16915   3.565   6.032   1.597
    1HEX    C0W16916   3.665   6.147   1.624
    1HEX    C0Y16917   3.266   0.019   1.798
    1HEX    O0Z16918   3.307   6.282   1.909
    1HEX    C1016919   3.433   6.283   1.946
    1HEX    O1116920   3.517   0.023   1.912
    1HEX    C1216921   3.475   6.178   2.044
    1HEX    C1316922   3.359   6.123   2.125
    1HEX    C1516923   3.025   6.303   1.726
    1HEX    O1616924   2.931   6.262   1.825
    1HEX    C1716925   2.918   6.137   1.859
    1HEX    O1816926   3.011   6.063   1.866
    1HEX    C1916927   2.784   6.095   1.914
    1HEX    C1A16928   2.676   6.093   1.806
    1HEX    H1D16929   3.657   6.143   1.376
    1HEX    H1E16930   3.562   6.071   1.254
    1HEX    H1F16931   3.474   0.011   1.319
    1HEX    H1G16932   3.449   6.235   1.446
    1HEX    H1H16933   3.127   6.174   1.175
    1HEX    H1I16934   3.121   0.001   1.104
    1HEX    H1J16935   3.133   0.147   1.367
    1HEX    H1K16936   2.997   0.086   1.452
    1HEX    H1M16937   2.787   0.450   1.318
    1HEX    H1N16938   2.942   0.447   1.246
    1HEX    H1O16939   2.863   0.550   1.524
    1HEX    H1P16940   2.955   0.636   1.399
    1HEX    H1R16941   2.880   6.321   1.135
    1HEX    H1S16942   2.817   6.334   1.298
    1HEX    H1T16943   2.832   5.876   1.185
    1HEX    H1U16944   2.661   5.898   1.226
    1HEX    H1V16945   2.736   5.876   1.445
    1HEX    H1W16946   2.783   6.031   1.425
    1HEX    H1Y16947   3.071   6.119   1.365
    1HEX    H1Z16948   2.965   6.209   1.462
    1HEX    H2016949   3.167   0.092   1.562
    1HEX    H2116950   3.312   0.006   1.555
    1HEX    H2216951   3.164   6.068   1.663
    1HEX    H2316952   3.234   6.088   1.815
    1HEX    H2416953   3.517   6.034   1.499
    1HEX    H2516954   3.614   5.936   1.606
    1HEX    H2616955   3.713   6.124   1.718
    1HEX    H2716956   3.745   6.165   1.552
    1HEX    H2916957   3.208   0.105   1.818
    1HEX    H2A16958   3.351   0.060   1.748
    1HEX    H2B16959   3.551   6.222   2.107
    1HEX    H2C16960   3.523   6.100   1.986
    1HEX    H2D16961   3.394   6.061   2.206
    1HEX    H2E16962   3.298   6.064   2.057
    1HEX    H2G16963   2.979   6.253   1.646
    1HEX    H2H16964   3.004   0.069   1.711
    1HEX    H2I16965   2.759   6.155   1.999
    1HEX    H2J16966   2.799   5.994   1.951
    1HEX    H2K16967   2.586   6.047   1.845
    1HEX    H2M16968   2.709   6.037   1.719
    1STR    S0016969   3.692   6.263   1.187
    1STR    S0E16970   3.092   0.492   1.537
    1STR    S0M16971   2.977   5.889   1.396
    1STR    S0X16972   3.577   6.300   1.653
    1STR    S1416973   3.259   6.258   2.192
    1STR    S1B16974   2.636   6.262   1.761
    1HEX    C0116975   3.501   6.287   2.680
    1HEX    C0216976   3.430   6.184   2.763
    1HEX    C0316977   3.292   6.163   2.708
    1HEX    O0416978   3.268   6.077   2.624
    1HEX    O0516979   3.206   6.245   2.760
    1HEX    C0616980   3.076   6.194   2.771
    1HEX    C0716981   3.013   6.248   2.899
    1HEX    C0816982   2.980   0.053   2.876
    1HEX    O0916983   2.879   0.114   2.954
    1HEX    C0A16984   2.837   0.238   2.935
    1HEX    O0B16985   2.720   0.273   2.930
    1HEX    C0C16986   2.944   0.343   2.943
    1HEX    C0D16987   3.049   0.309   3.045
    1HEX    C0F16988   2.876   6.183   2.920
    1HEX    O0G16989   2.870   6.047   2.886
    1HEX    C0H16990   2.832   6.013   2.763
    1HEX    O0I16991   2.790   6.089   2.677
    1HEX    C0J16992   2.850   5.865   2.734
    1HEX    C0K16993   2.878   5.782   2.859
    1HEX    C0N16994   3.107   6.208   3.017
    1HEX    O0O16995   3.249   6.228   3.021
    1HEX    C0P16996   3.311   0.006   3.074
    1HEX    C0Q16997   3.294   0.042   3.221
    1HEX    C0R16998   3.335   6.257   3.299
    1HEX    O0S16999   3.452   6.284   3.374
    1HEX    C0T17000   3.484   6.228   3.489
    1HEX    O0U17001   3.418   6.152   3.556
    1HEX    C0V17002   3.621   6.273   3.537
    1HEX    C0W17003   3.624   0.085   3.540
    1HEX    C0Y17004   3.374   0.168   3.263
    1HEX    O0Z17005   3.337   0.195   3.397
    1HEX    C1017006   3.385   0.295   3.471
    1HEX    O1117007   3.452   0.389   3.434
    1HEX    C1217008   3.360   0.273   3.620
    1HEX    C1317009   3.278   0.147   3.647
    1HEX    C1517010   3.152   0.095   3.220
    1HEX    O1617011   3.055   0.090   3.314
    1HEX    C1717012   2.933   0.088   3.274
    1HEX    O1817013   2.897   0.025   3.180
    1HEX    C1917014   2.839   0.172   3.350
    1HEX    C1A17015   2.729   0.228   3.260
    1HEX    H1D17016   3.445   6.293   2.588
    1HEX    H1E17017   3.595   6.246   2.646
    1HEX    H1F17018   3.429   6.207   2.869
    1HEX    H1G17019   3.480   6.088   2.751
    1HEX    H1H17020   3.081   6.085   2.779
    1HEX    H1I17021   3.018   6.216   2.681
    1HEX    H1J17022   2.929   0.054   2.780
    1HEX    H1K17023   3.072   0.106   2.869
    1HEX    H1M17024   2.898   0.439   2.963
    1HEX    H1N17025   2.983   0.345   2.844
    1HEX    H1O17026   3.110   0.230   3.009
    1HEX    H1P17027   3.002   0.284   3.138
    1HEX    H1R17028   2.797   6.238   2.868
    1HEX    H1S17029   2.858   6.191   3.025
    1HEX    H1T17030   2.931   5.856   2.662
    1HEX    H1U17031   2.757   5.833   2.688
    1HEX    H1V17032   2.862   5.675   2.844
    1HEX    H1W17033   2.811   5.814   2.939
    1HEX    H1Y17034   3.104   6.103   3.003
    1HEX    H1Z17035   3.062   6.217   3.115
    1HEX    H2017036   3.271   0.088   3.020
    1HEX    H2117037   3.417   0.000   3.053
    1HEX    H2217038   3.357   6.174   3.232
    1HEX    H2317039   3.255   6.218   3.355
    1HEX    H2417040   3.702   6.231   3.480
    1HEX    H2517041   3.630   6.234   3.638
    1HEX    H2617042   3.652   0.121   3.639
    1HEX    H2717043   3.523   0.113   3.525
    1HEX    H2917044   3.361   0.250   3.195
    1HEX    H2A17045   3.479   0.160   3.257
    1HEX    H2B17046   3.322   0.361   3.670
    1HEX    H2C17047   3.457   0.261   3.666
    1HEX    H2D17048   3.275   0.122   3.751
    1HEX    H2E17049   3.331   0.063   3.603
    1HEX    H2G17050   3.105   0.078   3.126
    1HEX    H2H17051   3.160   0.202   3.230
    1HEX    H2I17052   2.896   0.248   3.401
    1HEX    H2J17053   2.804   0.107   3.425
    1HEX    H2K17054   2.776   0.275   3.175
    1HEX    H2M17055   2.675   0.302   3.317
    1STR    S0017056   3.536   0.109   2.763
    1STR    S0E17057   3.188   0.416   3.063
    1STR    S0M17058   3.049   5.804   2.909
    1STR    S0X17059   3.709   0.187   3.416
    1STR    S1417060   3.111   0.155   3.574
    1STR    S1B17061   2.592   0.130   3.196
    1HEX    C0117062   3.627   6.213   4.311
    1HEX    C0217063   3.542   6.316   4.388
    1HEX    C0317064   3.400   6.270   4.415
    1HEX    O0417065   3.367   6.151   4.420
    1HEX    O0517066   3.322   0.032   4.432
    1HEX    C0617067   3.184   0.026   4.402
    1HEX    C0717068   3.075   0.032   4.508
    1HEX    C0817069   3.025   0.168   4.556
    1HEX    O0917070   2.988   0.252   4.450
    1HEX    C0A17071   2.960   0.376   4.481
    1HEX    O0B17072   2.967   0.424   4.593
    1HEX    C0C17073   2.922   0.465   4.368
    1HEX    C0D17074   3.039   0.559   4.334
    1HEX    C0F17075   2.944   6.316   4.458
    1HEX    O0G17076   2.954   6.188   4.410
    1HEX    C0H17077   2.844   6.128   4.370
    1HEX    O0I17078   2.749   6.175   4.306
    1HEX    C0J17079   2.848   5.986   4.412
    1HEX    C0K17080   2.891   5.991   4.555
    1HEX    C0N17081   3.127   6.280   4.613
    1HEX    O0O17082   3.234   0.002   4.676
    1HEX    C0P17083   3.210   0.080   4.788
    1HEX    C0Q17084   3.122   0.018   4.894
    1HEX    C0R17085   3.168   6.215   4.915
    1HEX    O0S17086   3.307   6.194   4.893
    1HEX    C0T17087   3.356   6.070   4.906
    1HEX    O0U17088   3.322   5.989   4.992
    1HEX    C0V17089   3.449   6.025   4.795
    1HEX    C0W17090   3.460   6.123   4.683
    1HEX    C0Y17091   3.151   0.109   5.008
    1HEX    O0Z17092   3.086   0.069   5.122
    1HEX    C1017093   3.035   0.160   5.200
    1HEX    O1117094   3.054   0.281   5.197
    1HEX    C1217095   2.955   0.091   5.304
    1HEX    C1317096   3.047   0.024   5.401
    1HEX    C1517097   2.971   0.030   4.873
    1HEX    O1617098   2.900   6.319   4.984
    1HEX    C1717099   2.855   6.196   4.984
    1HEX    O1817100   2.873   6.115   4.894
    1HEX    C1917101   2.783   6.156   5.112
    1HEX    C1A17102   2.680   6.251   5.180
    1HEX    H1D17103   3.727   6.211   4.350
    1HEX    H1E17104   3.587   6.113   4.325
    1HEX    H1F17105   3.537   0.073   4.337
    1HEX    H1G17106   3.591   6.340   4.481
    1HEX    H1H17107   3.166   6.272   4.355
    1HEX    H1I17108   3.177   0.108   4.337
    1HEX    H1J17109   3.091   0.222   4.618
    1HEX    H1K17110   2.942   0.155   4.625
    1HEX    H1M17111   2.834   0.520   4.400
    1HEX    H1N17112   2.890   0.401   4.286
    1HEX    H1O17113   3.021   0.606   4.238
    1HEX    H1P17114   3.134   0.506   4.330
    1HEX    H1R17115   2.892   0.042   4.389
    1HEX    H1S17116   2.883   6.307   4.545
    1HEX    H1T17117   2.917   5.924   4.355
    1HEX    H1U17118   2.749   5.945   4.400
    1HEX    H1V17119   2.830   5.918   4.602
    1HEX    H1W17120   2.871   6.084   4.608
    1HEX    H1Y17121   3.172   6.195   4.563
    1HEX    H1Z17122   3.053   6.229   4.671
    1HEX    H2017123   3.194   0.185   4.773
    1HEX    H2117124   3.309   0.086   4.831
    1HEX    H2217125   3.114   6.152   4.847
    1HEX    H2317126   3.130   6.179   5.008
    1HEX    H2417127   3.403   5.936   4.755
    1HEX    H2517128   3.546   5.994   4.829
    1HEX    H2617129   3.365   6.167   4.662
    1HEX    H2717130   3.492   6.067   4.597
    1HEX    H2917131   3.113   0.205   4.980
    1HEX    H2A17132   3.257   0.124   5.020
    1HEX    H2B17133   2.897   0.014   5.257
    1HEX    H2C17134   2.891   0.165   5.352
    1HEX    H2D17135   3.002   0.034   5.497
    1HEX    H2E17136   3.136   0.082   5.401
    1HEX    H2G17137   2.929   6.324   4.784
    1HEX    H2H17138   2.944   0.134   4.863
    1HEX    H2I17139   2.862   6.127   5.181
    1HEX    H2J17140   2.731   6.064   5.087
    1HEX    H2K17141   2.697   6.246   5.287
    1HEX    H2M17142   2.580   6.212   5.164
    1STR    S0017143   3.630   6.261   4.136
    1STR    S0E17144   3.057   0.691   4.455
    1STR    S0M17145   3.061   5.963   4.582
    1STR    S0X17146   3.587   6.244   4.717
    1STR    S1417147   3.073   6.186   5.378
    1STR    S1B17148   2.676   0.089   5.140
    1HEX    C0117149   3.482   1.392   5.787
    1HEX    C0217150   3.474   1.400   5.939
    1HEX    C0317151   3.343   1.348   5.992
    1HEX    O0417152   3.298   1.241   5.953
    1HEX    O0517153   3.283   1.437   6.068
    1HEX    C0617154   3.148   1.460   6.040
    1HEX    C0717155   3.033   1.471   6.137
    1HEX    C0817156   3.037   1.601   6.197
    1HEX    O0917157   2.981   1.719   6.155
    1HEX    C0A17158   3.032   1.812   6.236
    1HEX    O0B17159   3.108   1.788   6.329
    1HEX    C0C17160   2.996   1.948   6.198
    1HEX    C0D17161   3.004   2.048   6.311
    1HEX    C0F17162   2.896   1.450   6.081
    1HEX    O0G17163   2.893   1.323   6.022
    1HEX    C0H17164   2.785   1.251   6.019
    1HEX    O0I17165   2.673   1.285   6.057
    1HEX    C0J17166   2.812   1.120   5.950
    1HEX    C0K17167   2.880   1.013   6.035
    1HEX    C0N17168   3.051   1.368   6.240
    1HEX    O0O17169   3.176   1.350   6.292
    1HEX    C0P17170   3.242   1.462   0.002
    1HEX    C0Q17171   3.259   1.463   0.146
    1HEX    C0R17172   3.301   1.325   0.180
    1HEX    O0S17173   3.388   1.269   0.082
    1HEX    C0T17174   3.514   1.253   0.106
    1HEX    O0U17175   3.566   1.268   0.215
    1HEX    C0V17176   3.585   1.200   6.323
    1HEX    C0W17177   3.658   1.308   6.246
    1HEX    C0Y17178   3.363   1.568   0.170
    1HEX    O0Z17179   3.442   1.517   0.270
    1HEX    C1017180   3.433   1.568   0.382
    1HEX    O1117181   3.422   1.690   0.402
    1HEX    C1217182   3.430   1.456   0.483
    1HEX    C1317183   3.491   1.487   0.617
    1HEX    C1517184   3.129   1.503   0.212
    1HEX    O1617185   3.121   1.464   0.345
    1HEX    C1717186   3.068   1.349   0.380
    1HEX    O1817187   3.133   1.269   0.445
    1HEX    C1917188   2.916   1.342   0.378
    1HEX    C1A17189   2.838   1.348   0.248
    1HEX    H1D17190   3.582   1.359   5.761
    1HEX    H1E17191   3.412   1.319   5.747
    1HEX    H1F17192   3.491   1.502   5.973
    1HEX    H1G17193   3.549   1.335   5.983
    1HEX    H1H17194   3.116   1.386   5.972
    1HEX    H1I17195   3.160   1.557   5.996
    1HEX    H1J17196   3.139   1.632   6.175
    1HEX    H1K17197   3.018   1.585   6.303
    1HEX    H1M17198   2.901   1.955   6.150
    1HEX    H1N17199   3.065   1.965   6.118
    1HEX    H1O17200   2.906   2.078   0.002
    1HEX    H1P17201   3.038   2.133   6.260
    1HEX    H1R17202   2.875   1.531   6.017
    1HEX    H1S17203   2.818   1.459   6.151
    1HEX    H1T17204   2.864   1.135   5.857
    1HEX    H1U17205   2.713   1.085   5.922
    1HEX    H1V17206   2.882   0.921   5.979
    1HEX    H1W17207   2.810   1.000   6.116
    1HEX    H1Y17208   3.047   1.283   6.178
    1HEX    H1Z17209   2.972   1.364   6.314
    1HEX    H2017210   3.230   1.563   6.318
    1HEX    H2117211   3.332   1.443   6.292
    1HEX    H2217212   3.210   1.272   0.172
    1HEX    H2317213   3.332   1.315   0.283
    1HEX    H2417214   3.511   1.154   6.259
    1HEX    H2517215   3.655   1.125   0.018
    1HEX    H2617216   3.696   1.275   6.150
    1HEX    H2717217   3.742   1.333   6.305
    1HEX    H2917218   3.326   1.669   0.184
    1HEX    H2A17219   3.424   1.573   0.084
    1HEX    H2B17220   3.483   1.370   0.440
    1HEX    H2C17221   3.326   1.425   0.491
    1HEX    H2D17222   3.598   1.502   0.607
    1HEX    H2E17223   3.468   1.405   0.685
    1HEX    H2G17224   3.044   1.471   0.153
    1HEX    H2H17225   3.129   1.611   0.215
    1HEX    H2I17226   2.884   1.427   0.427
    1HEX    H2J17227   2.882   1.260   0.440
    1HEX    H2K17228   2.757   1.276   0.249
    1HEX    H2M17229   2.900   1.325   0.163
    1STR    S0017230   3.458   1.554   5.710
    1STR    S0E17231   3.105   2.029   0.122
    1STR    S0M17232   3.049   1.033   6.106
    1STR    S0X17233   3.561   1.457   6.226
    1STR    S1417234   3.418   1.637   0.680
    1STR    S1B17235   2.756   1.505   0.227
    1HEX    C0117236   3.427   1.589   1.016
    1HEX    C0217237   3.433   1.435   1.007
    1HEX    C0317238   3.315   1.372   1.076
    1HEX    O0417239   3.264   1.268   1.034
    1HEX    O0517240   3.270   1.448   1.177
    1HEX    C0617241   3.132   1.444   1.200
    1HEX    C0717242   3.093   1.494   1.339
    1HEX    C0817243   3.078   1.642   1.353
    1HEX    O0917244   2.954   1.699   1.323
    1HEX    C0A17245   2.904   1.807   1.389
    1HEX    O0B17246   2.790   1.813   1.432
    1HEX    C0C17247   2.981   1.938   1.385
    1HEX    C0D17248   3.132   1.931   1.379
    1HEX    C0F17249   2.960   1.431   1.370
    1HEX    O0G17250   2.958   1.291   1.352
    1HEX    C0H17251   2.897   1.237   1.245
    1HEX    O0I17252   2.833   1.298   1.161
    1HEX    C0J17253   2.907   1.086   1.239
    1HEX    C0K17254   2.966   1.023   1.364
    1HEX    C0N17255   3.194   1.446   1.440
    1HEX    O0O17256   3.314   1.515   1.466
    1HEX    C0P17257   3.320   1.640   1.532
    1HEX    C0Q17258   3.298   1.655   1.683
    1HEX    C0R17259   3.339   1.530   1.758
    1HEX    O0S17260   3.459   1.554   1.827
    1HEX    C0T17261   3.528   1.455   1.875
    1HEX    O0U17262   3.516   1.340   1.845
    1HEX    C0V17263   3.643   1.495   1.961
    1HEX    C0W17264   3.657   1.644   1.991
    1HEX    C0Y17265   3.372   1.787   1.726
    1HEX    O0Z17266   3.441   1.806   1.848
    1HEX    C1017267   3.383   1.853   1.959
    1HEX    O1117268   3.440   1.923   2.042
    1HEX    C1217269   3.246   1.798   1.984
    1HEX    C1317270   3.212   1.777   2.129
    1HEX    C1517271   3.148   1.669   1.689
    1HEX    O1617272   3.073   1.672   1.808
    1HEX    C1717273   2.942   1.673   1.788
    1HEX    O1817274   2.895   1.667   1.676
    1HEX    C1917275   2.860   1.685   1.915
    1HEX    C1A17276   2.728   1.757   1.940
    1HEX    H1D17277   3.504   1.641   0.960
    1HEX    H1E17278   3.428   1.625   1.118
    1HEX    H1F17279   3.522   1.392   1.049
    1HEX    H1G17280   3.427   1.405   0.903
    1HEX    H1H17281   3.109   1.339   1.192
    1HEX    H1I17282   3.074   1.494   1.123
    1HEX    H1J17283   3.163   1.686   1.303
    1HEX    H1K17284   3.080   1.662   1.457
    1HEX    H1M17285   2.941   1.991   1.467
    1HEX    H1N17286   2.939   2.000   1.310
    1HEX    H1O17287   3.171   1.889   1.289
    1HEX    H1P17288   3.160   1.863   1.455
    1HEX    H1R17289   2.891   1.475   1.301
    1HEX    H1S17290   2.930   1.458   1.472
    1HEX    H1T17291   2.966   1.062   1.151
    1HEX    H1U17292   2.805   1.051   1.224
    1HEX    H1V17293   2.949   0.916   1.368
    1HEX    H1W17294   2.918   1.064   1.453
    1HEX    H1Y17295   3.229   1.357   1.393
    1HEX    H1Z17296   3.145   1.415   1.528
    1HEX    H2017297   3.277   1.716   1.474
    1HEX    H2117298   3.413   1.679   1.508
    1HEX    H2217299   3.339   1.443   1.693
    1HEX    H2317300   3.263   1.502   1.828
    1HEX    H2417301   3.728   1.446   1.923
    1HEX    H2517302   3.630   1.441   2.052
    1HEX    H2617303   3.699   1.656   2.089
    1HEX    H2717304   3.560   1.689   1.999
    1HEX    H2917305   3.298   1.861   1.731
    1HEX    H2A17306   3.441   1.823   1.651
    1HEX    H2B17307   3.254   1.703   1.936
    1HEX    H2C17308   3.165   1.848   1.935
    1HEX    H2D17309   3.193   1.872   2.178
    1HEX    H2E17310   3.299   1.732   2.176
    1HEX    H2G17311   3.108   1.582   1.639
    1HEX    H2H17312   3.119   1.758   1.635
    1HEX    H2I17313   2.922   1.758   1.963
    1HEX    H2J17314   2.862   1.588   1.964
    1HEX    H2K17315   2.729   1.863   1.926
    1HEX    H2M17316   2.706   1.742   2.045
    1STR    S0017317   3.264   1.638   0.966
    1STR    S0E17318   3.224   2.080   1.408
    1STR    S0M17319   3.143   1.053   1.362
    1STR    S0X17320   3.767   1.742   1.886
    1STR    S1417321   3.066   1.669   2.133
    1STR    S1B17322   2.586   1.699   1.854
    1HEX    C0117323   3.625   1.622   2.726
    1HEX    C0217324   3.478   1.626   2.689
    1HEX    C0317325   3.373   1.590   2.791
    1HEX    O0417326   3.395   1.513   2.881
    1HEX    O0517327   3.259   1.648   2.775
    1HEX    C0617328   3.148   1.603   2.850
    1HEX    C0717329   3.057   1.711   2.907
    1HEX    C0817330   3.107   1.854   2.872
    1HEX    O0917331   3.006   1.945   2.828
    1HEX    C0A17332   2.912   1.985   2.912
    1HEX    O0B17333   2.898   1.946   3.026
    1HEX    C0C17334   2.828   2.096   2.861
    1HEX    C0D17335   2.852   2.209   2.960
    1HEX    C0F17336   2.917   1.705   2.843
    1HEX    O0G17337   2.847   1.586   2.843
    1HEX    C0H17338   2.758   1.557   2.747
    1HEX    O0I17339   2.723   1.633   2.656
    1HEX    C0J17340   2.697   1.420   2.765
    1HEX    C0K17341   2.756   1.347   2.884
    1HEX    C0N17342   3.052   1.695   3.062
    1HEX    O0O17343   3.080   1.568   3.117
    1HEX    C0P17344   3.212   1.547   3.171
    1HEX    C0Q17345   3.204   1.474   3.307
    1HEX    C0R17346   3.204   1.321   3.295
    1HEX    O0S17347   3.321   1.277   3.230
    1HEX    C0T17348   3.383   1.166   3.269
    1HEX    O0U17349   3.351   1.093   3.363
    1HEX    C0V17350   3.498   1.129   3.177
    1HEX    C0W17351   3.606   1.236   3.177
    1HEX    C0Y17352   3.319   1.516   3.398
    1HEX    O0Z17353   3.405   1.414   3.444
    1HEX    C1017354   3.371   1.336   3.546
    1HEX    O1117355   3.263   1.331   3.605
    1HEX    C1217356   3.489   1.254   3.592
    1HEX    C1317357   3.603   1.346   3.637
    1HEX    C1517358   3.072   1.521   3.364
    1HEX    O1617359   3.054   1.511   3.501
    1HEX    C1717360   2.983   1.411   3.547
    1HEX    O1817361   2.972   1.300   3.497
    1HEX    C1917362   2.898   1.460   3.660
    1HEX    C1A17363   2.808   1.576   3.611
    1HEX    H1D17364   3.683   1.647   2.637
    1HEX    H1E17365   3.648   1.695   2.801
    1HEX    H1F17366   3.474   1.541   2.626
    1HEX    H1G17367   3.449   1.716   2.634
    1HEX    H1H17368   3.176   1.530   2.923
    1HEX    H1I17369   3.090   1.536   2.792
    1HEX    H1J17370   3.180   1.858   2.792
    1HEX    H1K17371   3.160   1.895   2.956
    1HEX    H1M17372   2.725   2.064   2.859
    1HEX    H1N17373   2.859   2.119   2.760
    1HEX    H1O17374   2.846   2.179   3.065
    1HEX    H1P17375   2.784   2.292   2.944
    1HEX    H1R17376   2.913   1.758   2.748
    1HEX    H1S17377   2.851   1.761   2.900
    1HEX    H1T17378   2.708   1.360   2.678
    1HEX    H1U17379   2.591   1.426   2.773
    1HEX    H1V17380   2.707   1.252   2.896
    1HEX    H1W17381   2.753   1.400   2.978
    1HEX    H1Y17382   2.954   1.718   3.100
    1HEX    H1Z17383   3.116   1.766   3.109
    1HEX    H2017384   3.263   1.641   3.181
    1HEX    H2117385   3.273   1.488   3.104
    1HEX    H2217386   3.119   1.282   3.246
    1HEX    H2317387   3.191   1.273   3.391
    1HEX    H2417388   3.459   1.112   3.076
    1HEX    H2517389   3.539   1.035   3.212
    1HEX    H2617390   3.698   1.200   3.133
    1HEX    H2717391   3.624   1.273   3.277
    1HEX    H2917392   3.278   1.558   3.486
    1HEX    H2A17393   3.379   1.597   3.356
    1HEX    H2B17394   3.520   1.195   3.507
    1HEX    H2C17395   3.453   1.188   3.670
    1HEX    H2D17396   3.619   1.425   3.563
    1HEX    H2E17397   3.695   1.290   3.647
    1HEX    H2G17398   2.995   1.467   3.310
    1HEX    H2H17399   3.056   1.625   3.341
    1HEX    H2I17400   2.969   1.492   3.736
    1HEX    H2J17401   2.841   1.377   3.698
    1HEX    H2K17402   2.865   1.658   3.569
    1HEX    H2M17403   2.747   1.615   3.692
    1STR    S0017404   3.680   1.456   2.779
    1STR    S0E17405   3.018   2.260   2.916
    1STR    S0M17406   2.932   1.333   2.868
    1STR    S0X17407   3.548   1.366   3.070
    1STR    S1417408   3.561   1.417   3.797
    1STR    S1B17409   2.697   1.519   3.480
    1HEX    C0117410   3.402   1.196   4.183
    1HEX    C0217411   3.329   1.187   4.318
    1HEX    C0317412   3.182   1.212   4.297
    1HEX    O0417413   3.115   1.138   4.226
    1HEX    O0517414   3.141   1.324   4.357
    1HEX    C0617415   3.011   1.372   4.331
    1HEX    C0717416   2.948   1.439   4.455
    1HEX    C0817417   2.954   1.588   4.447
    1HEX    O0917418   2.899   1.638   4.327
    1HEX    C0A17419   2.875   1.768   4.311
    1HEX    O0B17420   2.896   1.826   4.207
    1HEX    C0C17421   2.813   1.845   4.426
    1HEX    C0D17422   2.901   1.877   4.548
    1HEX    C0F17423   2.796   1.414   4.462
    1HEX    O0G17424   2.762   1.279   4.449
    1HEX    C0H17425   2.709   1.237   4.334
    1HEX    O0I17426   2.668   1.309   4.243
    1HEX    C0J17427   2.711   1.086   4.319
    1HEX    C0K17428   2.757   1.014   4.445
    1HEX    C0N17429   3.012   1.393   4.588
    1HEX    O0O17430   3.157   1.389   4.602
    1HEX    C0P17431   3.248   1.500   4.588
    1HEX    C0Q17432   3.261   1.586   4.713
    1HEX    C0R17433   3.324   1.496   4.819
    1HEX    O0S17434   3.450   1.523   4.870
    1HEX    C0T17435   3.479   1.482   4.993
    1HEX    O0U17436   3.446   1.376   5.044
    1HEX    C0V17437   3.563   1.581   5.068
    1HEX    C0W17438   3.635   1.686   4.980
    1HEX    C0Y17439   3.333   1.719   4.689
    1HEX    O0Z17440   3.403   1.762   4.802
    1HEX    C1017441   3.356   1.853   4.883
    1HEX    O1117442   3.357   1.971   4.865
    1HEX    C1217443   3.314   1.799   5.013
    1HEX    C1317444   3.366   1.865   5.138
    1HEX    C1517445   3.120   1.617   4.754
    1HEX    O1617446   3.099   1.722   4.843
    1HEX    C1717447   2.995   1.708   4.922
    1HEX    O1817448   2.933   1.606   4.934
    1HEX    C1917449   2.943   1.833   4.983
    1HEX    C1A17450   2.877   1.906   4.872
    1HEX    H1D17451   3.487   1.128   4.183
    1HEX    H1E17452   3.335   1.169   4.102
    1HEX    H1F17453   3.369   1.258   4.392
    1HEX    H1G17454   3.336   1.087   4.360
    1HEX    H1H17455   2.950   1.288   4.300
    1HEX    H1I17456   3.013   1.438   4.245
    1HEX    H1J17457   3.053   1.622   4.462
    1HEX    H1K17458   2.901   1.622   4.533
    1HEX    H1M17459   2.717   1.801   4.450
    1HEX    H1N17460   2.782   1.939   4.383
    1HEX    H1O17461   2.901   1.801   4.622
    1HEX    H1P17462   2.867   1.967   4.597
    1HEX    H1R17463   2.743   1.475   4.388
    1HEX    H1S17464   2.756   1.446   4.557
    1HEX    H1T17465   2.776   1.063   4.235
    1HEX    H1U17466   2.609   1.058   4.294
    1HEX    H1V17467   2.733   0.908   4.446
    1HEX    H1W17468   2.711   1.059   4.532
    1HEX    H1Y17469   2.978   1.293   4.599
    1HEX    H1Z17470   2.959   1.439   4.670
    1HEX    H2017471   3.231   1.561   4.503
    1HEX    H2117472   3.346   1.458   4.569
    1HEX    H2217473   3.298   1.391   4.812
    1HEX    H2317474   3.275   1.533   4.903
    1HEX    H2417475   3.628   1.527   5.135
    1HEX    H2517476   3.496   1.628   5.138
    1HEX    H2617477   3.699   1.741   5.047
    1HEX    H2717478   3.574   1.765   4.943
    1HEX    H2917479   3.266   1.799   4.663
    1HEX    H2A17480   3.402   1.708   4.607
    1HEX    H2B17481   3.328   1.693   5.010
    1HEX    H2C17482   3.209   1.816   5.010
    1HEX    H2D17483   3.366   1.973   5.128
    1HEX    H2E17484   3.465   1.831   5.168
    1HEX    H2G17485   3.085   1.523   4.796
    1HEX    H2H17486   3.059   1.644   4.671
    1HEX    H2I17487   3.023   1.894   5.025
    1HEX    H2J17488   2.873   1.805   5.061
    1HEX    H2K17489   2.950   1.916   4.794
    1HEX    H2M17490   2.855   2.005   4.907
    1STR    S0017491   3.463   1.362   4.146
    1STR    S0E17492   3.075   1.883   4.516
    1STR    S0M17493   2.936   1.028   4.456
    1STR    S0X17494   3.732   1.623   4.839
    1STR    S1417495   3.246   1.815   5.260
    1STR    S1B17496   2.725   1.827   4.811
    1HEX    C0117497   3.303   2.940   5.681
    1HEX    C0217498   3.323   2.895   5.823
    1HEX    C0317499   3.205   2.945   5.899
    1HEX    O0417500   3.096   2.910   5.858
    1HEX    O0517501   3.231   3.047   5.981
    1HEX    C0617502   3.132   3.147   5.988
    1HEX    C0717503   3.047   3.154   6.109
    1HEX    C0817504   3.050   3.295   6.168
    1HEX    O0917505   2.984   3.385   6.081
    1HEX    C0A17506   2.883   3.454   6.128
    1HEX    O0B17507   2.832   3.444   6.240
    1HEX    C0C17508   2.841   3.566   6.035
    1HEX    C0D17509   2.929   3.689   6.055
    1HEX    C0F17510   2.907   3.133   6.062
    1HEX    O0G17511   2.880   3.001   6.023
    1HEX    C0H17512   2.839   2.970   5.901
    1HEX    O0I17513   2.807   3.049   5.812
    1HEX    C0J17514   2.828   2.820   5.880
    1HEX    C0K17515   2.862   2.735   6.003
    1HEX    C0N17516   3.076   3.038   6.203
    1HEX    O0O17517   3.207   3.024   6.251
    1HEX    C0P17518   3.263   3.121   6.337
    1HEX    C0Q17519   3.236   3.112   0.144
    1HEX    C0R17520   3.259   2.968   0.184
    1HEX    O0S17521   3.399   2.940   0.177
    1HEX    C0T17522   3.458   2.839   0.242
    1HEX    O0U17523   3.408   2.734   0.273
    1HEX    C0V17524   3.603   2.854   0.279
    1HEX    C0W17525   3.645   2.998   0.294
    1HEX    C0Y17526   3.339   3.205   0.204
    1HEX    O0Z17527   3.368   3.203   0.338
    1HEX    C1017528   3.338   3.311   0.398
    1HEX    O1117529   3.417   3.396   0.437
    1HEX    C1217530   3.190   3.320   0.409
    1HEX    C1317531   3.134   3.356   0.543
    1HEX    C1517532   3.095   3.164   0.159
    1HEX    O1617533   3.017   3.110   0.261
    1HEX    C1717534   2.930   3.012   0.235
    1HEX    O1817535   2.948   2.919   0.158
    1HEX    C1917536   2.802   3.031   0.314
    1HEX    C1A17537   2.767   3.181   0.339
    1HEX    H1D17538   3.377   2.894   5.617
    1HEX    H1E17539   3.203   2.926   5.642
    1HEX    H1F17540   3.414   2.932   5.869
    1HEX    H1G17541   3.320   2.787   5.824
    1HEX    H1H17542   3.064   3.138   5.905
    1HEX    H1I17543   3.173   3.245   5.972
    1HEX    H1J17544   3.147   3.340   6.182
    1HEX    H1K17545   3.007   3.292   6.267
    1HEX    H1M17546   2.739   3.591   6.062
    1HEX    H1N17547   2.844   3.529   5.933
    1HEX    H1O17548   2.880   3.778   6.016
    1HEX    H1P17549   3.025   3.681   6.007
    1HEX    H1R17550   2.877   3.203   5.985
    1HEX    H1S17551   2.857   3.158   6.152
    1HEX    H1T17552   2.893   2.793   5.797
    1HEX    H1U17553   2.726   2.800   5.850
    1HEX    H1V17554   2.787   2.658   6.009
    1HEX    H1W17555   2.850   2.789   6.097
    1HEX    H1Y17556   3.067   2.955   6.136
    1HEX    H1Z17557   2.995   3.015   6.272
    1HEX    H2017558   3.251   3.223   6.305
    1HEX    H2117559   3.368   3.099   6.332
    1HEX    H2217560   3.194   2.916   0.116
    1HEX    H2317561   3.220   2.948   0.280
    1HEX    H2417562   3.664   2.799   0.208
    1HEX    H2517563   3.616   2.805   0.375
    1HEX    H2617564   3.735   3.014   0.351
    1HEX    H2717565   3.565   3.058   0.335
    1HEX    H2917566   3.337   3.305   0.160
    1HEX    H2A17567   3.429   3.161   0.176
    1HEX    H2B17568   3.161   3.221   0.391
    1HEX    H2C17569   3.151   3.371   0.326
    1HEX    H2D17570   3.125   3.462   0.562
    1HEX    H2E17571   3.210   3.328   0.610
    1HEX    H2G17572   3.044   3.143   0.070
    1HEX    H2H17573   3.091   3.272   0.157
    1HEX    H2I17574   2.817   2.981   0.409
    1HEX    H2J17575   2.723   2.979   0.263
    1HEX    H2K17576   2.852   3.249   0.329
    1HEX    H2M17577   2.727   3.194   0.439
    1STR    S0017578   3.335   3.111   5.705
    1STR    S0E17579   2.961   3.711   6.230
    1STR    S0M17580   3.028   2.661   5.995
    1STR    S0X17581   3.672   3.044   0.126
    1STR    S1417582   2.977   3.271   0.568
    1STR    S1B17583   2.646   3.243   0.223
    1HEX    C0117584   3.418   3.090   1.256
    1HEX    C0217585   3.381   2.945   1.263
    1HEX    C0317586   3.235   2.919   1.284
    1HEX    O0417587   3.194   2.806   1.304
    1HEX    O0517588   3.167   3.027   1.278
    1HEX    C0617589   3.056   3.043   1.198
    1HEX    C0717590   2.978   3.165   1.248
    1HEX    C0817591   3.058   3.293   1.234
    1HEX    O0917592   2.981   3.393   1.293
    1HEX    C0A17593   3.015   3.517   1.277
    1HEX    O0B17594   3.096   3.558   1.196
    1HEX    C0C17595   2.934   3.608   1.366
    1HEX    C0D17596   2.945   3.598   1.520
    1HEX    C0F17597   2.859   3.180   1.154
    1HEX    O0G17598   2.780   3.065   1.167
    1HEX    C0H17599   2.791   2.964   1.082
    1HEX    O0I17600   2.837   2.972   0.970
    1HEX    C0J17601   2.750   2.830   1.141
    1HEX    C0K17602   2.747   2.827   1.295
    1HEX    C0N17603   2.931   3.150   1.394
    1HEX    O0O17604   3.016   3.075   1.475
    1HEX    C0P17605   3.132   3.135   1.521
    1HEX    C0Q17606   3.189   3.050   1.629
    1HEX    C0R17607   3.198   2.900   1.596
    1HEX    O0S17608   3.325   2.858   1.549
    1HEX    C0T17609   3.404   2.792   1.630
    1HEX    O0U17610   3.375   2.751   1.741
    1HEX    C0V17611   3.546   2.780   1.576
    1HEX    C0W17612   3.626   2.902   1.620
    1HEX    C0Y17613   3.324   3.108   1.650
    1HEX    O0Z17614   3.376   3.034   1.756
    1HEX    C1017615   3.402   3.097   1.861
    1HEX    O1117616   3.411   3.218   1.860
    1HEX    C1217617   3.415   3.007   1.982
    1HEX    C1317618   3.468   3.068   2.112
    1HEX    C1517619   3.098   3.075   1.748
    1HEX    O1617620   3.128   3.001   1.865
    1HEX    C1717621   3.044   2.994   1.971
    1HEX    O1817622   3.067   2.928   2.072
    1HEX    C1917623   2.915   3.069   1.959
    1HEX    C1A17624   2.806   2.993   1.890
    1HEX    H1D17625   3.525   3.103   1.246
    1HEX    H1E17626   3.388   3.126   1.352
    1HEX    H1F17627   3.434   2.896   1.343
    1HEX    H1G17628   3.411   2.903   1.171
    1HEX    H1H17629   3.004   2.950   1.194
    1HEX    H1I17630   3.082   3.062   1.095
    1HEX    H1J17631   3.079   3.316   1.129
    1HEX    H1K17632   3.153   3.288   1.285
    1HEX    H1M17633   2.833   3.598   1.330
    1HEX    H1N17634   2.966   3.705   1.337
    1HEX    H1O17635   2.850   3.620   1.567
    1HEX    H1P17636   3.014   3.672   1.558
    1HEX    H1R17637   2.891   3.198   1.051
    1HEX    H1S17638   2.806   3.269   1.184
    1HEX    H1T17639   2.816   2.752   1.103
    1HEX    H1U17640   2.650   2.814   1.104
    1HEX    H1V17641   2.689   2.743   1.332
    1HEX    H1W17642   2.703   2.917   1.329
    1HEX    H1Y17643   2.839   3.096   1.395
    1HEX    H1Z17644   2.907   3.242   1.443
    1HEX    H2017645   3.105   3.226   1.565
    1HEX    H2117646   3.205   3.161   1.446
    1HEX    H2217647   3.127   2.874   1.521
    1HEX    H2317648   3.169   2.844   1.683
    1HEX    H2417649   3.547   2.765   1.469
    1HEX    H2517650   3.590   2.693   1.622
    1HEX    H2617651   3.581   2.942   1.709
    1HEX    H2717652   3.730   2.877   1.641
    1HEX    H2917653   3.314   3.216   1.662
    1HEX    H2A17654   3.387   3.094   1.564
    1HEX    H2B17655   3.474   2.920   1.954
    1HEX    H2C17656   3.316   2.969   2.000
    1HEX    H2D17657   3.574   3.049   2.121
    1HEX    H2E17658   3.418   3.018   2.194
    1HEX    H2G17659   2.999   3.048   1.713
    1HEX    H2H17660   3.099   3.181   1.774
    1HEX    H2I17661   2.931   3.158   1.900
    1HEX    H2J17662   2.886   3.101   2.058
    1HEX    H2K17663   2.769   2.909   1.948
    1HEX    H2M17664   2.834   2.959   1.792
    1STR    S0017665   3.329   3.175   1.123
    1STR    S0E17666   3.002   3.445   1.591
    1STR    S0M17667   2.903   2.825   1.381
    1STR    S0X17668   3.624   3.021   1.487
    1STR    S1417669   3.446   3.247   2.135
    1STR    S1B17670   2.685   3.121   1.872
    1HEX    C0117671   3.439   3.100   2.619
    1HEX    C0217672   3.373   3.018   2.725
    1HEX    C0317673   3.228   2.995   2.698
    1HEX    O0417674   3.188   2.883   2.667
    1HEX    O0517675   3.154   3.104   2.717
    1HEX    C0617676   3.018   3.086   2.748
    1HEX    C0717677   2.990   3.112   2.896
    1HEX    C0817678   2.969   3.261   2.917
    1HEX    O0917679   2.840   3.318   2.907
    1HEX    C0A17680   2.807   3.446   2.946
    1HEX    O0B17681   2.691   3.480   2.965
    1HEX    C0C17682   2.916   3.554   2.959
    1HEX    C0D17683   3.041   3.515   3.036
    1HEX    C0F17684   2.858   3.047   2.937
    1HEX    O0G17685   2.834   2.918   2.887
    1HEX    C0H17686   2.765   2.906   2.772
    1HEX    O0I17687   2.724   2.998   2.702
    1HEX    C0J17688   2.751   2.763   2.728
    1HEX    C0K17689   2.885   2.710   2.674
    1HEX    C0N17690   3.101   3.055   2.990
    1HEX    O0O17691   3.239   3.095   2.987
    1HEX    C0P17692   3.294   3.216   3.039
    1HEX    C0Q17693   3.298   3.245   3.188
    1HEX    C0R17694   3.336   3.124   3.262
    1HEX    O0S17695   3.466   3.123   3.313
    1HEX    C0T17696   3.505   3.022   3.390
    1HEX    O0U17697   3.472   2.906   3.381
    1HEX    C0V17698   3.613   3.059   3.484
    1HEX    C0W17699   3.626   3.210   3.510
    1HEX    C0Y17700   3.386   3.365   3.223
    1HEX    O0Z17701   3.363   3.406   3.357
    1HEX    C1017702   3.452   3.487   3.413
    1HEX    O1117703   3.561   3.518   3.366
    1HEX    C1217704   3.406   3.547   3.543
    1HEX    C1317705   3.412   3.450   3.662
    1HEX    C1517706   3.160   3.288   3.221
    1HEX    O1617707   3.101   3.281   3.346
    1HEX    C1717708   2.995   3.204   3.351
    1HEX    O1817709   2.973   3.105   3.282
    1HEX    C1917710   2.896   3.254   3.448
    1HEX    C1A17711   2.783   3.327   3.379
    1HEX    H1D17712   3.381   3.083   2.532
    1HEX    H1E17713   3.534   3.055   2.592
    1HEX    H1F17714   3.386   3.066   2.821
    1HEX    H1G17715   3.420   2.920   2.728
    1HEX    H1H17716   2.992   2.985   2.725
    1HEX    H1I17717   2.951   3.143   2.685
    1HEX    H1J17718   3.042   3.310   2.857
    1HEX    H1K17719   2.982   3.278   3.020
    1HEX    H1M17720   2.866   3.635   3.008
    1HEX    H1N17721   2.939   3.598   2.865
    1HEX    H1O17722   3.102   3.446   2.982
    1HEX    H1P17723   3.001   3.471   3.127
    1HEX    H1R17724   2.771   3.108   2.912
    1HEX    H1S17725   2.863   3.044   3.044
    1HEX    H1T17726   2.675   2.761   2.650
    1HEX    H1U17727   2.713   2.707   2.813
    1HEX    H1V17728   2.964   2.784   2.679
    1HEX    H1W17729   2.877   2.679   2.570
    1HEX    H1Y17730   3.107   2.955   2.955
    1HEX    H1Z17731   3.071   3.040   3.092
    1HEX    H2017732   3.244   3.299   2.992
    1HEX    H2117733   3.398   3.216   3.008
    1HEX    H2217734   3.306   3.033   3.211
    1HEX    H2317735   3.275   3.137   3.348
    1HEX    H2417736   3.696   3.009   3.438
    1HEX    H2517737   3.588   3.007   3.576
    1HEX    H2617738   3.635   3.225   3.616
    1HEX    H2717739   3.539   3.262   3.475
    1HEX    H2917740   3.368   3.447   3.153
    1HEX    H2A17741   3.489   3.347   3.204
    1HEX    H2B17742   3.309   3.593   3.529
    1HEX    H2C17743   3.476   3.627   3.561
    1HEX    H2D17744   3.436   3.504   3.752
    1HEX    H2E17745   3.486   3.373   3.650
    1HEX    H2G17746   3.099   3.237   3.154
    1HEX    H2H17747   3.159   3.390   3.200
    1HEX    H2I17748   2.942   3.313   3.523
    1HEX    H2J17749   2.870   3.169   3.508
    1HEX    H2K17750   2.819   3.424   3.356
    1HEX    H2M17751   2.700   3.342   3.446
    1STR    S0017752   3.464   3.276   2.659
    1STR    S0E17753   3.184   3.620   3.058
    1STR    S0M17754   2.935   2.570   2.772
    1STR    S0X17755   3.763   3.299   3.438
    1STR    S1417756   3.254   3.374   3.691
    1STR    S1B17757   2.745   3.283   3.208
    1HEX    C0117758   3.632   3.233   4.314
    1HEX    C0217759   3.526   3.346   4.308
    1HEX    C0317760   3.406   3.311   4.391
    1HEX    O0417761   3.418   3.238   4.486
    1HEX    O0517762   3.293   3.365   4.353
    1HEX    C0617763   3.171   3.300   4.383
    1HEX    C0717764   3.106   3.286   4.526
    1HEX    C0817765   3.092   3.421   4.598
    1HEX    O0917766   3.067   3.518   4.496
    1HEX    C0A17767   2.945   3.567   4.487
    1HEX    O0B17768   2.855   3.533   4.558
    1HEX    C0C17769   2.918   3.680   4.392
    1HEX    C0D17770   2.924   3.819   4.458
    1HEX    C0F17771   2.961   3.246   4.497
    1HEX    O0G17772   2.923   3.118   4.543
    1HEX    C0H17773   2.836   3.055   4.474
    1HEX    O0I17774   2.793   3.101   4.369
    1HEX    C0J17775   2.781   2.925   4.535
    1HEX    C0K17776   2.833   2.890   4.670
    1HEX    C0N17777   3.169   3.173   4.609
    1HEX    O0O17778   3.249   3.210   4.714
    1HEX    C0P17779   3.199   3.222   4.844
    1HEX    C0Q17780   3.124   3.108   4.913
    1HEX    C0R17781   3.189   2.974   4.879
    1HEX    O0S17782   3.321   2.958   4.922
    1HEX    C0T17783   3.370   2.834   4.920
    1HEX    O0U17784   3.328   2.739   4.985
    1HEX    C0V17785   3.489   2.817   4.829
    1HEX    C0W17786   3.573   2.943   4.822
    1HEX    C0Y17787   3.135   3.121   5.063
    1HEX    O0Z17788   3.091   3.007   5.129
    1HEX    C1017789   3.051   3.012   5.254
    1HEX    O1117790   3.007   3.111   5.312
    1HEX    C1217791   3.074   2.879   5.324
    1HEX    C1317792   3.170   2.783   5.249
    1HEX    C1517793   2.976   3.122   4.877
    1HEX    O1617794   2.886   3.081   4.976
    1HEX    C1717795   2.854   2.954   5.004
    1HEX    O1817796   2.897   2.852   4.953
    1HEX    C1917797   2.751   2.941   5.114
    1HEX    C1A17798   2.717   3.076   5.180
    1HEX    H1D17799   3.727   3.270   4.277
    1HEX    H1E17800   3.645   3.198   4.415
    1HEX    H1F17801   3.492   3.366   4.207
    1HEX    H1G17802   3.566   3.437   4.352
    1HEX    H1H17803   3.178   3.200   4.344
    1HEX    H1I17804   3.106   3.356   4.317
    1HEX    H1J17805   3.173   3.449   4.663
    1HEX    H1K17806   3.015   3.414   4.675
    1HEX    H1M17807   2.815   3.663   4.360
    1HEX    H1N17808   2.984   3.671   4.307
    1HEX    H1O17809   2.857   3.887   4.407
    1HEX    H1P17810   3.025   3.860   4.448
    1HEX    H1R17811   2.943   3.261   4.391
    1HEX    H1S17812   2.885   3.307   4.543
    1HEX    H1T17813   2.794   2.838   4.473
    1HEX    H1U17814   2.675   2.929   4.543
    1HEX    H1V17815   2.783   2.804   4.707
    1HEX    H1W17816   2.808   2.965   4.742
    1HEX    H1Y17817   3.234   3.113   4.547
    1HEX    H1Z17818   3.106   3.098   4.649
    1HEX    H2017819   3.137   3.310   4.841
    1HEX    H2117820   3.290   3.242   4.901
    1HEX    H2217821   3.198   2.959   4.773
    1HEX    H2317822   3.129   2.894   4.922
    1HEX    H2417823   3.451   2.788   4.731
    1HEX    H2517824   3.547   2.737   4.872
    1HEX    H2617825   3.676   2.926   4.794
    1HEX    H2717826   3.571   2.986   4.921
    1HEX    H2917827   3.093   3.212   5.103
    1HEX    H2A17828   3.241   3.117   5.077
    1HEX    H2B17829   2.976   2.833   5.334
    1HEX    H2C17830   3.111   2.903   5.423
    1HEX    H2D17831   3.150   2.785   5.142
    1HEX    H2E17832   3.152   2.681   5.280
    1HEX    H2G17833   2.961   3.074   4.783
    1HEX    H2H17834   2.948   3.225   4.857
    1HEX    H2I17835   2.797   2.874   5.186
    1HEX    H2J17836   2.665   2.891   5.072
    1HEX    H2K17837   2.806   3.137   5.190
    1HEX    H2M17838   2.679   3.059   5.280
    1STR    S0017839   3.596   3.078   4.232
    1STR    S0E17840   2.876   3.823   4.634
    1STR    S0M17841   3.005   2.847   4.652
    1STR    S0X17842   3.500   3.057   4.703
    1STR    S1417843   3.348   2.813   5.277
    1STR    S1B17844   2.596   3.177   5.089
    1HEX    C0117845   3.563   4.672   5.869
    1HEX    C0217846   3.472   4.766   5.950
    1HEX    C0317847   3.352   4.704   6.019
    1HEX    O0417848   3.349   4.587   6.056
    1HEX    O0517849   3.254   4.791   6.029
    1HEX    C0617850   3.122   4.742   6.020
    1HEX    C0717851   3.022   4.803   6.113
    1HEX    C0817852   3.055   4.951   6.122
    1HEX    O0917853   2.947   5.040   6.143
    1HEX    C0A17854   2.892   5.040   6.261
    1HEX    O0B17855   2.845   4.943   6.317
    1HEX    C0C17856   2.912   5.168   6.335
    1HEX    C0D17857   2.994   5.145   0.123
    1HEX    C0F17858   2.874   4.782   6.073
    1HEX    O0G17859   2.867   4.652   6.029
    1HEX    C0H17860   2.752   4.595   6.023
    1HEX    O0I17861   2.642   4.647   6.024
    1HEX    C0J17862   2.769   4.448   6.014
    1HEX    C0K17863   2.757   4.391   6.148
    1HEX    C0N17864   3.035   4.727   6.240
    1HEX    O0O17865   3.152   4.654   6.259
    1HEX    C0P17866   3.252   4.732   6.315
    1HEX    C0Q17867   3.265   4.704   0.121
    1HEX    C0R17868   3.282   4.556   0.138
    1HEX    O0S17869   3.397   4.509   0.077
    1HEX    C0T17870   3.397   4.406   6.336
    1HEX    O0U17871   3.301   4.338   6.300
    1HEX    C0V17872   3.541   4.372   6.303
    1HEX    C0W17873   3.607   4.468   6.202
    1HEX    C0Y17874   3.375   4.802   0.164
    1HEX    O0Z17875   3.434   4.792   0.291
    1HEX    C1017876   3.511   4.896   0.328
    1HEX    O1117877   3.509   5.008   0.276
    1HEX    C1217878   3.597   4.860   0.447
    1HEX    C1317879   3.675   4.970   0.523
    1HEX    C1517880   3.145   4.737   0.203
    1HEX    O1617881   3.079   4.636   0.274
    1HEX    C1717882   2.963   4.602   0.231
    1HEX    O1817883   2.932   4.608   0.116
    1HEX    C1917884   2.867   4.555   0.335
    1HEX    C1A17885   2.735   4.510   0.277
    1HEX    H1D17886   3.603   4.729   5.786
    1HEX    H1E17887   3.644   4.637   5.932
    1HEX    H1F17888   3.432   4.845   5.886
    1HEX    H1G17889   3.531   4.814   6.026
    1HEX    H1H17890   3.115   4.633   6.018
    1HEX    H1I17891   3.094   4.781   5.928
    1HEX    H1J17892   3.111   4.986   6.036
    1HEX    H1K17893   3.128   4.961   6.198
    1HEX    H1M17894   2.819   5.220   0.013
    1HEX    H1N17895   2.961   5.232   6.267
    1HEX    H1O17896   2.930   5.096   0.196
    1HEX    H1P17897   3.035   5.233   0.168
    1HEX    H1R17898   2.827   4.851   6.005
    1HEX    H1S17899   2.808   4.788   6.159
    1HEX    H1T17900   2.871   4.428   5.982
    1HEX    H1U17901   2.696   4.408   5.946
    1HEX    H1V17902   2.725   4.287   6.142
    1HEX    H1W17903   2.688   4.449   6.210
    1HEX    H1Y17904   2.962   4.649   6.238
    1HEX    H1Z17905   3.008   4.788   6.322
    1HEX    H2017906   3.246   4.837   6.293
    1HEX    H2117907   3.343   4.702   6.269
    1HEX    H2217908   3.193   4.507   0.099
    1HEX    H2317909   3.287   4.540   0.244
    1HEX    H2417910   3.542   4.271   6.264
    1HEX    H2517911   3.598   4.372   0.056
    1HEX    H2617912   3.563   4.450   6.104
    1HEX    H2717913   3.713   4.446   6.197
    1HEX    H2917914   3.331   4.899   0.169
    1HEX    H2A17915   3.444   4.820   0.085
    1HEX    H2B17916   3.665   4.784   0.411
    1HEX    H2C17917   3.533   4.804   0.514
    1HEX    H2D17918   3.766   4.997   0.473
    1HEX    H2E17919   3.699   4.931   0.621
    1HEX    H2G17920   3.072   4.805   0.164
    1HEX    H2H17921   3.194   4.791   0.279
    1HEX    H2I17922   2.854   4.637   0.404
    1HEX    H2J17923   2.909   4.474   0.389
    1HEX    H2K17924   2.688   4.431   0.335
    1HEX    H2M17925   2.737   4.485   0.172
    1STR    S0017926   3.485   4.525   5.797
    1STR    S0E17927   3.133   5.037   0.096
    1STR    S0M17928   2.920   4.399   6.224
    1STR    S0X17929   3.592   4.646   6.231
    1STR    S1417930   3.613   5.138   0.544
    1STR    S1B17931   2.637   4.650   0.294
    1HEX    C0117932   3.422   4.770   0.952
    1HEX    C0217933   3.442   4.621   0.985
    1HEX    C0317934   3.318   4.563   1.047
    1HEX    O0417935   3.258   4.469   0.996
    1HEX    O0517936   3.276   4.635   1.150
    1HEX    C0617937   3.148   4.605   1.196
    1HEX    C0717938   3.107   4.685   1.318
    1HEX    C0817939   3.110   4.836   1.300
    1HEX    O0917940   3.024   4.913   1.382
    1HEX    C0A17941   2.979   5.038   1.351
    1HEX    O0B17942   2.865   5.072   1.379
    1HEX    C0C17943   3.071   5.149   1.297
    1HEX    C0D17944   3.219   5.134   1.263
    1HEX    C0F17945   2.970   4.637   1.346
    1HEX    O0G17946   2.958   4.501   1.373
    1HEX    C0H17947   2.913   4.414   1.282
    1HEX    O0I17948   2.893   4.432   1.163
    1HEX    C0J17949   2.890   4.278   1.341
    1HEX    C0K17950   2.957   4.263   1.476
    1HEX    C0N17951   3.188   4.646   1.436
    1HEX    O0O17952   3.295   4.729   1.460
    1HEX    C0P17953   3.286   4.838   1.547
    1HEX    C0Q17954   3.283   4.799   1.695
    1HEX    C0R17955   3.324   4.655   1.717
    1HEX    O0S17956   3.461   4.632   1.709
    1HEX    C0T17957   3.501   4.512   1.738
    1HEX    O0U17958   3.422   4.424   1.758
    1HEX    C0V17959   3.649   4.493   1.758
    1HEX    C0W17960   3.712   4.565   1.882
    1HEX    C0Y17961   3.375   4.907   1.763
    1HEX    O0Z17962   3.413   4.912   1.899
    1HEX    C1017963   3.356   5.000   1.981
    1HEX    O1117964   3.415   5.084   2.047
    1HEX    C1217965   3.206   4.983   1.986
    1HEX    C1317966   3.133   4.996   2.120
    1HEX    C1517967   3.134   4.807   1.721
    1HEX    O1617968   3.075   4.732   1.824
    1HEX    C1717969   2.987   4.640   1.792
    1HEX    O1817970   2.974   4.587   1.684
    1HEX    C1917971   2.892   4.612   1.906
    1HEX    C1A17972   2.819   4.740   1.948
    1HEX    H1D17973   3.499   4.811   0.888
    1HEX    H1E17974   3.415   4.831   1.040
    1HEX    H1F17975   3.526   4.606   1.052
    1HEX    H1G17976   3.461   4.564   0.894
    1HEX    H1H17977   3.145   4.499   1.218
    1HEX    H1I17978   3.077   4.618   1.116
    1HEX    H1J17979   3.087   4.863   1.203
    1HEX    H1K17980   3.213   4.862   1.306
    1HEX    H1M17981   3.062   5.232   1.364
    1HEX    H1N17982   3.023   5.196   1.213
    1HEX    H1O17983   3.235   5.168   1.162
    1HEX    H1P17984   3.265   5.038   1.268
    1HEX    H1R17985   2.910   4.660   1.260
    1HEX    H1S17986   2.938   4.691   1.435
    1HEX    H1T17987   2.930   4.212   1.265
    1HEX    H1U17988   2.784   4.257   1.350
    1HEX    H1V17989   2.928   4.175   1.532
    1HEX    H1W17990   2.937   4.348   1.543
    1HEX    H1Y17991   3.235   4.553   1.411
    1HEX    H1Z17992   3.127   4.628   1.523
    1HEX    H2017993   3.206   4.904   1.520
    1HEX    H2117994   3.369   4.901   1.525
    1HEX    H2217995   3.278   4.589   1.648
    1HEX    H2317996   3.280   4.617   1.808
    1HEX    H2417997   3.695   4.518   1.664
    1HEX    H2517998   3.665   4.386   1.769
    1HEX    H2617999   3.808   4.520   1.902
    1HEX    H2718000   3.666   4.539   1.976
    1HEX    H2918001   3.341   5.004   1.737
    1HEX    H2A18002   3.471   4.908   1.716
    1HEX    H2B18003   3.197   4.886   1.943
    1HEX    H2C18004   3.153   5.031   1.913
    1HEX    H2D18005   3.066   5.081   2.124
    1HEX    H2E18006   3.206   5.006   2.200
    1HEX    H2G18007   3.072   4.796   1.632
    1HEX    H2H18008   3.124   4.908   1.750
    1HEX    H2I18009   2.939   4.564   1.990
    1HEX    H2J18010   2.825   4.533   1.878
    1HEX    H2K18011   2.876   4.830   1.924
    1HEX    H2M18012   2.800   4.737   2.055
    1STR    S0018013   3.263   4.785   0.872
    1STR    S0E18014   3.314   5.240   1.371
    1STR    S0M18015   3.127   4.260   1.422
    1STR    S0X18016   3.724   4.750   1.883
    1STR    S1418017   3.041   4.841   2.131
    1STR    S1B18018   2.662   4.761   1.870
    1HEX    C0118019   3.502   4.934   2.633
    1HEX    C0218020   3.350   4.900   2.660
    1HEX    C0318021   3.303   4.823   2.784
    1HEX    O0418022   3.379   4.770   2.865
    1HEX    O0518023   3.170   4.830   2.805
    1HEX    C0618024   3.119   4.749   2.911
    1HEX    C0718025   2.978   4.776   2.965
    1HEX    C0818026   2.975   4.901   3.050
    1HEX    O0918027   2.949   5.019   2.978
    1HEX    C0A18028   2.891   5.113   3.048
    1HEX    O0B18029   2.863   5.104   3.166
    1HEX    C0C18030   2.881   5.246   2.979
    1HEX    C0D18031   2.912   5.353   3.085
    1HEX    C0F18032   2.870   4.802   2.858
    1HEX    O0G18033   2.819   4.699   2.777
    1HEX    C0H18034   2.753   4.729   2.661
    1HEX    O0I18035   2.746   4.840   2.610
    1HEX    C0J18036   2.662   4.618   2.607
    1HEX    C0K18037   2.627   4.512   2.710
    1HEX    C0N18038   2.940   4.667   3.069
    1HEX    O0O18039   3.043   4.575   3.100
    1HEX    C0P18040   3.149   4.627   3.181
    1HEX    C0Q18041   3.151   4.563   3.318
    1HEX    C0R18042   3.173   4.413   3.304
    1HEX    O0S18043   3.296   4.402   3.234
    1HEX    C0T18044   3.378   4.300   3.246
    1HEX    O0U18045   3.375   4.215   3.334
    1HEX    C0V18046   3.483   4.300   3.135
    1HEX    C0W18047   3.572   4.424   3.136
    1HEX    C0Y18048   3.258   4.626   3.408
    1HEX    O0Z18049   3.373   4.550   3.426
    1HEX    C1018050   3.388   4.467   3.527
    1HEX    O1118051   3.300   4.418   3.598
    1HEX    C1218052   3.535   4.450   3.556
    1HEX    C1318053   3.594   4.585   3.600
    1HEX    C1518054   3.016   4.601   3.372
    1HEX    O1618055   3.007   4.590   3.510
    1HEX    C1718056   2.951   4.487   3.563
    1HEX    O1818057   2.941   4.374   3.517
    1HEX    C1918058   2.879   4.534   3.686
    1HEX    C1A18059   2.741   4.589   3.645
    1HEX    H1D18060   3.519   4.922   2.527
    1HEX    H1E18061   3.519   5.039   2.656
    1HEX    H1F18062   3.316   4.839   2.578
    1HEX    H1G18063   3.291   4.992   2.654
    1HEX    H1H18064   3.188   4.763   2.992
    1HEX    H1I18065   3.132   4.644   2.884
    1HEX    H1J18066   3.061   4.912   3.111
    1HEX    H1K18067   2.895   4.890   3.121
    1HEX    H1M18068   2.781   5.255   2.938
    1HEX    H1N18069   2.954   5.247   2.898
    1HEX    H1O18070   2.828   5.362   3.154
    1HEX    H1P18071   2.933   5.449   3.041
    1HEX    H1R18072   2.901   4.887   2.797
    1HEX    H1S18073   2.784   4.837   2.913
    1HEX    H1T18074   2.694   4.573   2.515
    1HEX    H1U18075   2.570   4.670   2.583
    1HEX    H1V18076   2.526   4.473   2.702
    1HEX    H1W18077   2.640   4.561   2.804
    1HEX    H1Y18078   2.852   4.619   3.031
    1HEX    H1Z18079   2.900   4.701   3.163
    1HEX    H2018080   3.148   4.735   3.193
    1HEX    H2118081   3.239   4.605   3.127
    1HEX    H2218082   3.094   4.367   3.245
    1HEX    H2318083   3.176   4.362   3.400
    1HEX    H2418084   3.434   4.289   3.039
    1HEX    H2518085   3.544   4.212   3.151
    1HEX    H2618086   3.606   4.442   3.237
    1HEX    H2718087   3.660   4.409   3.075
    1HEX    H2918088   3.222   4.640   3.508
    1HEX    H2A18089   3.287   4.725   3.374
    1HEX    H2B18090   3.581   4.416   3.464
    1HEX    H2C18091   3.545   4.374   3.632
    1HEX    H2D18092   3.579   4.663   3.524
    1HEX    H2E18093   3.699   4.579   3.618
    1HEX    H2G18094   2.940   4.541   3.323
    1HEX    H2H18095   2.996   4.706   3.353
    1HEX    H2I18096   2.941   4.610   3.731
    1HEX    H2J18097   2.870   4.449   3.753
    1HEX    H2K18098   2.679   4.606   3.732
    1HEX    H2M18099   2.691   4.517   3.581
    1STR    S0018100   3.637   4.838   2.715
    1STR    S0E18101   3.054   5.298   3.183
    1STR    S0M18102   2.742   4.380   2.724
    1STR    S0X18103   3.484   4.566   3.068
    1STR    S1418104   3.525   4.637   3.757
    1STR    S1B18105   2.757   4.747   3.558
    1HEX    C0118106   3.442   4.526   4.159
    1HEX    C0218107   3.421   4.420   4.267
    1HEX    C0318108   3.277   4.386   4.291
    1HEX    O0418109   3.225   4.284   4.247
    1HEX    O0518110   3.222   4.475   4.370
    1HEX    C0618111   3.083   4.477   4.375
    1HEX    C0718112   3.031   4.574   4.478
    1HEX    C0818113   3.079   4.709   4.449
    1HEX    O0918114   3.037   4.790   4.553
    1HEX    C0A18115   3.073   4.912   4.552
    1HEX    O0B18116   2.994   5.001   4.571
    1HEX    C0C18117   3.221   4.938   4.532
    1HEX    C0D18118   3.309   5.006   4.631
    1HEX    C0F18119   2.879   4.581   4.469
    1HEX    O0G18120   2.818   4.458   4.445
    1HEX    C0H18121   2.781   4.431   4.320
    1HEX    O0I18122   2.795   4.505   4.223
    1HEX    C0J18123   2.719   4.294   4.304
    1HEX    C0K18124   2.752   4.198   4.418
    1HEX    C0N18125   3.072   4.542   4.620
    1HEX    O0O18126   3.214   4.532   4.648
    1HEX    C0P18127   3.313   4.635   4.668
    1HEX    C0Q18128   3.317   4.707   4.806
    1HEX    C0R18129   3.337   4.606   4.912
    1HEX    O0S18130   3.469   4.567   4.941
    1HEX    C0T18131   3.497   4.555   5.071
    1HEX    O0U18132   3.425   4.505   5.155
    1HEX    C0V18133   3.630   4.613   5.108
    1HEX    C0W18134   3.646   4.764   5.075
    1HEX    C0Y18135   3.419   4.811   4.828
    1HEX    O0Z18136   3.385   4.892   4.938
    1HEX    C1018137   3.421   5.018   4.947
    1HEX    O1118138   3.477   5.085   4.861
    1HEX    C1218139   3.388   5.079   5.081
    1HEX    C1318140   3.348   4.975   5.188
    1HEX    C1518141   3.185   4.771   4.812
    1HEX    O1618142   3.128   4.866   4.898
    1HEX    C1718143   2.995   4.860   4.902
    1HEX    O1818144   2.933   4.764   4.866
    1HEX    C1918145   2.918   4.974   4.956
    1HEX    C1A18146   2.830   5.030   4.845
    1HEX    H1D18147   3.547   4.531   4.131
    1HEX    H1E18148   3.386   4.501   4.068
    1HEX    H1F18149   3.450   4.459   4.363
    1HEX    H1G18150   3.475   4.329   4.246
    1HEX    H1H18151   3.049   4.379   4.400
    1HEX    H1I18152   3.043   4.499   4.277
    1HEX    H1J18153   3.029   4.743   4.362
    1HEX    H1K18154   3.185   4.703   4.430
    1HEX    H1M18155   3.197   5.017   4.471
    1HEX    H1N18156   3.280   4.870   4.472
    1HEX    H1O18157   3.414   4.998   4.605
    1HEX    H1P18158   3.287   4.986   4.733
    1HEX    H1R18159   2.843   4.659   4.401
    1HEX    H1S18160   2.847   4.614   4.563
    1HEX    H1T18161   2.753   4.255   4.209
    1HEX    H1U18162   2.612   4.311   4.300
    1HEX    H1V18163   2.693   4.108   4.416
    1HEX    H1W18164   2.730   4.247   4.513
    1HEX    H1Y18165   3.023   4.448   4.635
    1HEX    H1Z18166   3.008   4.595   4.689
    1HEX    H2018167   3.319   4.704   4.586
    1HEX    H2118168   3.402   4.577   4.661
    1HEX    H2218169   3.273   4.526   4.884
    1HEX    H2318170   3.299   4.653   4.998
    1HEX    H2418171   3.694   4.549   5.052
    1HEX    H2518172   3.648   4.594   5.213
    1HEX    H2618173   3.693   4.819   5.156
    1HEX    H2718174   3.550   4.808   5.060
    1HEX    H2918175   3.448   4.859   4.739
    1HEX    H2A18176   3.508   4.764   4.852
    1HEX    H2B18177   3.307   5.150   5.061
    1HEX    H2C18178   3.476   5.134   5.112
    1HEX    H2D18179   3.366   5.009   5.289
    1HEX    H2E18180   3.395   4.878   5.176
    1HEX    H2G18181   3.124   4.689   4.799
    1HEX    H2H18182   3.176   4.822   4.726
    1HEX    H2I18183   2.989   5.048   4.992
    1HEX    H2J18184   2.861   4.938   5.039
    1HEX    H2K18185   2.897   5.051   4.764
    1HEX    H2M18186   2.792   5.123   4.882
    1STR    S0018187   3.394   4.688   4.221
    1STR    S0E18188   3.286   5.173   4.637
    1STR    S0M18189   2.927   4.152   4.407
    1STR    S0X18190   3.745   4.782   4.926
    1STR    S1418191   3.173   4.956   5.165
    1STR    S1B18192   2.684   4.944   4.777
    1HEX    C0118193   5.133   6.151   5.905
    1HEX    C0218194   5.075   6.226   6.024
    1HEX    C0318195   4.930   6.194   6.040
    1HEX    O0418196   4.896   6.077   6.033
    1HEX    O0518197   4.853   6.304   6.042
    1HEX    C0618198   4.723   6.300   5.994
    1HEX    C0718199   4.618   0.053   6.049
    1HEX    C0818200   4.664   0.193   6.079
    1HEX    O0918201   4.562   0.285   6.050
    1HEX    C0A18202   4.485   0.327   6.147
    1HEX    O0B18203   4.467   0.279   6.258
    1HEX    C0C18204   4.436   0.464   6.113
    1HEX    C0D18205   4.558   0.552   6.130
    1HEX    C0F18206   4.506   0.057   5.947
    1HEX    O0G18207   4.482   6.264   5.910
    1HEX    C0H18208   4.422   6.236   5.799
    1HEX    O0I18209   4.345   6.309   5.738
    1HEX    C0J18210   4.460   6.098   5.752
    1HEX    C0K18211   4.456   5.998   5.866
    1HEX    C0N18212   4.566   6.331   6.174
    1HEX    O0O18213   4.659   6.254   6.240
    1HEX    C0P18214   4.756   6.312   6.316
    1HEX    C0Q18215   4.727   6.273   0.114
    1HEX    C0R18216   4.737   6.123   0.132
    1HEX    O0S18217   4.870   6.088   0.104
    1HEX    C0T18218   4.920   5.973   0.143
    1HEX    O0U18219   4.872   5.893   0.222
    1HEX    C0V18220   5.056   5.951   0.083
    1HEX    C0W18221   5.080   6.035   6.299
    1HEX    C0Y18222   4.833   0.006   0.195
    1HEX    O0Z18223   4.768   0.016   0.314
    1HEX    C1018224   4.777   0.121   0.380
    1HEX    O1118225   4.879   0.184   0.391
    1HEX    C1218226   4.657   0.143   0.463
    1HEX    C1318227   4.666   0.048   0.578
    1HEX    C1518228   4.584   6.323   0.142
    1HEX    O1618229   4.533   6.291   0.268
    1HEX    C1718230   4.446   6.196   0.277
    1HEX    O1818231   4.441   6.099   0.204
    1HEX    C1918232   4.341   6.226   0.380
    1HEX    C1A18233   4.304   0.037   0.397
    1HEX    H1D18234   5.239   6.129   5.918
    1HEX    H1E18235   5.079   6.059   5.883
    1HEX    H1F18236   5.087   6.333   6.020
    1HEX    H1G18237   5.127   6.194   6.110
    1HEX    H1H18238   4.692   6.204   6.021
    1HEX    H1I18239   4.714   6.296   5.888
    1HEX    H1J18240   4.752   0.215   6.024
    1HEX    H1K18241   4.689   0.208   6.182
    1HEX    H1M18242   4.357   0.491   6.182
    1HEX    H1N18243   4.400   0.467   6.011
    1HEX    H1O18244   4.530   0.653   6.107
    1HEX    H1P18245   4.640   0.524   6.063
    1HEX    H1R18246   4.532   0.118   5.862
    1HEX    H1S18247   4.419   0.104   5.986
    1HEX    H1T18248   4.561   6.101   5.709
    1HEX    H1U18249   4.389   6.070   5.676
    1HEX    H1V18250   4.427   5.901   5.828
    1HEX    H1W18251   4.380   6.028   5.937
    1HEX    H1Y18252   4.498   6.255   6.144
    1HEX    H1Z18253   4.518   0.060   6.240
    1HEX    H2018254   4.748   0.078   6.314
    1HEX    H2118255   4.853   6.276   6.285
    1HEX    H2218256   4.668   6.068   0.069
    1HEX    H2318257   4.706   6.094   0.229
    1HEX    H2418258   5.074   5.845   0.070
    1HEX    H2518259   5.131   5.977   0.153
    1HEX    H2618260   4.992   6.086   6.261
    1HEX    H2718261   5.119   5.974   6.218
    1HEX    H2918262   4.859   0.104   0.154
    1HEX    H2A18263   4.926   6.292   0.209
    1HEX    H2B18264   4.568   0.132   0.402
    1HEX    H2C18265   4.661   0.244   0.500
    1HEX    H2D18266   4.589   0.073   0.649
    1HEX    H2E18267   4.758   0.075   0.625
    1HEX    H2G18268   4.513   6.282   0.071
    1HEX    H2H18269   4.580   0.091   0.130
    1HEX    H2I18270   4.375   6.183   0.474
    1HEX    H2J18271   4.254   6.170   0.348
    1HEX    H2K18272   4.363   0.079   0.477
    1HEX    H2M18273   4.199   0.041   0.425
    1STR    S0018274   5.112   6.260   5.769
    1STR    S0E18275   4.608   0.531   6.303
    1STR    S0M18276   4.614   5.986   5.955
    1STR    S0X18277   5.209   6.149   6.338
    1STR    S1418278   4.653   6.208   0.546
    1STR    S1B18279   4.320   0.152   0.256
    1HEX    C0118280   4.881   5.898   1.196
    1HEX    C0218281   4.794   5.982   1.287
    1HEX    C0318282   4.672   6.032   1.212
    1HEX    O0418283   4.598   5.960   1.147
    1HEX    O0518284   4.672   6.164   1.212
    1HEX    C0618285   4.574   6.242   1.152
    1HEX    C0718286   4.497   6.298   1.269
    1HEX    C0818287   4.532   0.101   1.292
    1HEX    O0918288   4.470   0.194   1.209
    1HEX    C0A18289   4.533   0.309   1.203
    1HEX    O0B18290   4.644   0.324   1.154
    1HEX    C0C18291   4.459   0.421   1.275
    1HEX    C0D18292   4.505   0.450   1.420
    1HEX    C0F18293   4.348   6.285   1.237
    1HEX    O0G18294   4.304   6.156   1.272
    1HEX    C0H18295   4.302   6.060   1.180
    1HEX    O0I18296   4.299   6.079   1.059
    1HEX    C0J18297   4.297   5.918   1.237
    1HEX    C0K18298   4.337   5.902   1.384
    1HEX    C0N18299   4.533   6.227   1.402
    1HEX    O0O18300   4.668   6.223   1.439
    1HEX    C0P18301   4.727   6.331   1.504
    1HEX    C0Q18302   4.787   6.269   1.628
    1HEX    C0R18303   4.855   6.137   1.596
    1HEX    O0S18304   4.975   6.146   1.521
    1HEX    C0T18305   5.089   6.105   1.576
    1HEX    O0U18306   5.110   6.082   1.693
    1HEX    C0V18307   5.199   6.087   1.479
    1HEX    C0W18308   5.225   6.215   1.406
    1HEX    C0Y18309   4.891   0.021   1.683
    1HEX    O0Z18310   4.953   6.282   1.779
    1HEX    C1018311   4.952   6.319   1.901
    1HEX    O1118312   4.951   0.097   1.932
    1HEX    C1218313   4.974   6.197   1.991
    1HEX    C1318314   5.014   6.211   2.138
    1HEX    C1518315   4.675   6.251   1.732
    1HEX    O1618316   4.705   6.161   1.837
    1HEX    C1718317   4.628   6.147   1.947
    1HEX    O1818318   4.667   6.093   2.049
    1HEX    C1918319   4.488   6.202   1.945
    1HEX    C1A18320   4.383   6.133   1.864
    1HEX    H1D18321   4.819   5.841   1.127
    1HEX    H1E18322   4.943   5.831   1.255
    1HEX    H1F18323   4.848   6.067   1.329
    1HEX    H1G18324   4.764   5.923   1.371
    1HEX    H1H18325   4.517   6.182   1.082
    1HEX    H1I18326   4.620   6.322   1.093
    1HEX    H1J18327   4.640   0.115   1.298
    1HEX    H1K18328   4.490   0.118   1.390
    1HEX    H1M18329   4.355   0.393   1.273
    1HEX    H1N18330   4.468   0.509   1.213
    1HEX    H1O18331   4.423   0.482   1.481
    1HEX    H1P18332   4.574   0.529   1.433
    1HEX    H1R18333   4.329   6.311   1.133
    1HEX    H1S18334   4.294   0.017   1.293
    1HEX    H1T18335   4.361   5.856   1.173
    1HEX    H1U18336   4.195   5.887   1.225
    1HEX    H1V18337   4.270   5.835   1.437
    1HEX    H1W18338   4.326   5.997   1.435
    1HEX    H1Y18339   4.503   6.126   1.384
    1HEX    H1Z18340   4.485   6.256   1.491
    1HEX    H2018341   4.656   0.066   1.534
    1HEX    H2118342   4.803   0.033   1.439
    1HEX    H2218343   4.790   6.070   1.546
    1HEX    H2318344   4.872   6.089   1.692
    1HEX    H2418345   5.165   6.011   1.409
    1HEX    H2518346   5.288   6.050   1.529
    1HEX    H2618347   5.135   6.273   1.384
    1HEX    H2718348   5.270   6.178   1.317
    1HEX    H2918349   4.848   0.108   1.728
    1HEX    H2A18350   4.960   0.054   1.606
    1HEX    H2B18351   5.044   6.132   1.939
    1HEX    H2C18352   4.884   6.141   1.987
    1HEX    H2D18353   5.120   6.197   2.152
    1HEX    H2E18354   4.963   6.134   2.194
    1HEX    H2G18355   4.583   6.221   1.684
    1HEX    H2H18356   4.662   0.007   1.780
    1HEX    H2I18357   4.501   6.302   1.910
    1HEX    H2J18358   4.453   6.200   2.048
    1HEX    H2K18359   4.336   6.051   1.917
    1HEX    H2M18360   4.429   6.094   1.775
    1STR    S0018361   4.990   6.005   1.105
    1STR    S0E18362   4.580   0.315   1.506
    1STR    S0M18363   4.505   5.839   1.403
    1STR    S0X18364   5.357   6.320   1.465
    1STR    S1418365   4.976   0.029   2.212
    1STR    S1B18366   4.267   6.261   1.814
    1HEX    C0118367   4.999   6.321   2.685
    1HEX    C0218368   4.936   6.257   2.564
    1HEX    C0318369   4.790   6.230   2.580
    1HEX    O0418370   4.735   6.150   2.505
    1HEX    O0518371   4.735   6.292   2.685
    1HEX    C0618372   4.612   6.239   2.728
    1HEX    C0718373   4.586   6.255   2.877
    1HEX    C0818374   4.562   0.057   2.917
    1HEX    O0918375   4.429   0.098   2.942
    1HEX    C0A18376   4.382   0.218   2.989
    1HEX    O0B18377   4.263   0.233   3.014
    1HEX    C0C18378   4.476   0.335   3.004
    1HEX    C0D18379   4.614   0.297   3.056
    1HEX    C0F18380   4.456   6.187   2.906
    1HEX    O0G18381   4.460   6.057   2.863
    1HEX    C0H18382   4.390   6.018   2.756
    1HEX    O0I18383   4.320   6.087   2.684
    1HEX    C0J18384   4.403   5.871   2.733
    1HEX    C0K18385   4.443   5.806   2.864
    1HEX    C0N18386   4.697   6.188   2.958
    1HEX    O0O18387   4.825   6.246   2.959
    1HEX    C0P18388   4.851   0.018   3.042
    1HEX    C0Q18389   4.844   0.003   3.196
    1HEX    C0R18390   4.906   6.209   3.233
    1HEX    O0S18391   4.996   6.215   3.341
    1HEX    C0T18392   5.064   6.106   3.377
    1HEX    O0U18393   5.041   5.995   3.337
    1HEX    C0V18394   5.178   6.129   3.473
    1HEX    C0W18395   5.194   6.275   3.516
    1HEX    C0Y18396   4.918   0.129   3.241
    1HEX    O0Z18397   4.911   0.154   3.379
    1HEX    C1018398   4.986   0.245   3.442
    1HEX    O1118399   5.084   0.306   3.404
    1HEX    C1218400   4.934   0.277   3.578
    1HEX    C1318401   4.939   0.152   3.659
    1HEX    C1518402   4.702   0.015   3.252
    1HEX    O1618403   4.674   6.286   3.369
    1HEX    C1718404   4.601   6.178   3.361
    1HEX    O1818405   4.594   6.103   3.264
    1HEX    C1918406   4.520   6.151   3.484
    1HEX    C1A18407   4.467   6.278   3.554
    1HEX    H1D18408   5.102   6.296   2.673
    1HEX    H1E18409   4.966   6.284   2.781
    1HEX    H1F18410   4.982   6.160   2.549
    1HEX    H1G18411   4.952   6.317   2.475
    1HEX    H1H18412   4.616   6.132   2.708
    1HEX    H1I18413   4.529   6.278   2.673
    1HEX    H1J18414   4.611   0.119   2.848
    1HEX    H1K18415   4.606   0.064   3.012
    1HEX    H1M18416   4.424   0.402   3.071
    1HEX    H1N18417   4.478   0.386   2.911
    1HEX    H1O18418   4.670   0.259   2.973
    1HEX    H1P18419   4.604   0.227   3.136
    1HEX    H1R18420   4.380   6.236   2.850
    1HEX    H1S18421   4.433   6.198   3.011
    1HEX    H1T18422   4.476   5.853   2.655
    1HEX    H1U18423   4.306   5.836   2.701
    1HEX    H1V18424   4.387   5.716   2.874
    1HEX    H1W18425   4.409   5.858   2.951
    1HEX    H1Y18426   4.714   6.093   2.909
    1HEX    H1Z18427   4.665   6.163   3.057
    1HEX    H2018428   4.803   0.108   3.009
    1HEX    H2118429   4.953   0.042   3.016
    1HEX    H2218430   4.957   6.171   3.147
    1HEX    H2318431   4.832   6.133   3.252
    1HEX    H2418432   5.268   6.077   3.444
    1HEX    H2518433   5.148   6.069   3.559
    1HEX    H2618434   5.223   6.279   3.620
    1HEX    H2718435   5.099   6.326   3.504
    1HEX    H2918436   4.867   0.208   3.193
    1HEX    H2A18437   5.011   0.151   3.196
    1HEX    H2B18438   4.837   0.323   3.570
    1HEX    H2C18439   5.003   0.351   3.619
    1HEX    H2D18440   4.935   0.179   3.763
    1HEX    H2E18441   5.034   0.108   3.641
    1HEX    H2G18442   4.627   6.326   3.182
    1HEX    H2H18443   4.679   0.116   3.282
    1HEX    H2I18444   4.570   6.088   3.552
    1HEX    H2J18445   4.453   6.073   3.459
    1HEX    H2K18446   4.551   6.338   3.577
    1HEX    H2M18447   4.415   6.252   3.645
    1STR    S0018448   4.994   0.159   2.676
    1STR    S0E18449   4.747   0.405   3.086
    1STR    S0M18450   4.623   5.806   2.873
    1STR    S0X18451   5.293   0.050   3.424
    1STR    S1418452   4.804   0.044   3.607
    1STR    S1B18453   4.369   0.057   3.460
    1HEX    C0118454   5.172   0.041   4.265
    1HEX    C0218455   5.034   0.091   4.228
    1HEX    C0318456   4.930   0.073   4.336
    1HEX    O0418457   4.937   6.326   4.420
    1HEX    O0518458   4.837   0.162   4.332
    1HEX    C0618459   4.706   0.120   4.361
    1HEX    C0718460   4.646   0.131   4.496
    1HEX    C0818461   4.685   0.267   4.548
    1HEX    O0918462   4.602   0.364   4.486
    1HEX    C0A18463   4.507   0.417   4.561
    1HEX    O0B18464   4.486   0.391   4.678
    1HEX    C0C18465   4.437   0.533   4.500
    1HEX    C0D18466   4.481   0.653   4.583
    1HEX    C0F18467   4.495   0.124   4.479
    1HEX    O0G18468   4.455   0.001   4.426
    1HEX    C0H18469   4.335   6.330   4.369
    1HEX    O0I18470   4.262   0.082   4.334
    1HEX    C0J18471   4.291   6.187   4.354
    1HEX    C0K18472   4.348   6.105   4.465
    1HEX    C0N18473   4.682   0.014   4.583
    1HEX    O0O18474   4.803   0.025   4.649
    1HEX    C0P18475   4.794   0.066   4.782
    1HEX    C0Q18476   4.734   6.312   4.886
    1HEX    C0R18477   4.721   6.171   4.842
    1HEX    O0S18478   4.840   6.117   4.794
    1HEX    C0T18479   4.883   5.998   4.829
    1HEX    O0U18480   4.829   5.923   4.910
    1HEX    C0V18481   5.015   5.962   4.763
    1HEX    C0W18482   5.114   6.077   4.770
    1HEX    C0Y18483   4.826   6.307   5.006
    1HEX    O0Z18484   4.872   6.180   5.050
    1HEX    C1018485   4.821   6.120   5.156
    1HEX    O1118486   4.730   6.162   5.226
    1HEX    C1218487   4.894   5.994   5.195
    1HEX    C1318488   5.035   5.978   5.133
    1HEX    C1518489   4.592   0.024   4.921
    1HEX    O1618490   4.553   6.336   5.054
    1HEX    C1718491   4.476   6.233   5.079
    1HEX    O1818492   4.424   6.162   4.995
    1HEX    C1918493   4.458   6.207   5.226
    1HEX    C1A18494   4.315   6.225   5.271
    1HEX    H1D18495   5.242   0.082   4.193
    1HEX    H1E18496   5.201   0.082   4.361
    1HEX    H1F18497   5.007   0.040   4.141
    1HEX    H1G18498   5.031   0.193   4.194
    1HEX    H1H18499   4.684   0.024   4.317
    1HEX    H1I18500   4.650   0.196   4.311
    1HEX    H1J18501   4.789   0.291   4.531
    1HEX    H1K18502   4.675   0.271   4.654
    1HEX    H1M18503   4.330   0.516   4.508
    1HEX    H1N18504   4.464   0.541   4.395
    1HEX    H1O18505   4.482   0.635   4.691
    1HEX    H1P18506   4.413   0.736   4.566
    1HEX    H1R18507   4.456   0.203   4.416
    1HEX    H1S18508   4.452   0.137   4.578
    1HEX    H1T18509   4.319   6.143   4.261
    1HEX    H1U18510   4.183   6.186   4.357
    1HEX    H1V18511   4.272   6.032   4.489
    1HEX    H1W18512   4.377   6.161   4.554
    1HEX    H1Y18513   4.694   6.270   4.516
    1HEX    H1Z18514   4.599   6.330   4.649
    1HEX    H2018515   4.746   0.160   4.792
    1HEX    H2118516   4.893   0.094   4.807
    1HEX    H2218517   4.649   6.174   4.766
    1HEX    H2318518   4.683   6.117   4.926
    1HEX    H2418519   4.998   5.937   4.659
    1HEX    H2518520   5.056   5.875   4.813
    1HEX    H2618521   5.216   6.048   4.747
    1HEX    H2718522   5.112   6.123   4.869
    1HEX    H2918523   4.770   0.018   5.081
    1HEX    H2A18524   4.920   0.019   4.990
    1HEX    H2B18525   4.830   5.913   5.161
    1HEX    H2C18526   4.898   5.991   5.304
    1HEX    H2D18527   5.027   5.994   5.027
    1HEX    H2E18528   5.069   5.877   5.147
    1HEX    H2G18529   4.519   6.326   4.849
    1HEX    H2H18530   4.582   0.131   4.913
    1HEX    H2I18531   4.524   6.274   5.281
    1HEX    H2J18532   4.492   6.105   5.243
    1HEX    H2K18533   4.301   6.183   5.370
    1HEX    H2M18534   4.249   6.173   5.201
    1STR    S0018535   5.202   6.201   4.258
    1STR    S0E18536   4.645   0.695   4.523
    1STR    S0M18537   4.504   6.039   4.430
    1STR    S0X18538   5.060   6.194   4.647
    1STR    S1418539   5.170   6.091   5.178
    1STR    S1B18540   4.280   0.062   5.277
    1HEX    C0118541   5.123   1.549   5.904
    1HEX    C0218542   5.001   1.638   5.927
    1HEX    C0318543   4.887   1.574   6.007
    1HEX    O0418544   4.900   1.466   6.064
    1HEX    O0518545   4.776   1.650   6.010
    1HEX    C0618546   4.648   1.586   6.021
    1HEX    C0718547   4.558   1.621   6.133
    1HEX    C0818548   4.561   1.766   6.142
    1HEX    O0918549   4.460   1.832   6.210
    1HEX    C0A18550   4.458   1.840   6.339
    1HEX    O0B18551   4.463   1.751   0.081
    1HEX    C0C18552   4.450   1.981   0.040
    1HEX    C0D18553   4.580   2.031   0.093
    1HEX    C0F18554   4.408   1.596   6.119
    1HEX    O0G18555   4.385   1.468   6.073
    1HEX    C0H18556   4.264   1.424   6.052
    1HEX    O0I18557   4.163   1.492   6.050
    1HEX    C0J18558   4.266   1.281   6.006
    1HEX    C0K18559   4.369   1.193   6.077
    1HEX    C0N18560   4.608   1.541   6.249
    1HEX    O0O18561   4.746   1.520   6.271
    1HEX    C0P18562   4.823   1.628   6.319
    1HEX    C0Q18563   4.858   1.618   0.127
    1HEX    C0R18564   4.939   1.493   0.137
    1HEX    O0S18565   5.058   1.526   0.068
    1HEX    C0T18566   5.158   1.567   0.141
    1HEX    O0U18567   5.177   1.522   0.254
    1HEX    C0V18568   5.232   1.688   0.082
    1HEX    C0W18569   5.189   1.736   6.283
    1HEX    C0Y18570   4.932   1.738   0.189
    1HEX    O0Z18571   4.976   1.700   0.315
    1HEX    C1018572   5.059   1.778   0.378
    1HEX    O1118573   5.104   1.886   0.338
    1HEX    C1218574   5.096   1.714   0.508
    1HEX    C1318575   5.157   1.810   0.611
    1HEX    C1518576   4.732   1.611   0.204
    1HEX    O1618577   4.718   1.493   0.279
    1HEX    C1718578   4.623   1.414   0.238
    1HEX    O1818579   4.581   1.405   0.127
    1HEX    C1918580   4.575   1.316   0.335
    1HEX    C1A18581   4.424   1.294   0.338
    1HEX    H1D18582   5.215   1.606   5.907
    1HEX    H1E18583   5.118   1.477   5.982
    1HEX    H1F18584   4.964   1.667   5.830
    1HEX    H1G18585   5.031   1.725   5.984
    1HEX    H1H18586   4.662   1.479   6.030
    1HEX    H1I18587   4.596   1.610   5.931
    1HEX    H1J18588   4.559   1.805   6.041
    1HEX    H1K18589   4.652   1.794   6.184
    1HEX    H1M18590   4.378   1.988   0.119
    1HEX    H1N18591   4.417   2.040   6.296
    1HEX    H1O18592   4.568   2.036   0.198
    1HEX    H1P18593   4.589   2.130   0.063
    1HEX    H1R18594   4.359   1.670   6.056
    1HEX    H1S18595   4.359   1.603   6.216
    1HEX    H1T18596   4.281   1.280   5.899
    1HEX    H1U18597   4.167   1.240   6.021
    1HEX    H1V18598   4.364   1.092   6.038
    1HEX    H1W18599   4.346   1.186   6.183
    1HEX    H1Y18600   4.569   1.441   6.237
    1HEX    H1Z18601   4.552   1.575   6.331
    1HEX    H2018602   4.776   1.718   6.303
    1HEX    H2118603   4.909   1.632   6.256
    1HEX    H2218604   4.881   1.416   0.090
    1HEX    H2318605   4.953   1.461   0.241
    1HEX    H2418606   5.339   1.679   0.084
    1HEX    H2518607   5.215   1.770   0.150
    1HEX    H2618608   5.195   1.844   6.281
    1HEX    H2718609   5.087   1.712   6.259
    1HEX    H2918610   4.876   1.824   0.219
    1HEX    H2A18611   5.009   1.776   0.126
    1HEX    H2B18612   5.159   1.630   0.485
    1HEX    H2C18613   5.008   1.661   0.544
    1HEX    H2D18614   5.247   1.855   0.570
    1HEX    H2E18615   5.182   1.754   0.701
    1HEX    H2G18616   4.645   1.636   0.148
    1HEX    H2H18617   4.726   1.698   0.264
    1HEX    H2I18618   4.629   1.312   0.429
    1HEX    H2J18619   4.626   1.252   0.279
    1HEX    H2K18620   4.384   1.394   0.344
    1HEX    H2M18621   4.397   1.238   0.427
    1STR    S0018622   5.133   1.441   5.763
    1STR    S0E18623   4.729   1.936   0.065
    1STR    S0M18624   4.542   1.247   6.068
    1STR    S0X18625   5.297   1.673   6.154
    1STR    S1418626   5.046   1.945   0.658
    1STR    S1B18627   4.330   1.237   0.196
    1HEX    C0118628   5.028   1.511   0.935
    1HEX    C0218629   5.060   1.454   1.071
    1HEX    C0318630   4.939   1.391   1.131
    1HEX    O0418631   4.888   1.294   1.076
    1HEX    O0518632   4.893   1.459   1.236
    1HEX    C0618633   4.767   1.417   1.279
    1HEX    C0718634   4.678   1.501   1.365
    1HEX    C0818635   4.693   1.648   1.341
    1HEX    O0918636   4.576   1.720   1.348
    1HEX    C0A18637   4.571   1.816   1.432
    1HEX    O0B18638   4.555   1.801   1.551
    1HEX    C0C18639   4.561   1.949   1.366
    1HEX    C0D18640   4.695   1.993   1.315
    1HEX    C0F18641   4.534   1.458   1.346
    1HEX    O0G18642   4.528   1.319   1.354
    1HEX    C0H18643   4.439   1.241   1.293
    1HEX    O0I18644   4.367   1.268   1.197
    1HEX    C0J18645   4.430   1.107   1.358
    1HEX    C0K18646   4.506   1.107   1.493
    1HEX    C0N18647   4.712   1.470   1.503
    1HEX    O0O18648   4.840   1.521   1.528
    1HEX    C0P18649   4.844   1.624   1.622
    1HEX    C0Q18650   4.803   1.588   1.761
    1HEX    C0R18651   4.834   1.439   1.775
    1HEX    O0S18652   4.969   1.433   1.810
    1HEX    C0T18653   5.044   1.331   1.790
    1HEX    O0U18654   5.011   1.225   1.739
    1HEX    C0V18655   5.188   1.358   1.826
    1HEX    C0W18656   5.226   1.507   1.833
    1HEX    C0Y18657   4.886   1.681   1.853
    1HEX    O0Z18658   4.814   1.710   1.969
    1HEX    C1018659   4.871   1.778   2.064
    1HEX    O1118660   4.991   1.803   2.074
    1HEX    C1218661   4.768   1.833   2.159
    1HEX    C1318662   4.696   1.737   2.251
    1HEX    C1518663   4.657   1.631   1.774
    1HEX    O1618664   4.577   1.584   1.877
    1HEX    C1718665   4.507   1.475   1.859
    1HEX    O1818666   4.534   1.387   1.778
    1HEX    C1918667   4.380   1.477   1.943
    1HEX    C1A18668   4.333   1.617   1.991
    1HEX    H1D18669   5.117   1.510   0.874
    1HEX    H1E18670   4.948   1.458   0.884
    1HEX    H1F18671   5.089   1.532   1.138
    1HEX    H1G18672   5.137   1.378   1.067
    1HEX    H1H18673   4.767   1.311   1.304
    1HEX    H1I18674   4.716   1.426   1.189
    1HEX    H1J18675   4.742   1.668   1.251
    1HEX    H1K18676   4.763   1.693   1.406
    1HEX    H1M18677   4.503   2.021   1.421
    1HEX    H1N18678   4.504   1.928   1.279
    1HEX    H1O18679   4.683   2.074   1.244
    1HEX    H1P18680   4.739   1.912   1.262
    1HEX    H1R18681   4.482   1.500   1.263
    1HEX    H1S18682   4.480   1.499   1.428
    1HEX    H1T18683   4.471   1.038   1.284
    1HEX    H1U18684   4.326   1.082   1.370
    1HEX    H1V18685   4.476   1.035   1.567
    1HEX    H1W18686   4.500   1.203   1.546
    1HEX    H1Y18687   4.710   1.364   1.512
    1HEX    H1Z18688   4.632   1.490   1.570
    1HEX    H2018689   4.786   1.709   1.593
    1HEX    H2118690   4.942   1.660   1.622
    1HEX    H2218691   4.819   1.376   1.691
    1HEX    H2318692   4.765   1.391   1.839
    1HEX    H2418693   5.236   1.300   1.751
    1HEX    H2518694   5.219   1.310   1.917
    1HEX    H2618695   5.331   1.525   1.847
    1HEX    H2718696   5.171   1.561   1.909
    1HEX    H2918697   4.907   1.775   1.804
    1HEX    H2A18698   4.984   1.645   1.878
    1HEX    H2B18699   4.691   1.871   2.095
    1HEX    H2C18700   4.815   1.915   2.213
    1HEX    H2D18701   4.635   1.795   2.319
    1HEX    H2E18702   4.766   1.686   2.314
    1HEX    H2G18703   4.595   1.629   1.687
    1HEX    H2H18704   4.663   1.736   1.790
    1HEX    H2I18705   4.401   1.417   2.030
    1HEX    H2J18706   4.302   1.420   1.897
    1HEX    H2K18707   4.409   1.693   1.987
    1HEX    H2M18708   4.306   1.610   2.096
    1STR    S0018709   4.987   1.684   0.960
    1STR    S0E18710   4.808   2.050   1.441
    1STR    S0M18711   4.671   1.082   1.434
    1STR    S0X18712   5.182   1.572   1.676
    1STR    S1418713   4.581   1.625   2.169
    1STR    S1B18714   4.191   1.690   1.910
    1HEX    C0118715   5.132   1.387   2.914
    1HEX    C0218716   4.999   1.405   2.982
    1HEX    C0318717   4.873   1.377   2.913
    1HEX    O0418718   4.838   1.260   2.901
    1HEX    O0518719   4.816   1.489   2.871
    1HEX    C0618720   4.690   1.482   2.810
    1HEX    C0718721   4.596   1.592   2.855
    1HEX    C0818722   4.666   1.727   2.843
    1HEX    O0918723   4.575   1.835   2.848
    1HEX    C0A18724   4.544   1.888   2.965
    1HEX    O0B18725   4.555   1.837   3.076
    1HEX    C0C18726   4.505   2.033   2.954
    1HEX    C0D18727   4.516   2.104   3.092
    1HEX    C0F18728   4.477   1.587   2.761
    1HEX    O0G18729   4.426   1.454   2.761
    1HEX    C0H18730   4.326   1.425   2.683
    1HEX    O0I18731   4.260   1.506   2.620
    1HEX    C0J18732   4.292   1.277   2.677
    1HEX    C0K18733   4.284   1.209   2.812
    1HEX    C0N18734   4.543   1.561   2.994
    1HEX    O0O18735   4.639   1.508   3.079
    1HEX    C0P18736   4.736   1.588   3.141
    1HEX    C0Q18737   4.737   1.538   3.283
    1HEX    C0R18738   4.741   1.384   3.287
    1HEX    O0S18739   4.867   1.333   3.248
    1HEX    C0T18740   4.929   1.238   3.319
    1HEX    O0U18741   4.890   1.185   3.423
    1HEX    C0V18742   5.058   1.191   3.256
    1HEX    C0W18743   5.173   1.288   3.281
    1HEX    C0Y18744   4.857   1.590   3.358
    1HEX    O0Z18745   4.928   1.501   3.442
    1HEX    C1018746   4.886   1.442   3.553
    1HEX    O1118747   4.771   1.429   3.596
    1HEX    C1218748   5.007   1.391   3.629
    1HEX    C1318749   5.086   1.496   3.712
    1HEX    C1518750   4.611   1.608   3.336
    1HEX    O1618751   4.566   1.555   3.457
    1HEX    C1718752   4.475   1.464   3.448
    1HEX    O1818753   4.436   1.420   3.341
    1HEX    C1918754   4.416   1.425   3.584
    1HEX    C1A18755   4.271   1.468   3.607
    1HEX    H1D18756   5.207   1.355   2.985
    1HEX    H1E18757   5.126   1.306   2.843
    1HEX    H1F18758   4.994   1.503   3.024
    1HEX    H1G18759   4.989   1.335   3.060
    1HEX    H1H18760   4.644   1.386   2.825
    1HEX    H1I18761   4.705   1.493   2.706
    1HEX    H1J18762   4.719   1.733   2.748
    1HEX    H1K18763   4.743   1.738   2.918
    1HEX    H1M18764   4.406   2.036   2.912
    1HEX    H1N18765   4.572   2.075   2.880
    1HEX    H1O18766   4.436   2.069   3.154
    1HEX    H1P18767   4.504   2.211   3.079
    1HEX    H1R18768   4.505   1.617   2.660
    1HEX    H1S18769   4.402   1.658   2.795
    1HEX    H1T18770   4.367   1.225   2.620
    1HEX    H1U18771   4.197   1.269   2.626
    1HEX    H1V18772   4.211   1.129   2.817
    1HEX    H1W18773   4.266   1.281   2.888
    1HEX    H1Y18774   4.465   1.487   2.988
    1HEX    H1Z18775   4.489   1.636   3.043
    1HEX    H2018776   4.722   1.695   3.135
    1HEX    H2118777   4.828   1.568   3.094
    1HEX    H2218778   4.670   1.344   3.219
    1HEX    H2318779   4.713   1.348   3.384
    1HEX    H2418780   5.043   1.166   3.151
    1HEX    H2518781   5.082   1.097   3.303
    1HEX    H2618782   5.193   1.284   3.388
    1HEX    H2718783   5.263   1.252   3.231
    1HEX    H2918784   4.838   1.684   3.403
    1HEX    H2A18785   4.930   1.613   3.284
    1HEX    H2B18786   5.072   1.345   3.555
    1HEX    H2C18787   4.972   1.310   3.691
    1HEX    H2D18788   5.188   1.460   3.726
    1HEX    H2E18789   5.037   1.501   3.809
    1HEX    H2G18790   4.532   1.610   3.262
    1HEX    H2H18791   4.628   1.715   3.342
    1HEX    H2I18792   4.485   1.460   3.661
    1HEX    H2J18793   4.414   1.318   3.598
    1HEX    H2K18794   4.262   1.562   3.659
    1HEX    H2M18795   4.217   1.394   3.665
    1STR    S0018796   5.184   1.550   2.852
    1STR    S0E18797   4.663   2.073   3.198
    1STR    S0M18798   4.441   1.154   2.866
    1STR    S0X18799   5.146   1.459   3.225
    1STR    S1418800   5.106   1.668   3.652
    1STR    S1B18801   4.187   1.494   3.452
    1HEX    C0118802   4.948   1.468   4.211
    1HEX    C0218803   4.912   1.365   4.314
    1HEX    C0318804   4.765   1.363   4.312
    1HEX    O0418805   4.703   1.267   4.270
    1HEX    O0518806   4.718   1.480   4.351
    1HEX    C0618807   4.582   1.503   4.367
    1HEX    C0718808   4.550   1.538   4.512
    1HEX    C0818809   4.555   1.686   4.534
    1HEX    O0918810   4.469   1.774   4.470
    1HEX    C0A18811   4.452   1.897   4.522
    1HEX    O0B18812   4.343   1.939   4.559
    1HEX    C0C18813   4.574   1.989   4.526
    1HEX    C0D18814   4.701   1.936   4.593
    1HEX    C0F18815   4.408   1.496   4.539
    1HEX    O0G18816   4.383   1.360   4.512
    1HEX    C0H18817   4.315   1.327   4.402
    1HEX    O0I18818   4.267   1.405   4.320
    1HEX    C0J18819   4.316   1.179   4.378
    1HEX    C0K18820   4.460   1.134   4.354
    1HEX    C0N18821   4.647   1.477   4.619
    1HEX    O0O18822   4.789   1.504   4.606
    1HEX    C0P18823   4.869   1.604   4.673
    1HEX    C0Q18824   4.856   1.644   4.820
    1HEX    C0R18825   4.867   1.529   4.915
    1HEX    O0S18826   4.997   1.481   4.939
    1HEX    C0T18827   5.034   1.422   5.052
    1HEX    O0U18828   4.964   1.369   5.135
    1HEX    C0V18829   5.180   1.437   5.081
    1HEX    C0W18830   5.210   1.585   5.080
    1HEX    C0Y18831   4.955   1.751   4.865
    1HEX    O0Z18832   4.912   1.802   4.990
    1HEX    C1018833   4.997   1.852   5.076
    1HEX    O1118834   5.111   1.892   5.055
    1HEX    C1218835   4.944   1.842   5.216
    1HEX    C1318836   4.876   1.709   5.240
    1HEX    C1518837   4.726   1.716   4.827
    1HEX    O1618838   4.641   1.713   4.932
    1HEX    C1718839   4.516   1.693   4.908
    1HEX    O1818840   4.474   1.614   4.829
    1HEX    C1918841   4.428   1.771   4.996
    1HEX    C1A18842   4.287   1.805   4.942
    1HEX    H1D18843   4.872   1.486   4.135
    1HEX    H1E18844   5.039   1.435   4.162
    1HEX    H1F18845   4.948   1.390   4.414
    1HEX    H1G18846   4.950   1.266   4.288
    1HEX    H1H18847   4.528   1.418   4.329
    1HEX    H1I18848   4.550   1.584   4.305
    1HEX    H1J18849   4.658   1.709   4.519
    1HEX    H1K18850   4.520   1.705   4.632
    1HEX    H1M18851   4.549   2.080   4.575
    1HEX    H1N18852   4.588   2.021   4.426
    1HEX    H1O18853   4.757   1.879   4.523
    1HEX    H1P18854   4.659   1.872   4.664
    1HEX    H1R18855   4.336   1.563   4.490
    1HEX    H1S18856   4.398   1.510   4.643
    1HEX    H1T18857   4.254   1.155   4.292
    1HEX    H1U18858   4.273   1.133   4.467
    1HEX    H1V18859   4.528   1.204   4.400
    1HEX    H1W18860   4.486   1.125   4.249
    1HEX    H1Y18861   4.627   1.373   4.604
    1HEX    H1Z18862   4.620   1.483   4.723
    1HEX    H2018863   4.846   1.697   4.626
    1HEX    H2118864   4.971   1.587   4.648
    1HEX    H2218865   4.790   1.458   4.895
    1HEX    H2318866   4.843   1.583   5.002
    1HEX    H2418867   5.241   1.378   5.012
    1HEX    H2518868   5.196   1.397   5.181
    1HEX    H2618869   5.278   1.613   5.160
    1HEX    H2718870   5.121   1.642   5.097
    1HEX    H2918871   4.979   1.823   4.788
    1HEX    H2A18872   5.044   1.709   4.895
    1HEX    H2B18873   4.875   1.922   5.232
    1HEX    H2C18874   5.027   1.856   5.285
    1HEX    H2D18875   4.895   1.681   5.342
    1HEX    H2E18876   4.921   1.628   5.184
    1HEX    H2G18877   4.674   1.689   4.741
    1HEX    H2H18878   4.745   1.822   4.826
    1HEX    H2I18879   4.482   1.853   5.038
    1HEX    H2J18880   4.422   1.708   5.080
    1HEX    H2K18881   4.264   1.908   4.938
    1HEX    H2M18882   4.221   1.786   5.021
    1STR    S0018883   4.986   1.623   4.292
    1STR    S0E18884   4.832   2.040   4.661
    1STR    S0M18885   4.486   0.980   4.437
    1STR    S0X18886   5.283   1.644   4.927
    1STR    S1418887   4.699   1.724   5.196
    1STR    S1B18888   4.236   1.761   4.774
    1HEX    C0118889   5.062   2.899   5.777
    1HEX    C0218890   5.028   2.901   5.925
    1HEX    C0318891   4.881   2.930   5.942
    1HEX    O0418892   4.793   2.857   5.897
    1HEX    O0518893   4.863   3.047   5.995
    1HEX    C0618894   4.737   3.107   5.990
    1HEX    C0718895   4.668   3.122   6.120
    1HEX    C0818896   4.691   3.260   6.176
    1HEX    O0918897   4.630   3.370   6.110
    1HEX    C0A18898   4.546   3.445   6.180
    1HEX    O0B18899   4.506   3.418   6.293
    1HEX    C0C18900   4.504   3.571   6.109
    1HEX    C0D18901   4.577   3.693   6.163
    1HEX    C0F18902   4.521   3.135   6.103
    1HEX    O0G18903   4.473   3.011   6.088
    1HEX    C0H18904   4.460   2.956   5.974
    1HEX    O0I18905   4.463   3.008   5.862
    1HEX    C0J18906   4.423   2.818   6.002
    1HEX    C0K18907   4.337   2.806   6.131
    1HEX    C0N18908   4.710   2.997   6.203
    1HEX    O0O18909   4.834   3.010   6.267
    1HEX    C0P18910   4.833   3.096   0.038
    1HEX    C0Q18911   4.734   3.076   0.151
    1HEX    C0R18912   4.760   2.937   0.210
    1HEX    O0S18913   4.898   2.906   0.195
    1HEX    C0T18914   4.954   2.815   0.267
    1HEX    O0U18915   4.911   2.767   0.371
    1HEX    C0V18916   5.079   2.757   0.205
    1HEX    C0W18917   5.198   2.831   0.143
    1HEX    C0Y18918   4.772   3.186   0.247
    1HEX    O0Z18919   4.684   3.188   0.356
    1HEX    C1018920   4.618   3.297   0.393
    1HEX    O1118921   4.617   3.407   0.336
    1HEX    C1218922   4.539   3.273   0.519
    1HEX    C1318923   4.595   3.173   0.623
    1HEX    C1518924   4.584   3.105   0.126
    1HEX    O1618925   4.512   3.037   0.225
    1HEX    C1718926   4.387   3.007   0.204
    1HEX    O1818927   4.326   3.011   0.098
    1HEX    C1918928   4.316   2.981   0.332
    1HEX    C1A18929   4.228   3.102   0.373
    1HEX    H1D18930   5.163   2.862   5.761
    1HEX    H1E18931   4.992   2.836   5.722
    1HEX    H1F18932   5.085   2.975   5.981
    1HEX    H1G18933   5.050   2.805   5.967
    1HEX    H1H18934   4.678   3.064   5.910
    1HEX    H1I18935   4.753   3.207   5.965
    1HEX    H1J18936   4.793   3.283   6.174
    1HEX    H1K18937   4.660   3.254   6.279
    1HEX    H1M18938   4.399   3.587   6.116
    1HEX    H1N18939   4.519   3.559   6.004
    1HEX    H1O18940   4.543   3.783   6.112
    1HEX    H1P18941   4.683   3.681   6.142
    1HEX    H1R18942   4.488   3.202   6.024
    1HEX    H1S18943   4.480   3.172   6.196
    1HEX    H1T18944   4.523   2.780   6.012
    1HEX    H1U18945   4.377   2.773   5.915
    1HEX    H1V18946   4.271   2.720   6.127
    1HEX    H1W18947   4.275   2.894   6.142
    1HEX    H1Y18948   4.718   2.912   6.137
    1HEX    H1Z18949   4.638   2.953   6.269
    1HEX    H2018950   4.839   3.195   0.010
    1HEX    H2118951   4.931   3.092   0.081
    1HEX    H2218952   4.702   2.863   0.157
    1HEX    H2318953   4.729   2.935   0.314
    1HEX    H2418954   5.022   2.713   0.125
    1HEX    H2518955   5.117   2.685   0.277
    1HEX    H2618956   5.267   2.759   0.101
    1HEX    H2718957   5.265   2.885   0.210
    1HEX    H2918958   4.765   3.280   0.200
    1HEX    H2A18959   4.877   3.176   0.271
    1HEX    H2B18960   4.444   3.235   0.487
    1HEX    H2C18961   4.524   3.371   0.564
    1HEX    H2D18962   4.524   3.162   0.704
    1HEX    H2E18963   4.686   3.208   0.669
    1HEX    H2G18964   4.543   3.082   0.031
    1HEX    H2H18965   4.560   3.211   0.135
    1HEX    H2I18966   4.391   2.958   0.407
    1HEX    H2J18967   4.257   2.891   0.316
    1HEX    H2K18968   4.235   3.114   0.481
    1HEX    H2M18969   4.125   3.081   0.347
    1STR    S0018970   5.052   3.066   5.713
    1STR    S0E18971   4.544   3.713  -0.000
    1STR    S0M18972   4.431   2.797   6.286
    1STR    S0X18973   5.142   2.931   0.008
    1STR    S1418974   4.626   3.005   0.564
    1STR    S1B18975   4.272   3.264   0.300
    1HEX    C0118976   4.922   2.718   1.191
    1HEX    C0218977   4.830   2.830   1.239
    1HEX    C0318978   4.730   2.877   1.133
    1HEX    O0418979   4.658   2.796   1.075
    1HEX    O0518980   4.722   3.012   1.120
    1HEX    C0618981   4.595   3.066   1.088
    1HEX    C0718982   4.509   3.083   1.215
    1HEX    C0818983   4.535   3.217   1.269
    1HEX    O0918984   4.478   3.347   1.253
    1HEX    C0A18985   4.526   3.424   1.356
    1HEX    O0B18986   4.590   3.376   1.447
    1HEX    C0C18987   4.509   3.573   1.358
    1HEX    C0D18988   4.523   3.624   1.503
    1HEX    C0F18989   4.359   3.063   1.193
    1HEX    O0G18990   4.331   2.926   1.207
    1HEX    C0H18991   4.350   2.843   1.105
    1HEX    O0I18992   4.344   2.876   0.987
    1HEX    C0J18993   4.375   2.699   1.146
    1HEX    C0K18994   4.402   2.676   1.296
    1HEX    C0N18995   4.560   2.994   1.333
    1HEX    O0O18996   4.694   3.017   1.375
    1HEX    C0P18997   4.725   3.112   1.475
    1HEX    C0Q18998   4.769   3.051   1.605
    1HEX    C0R18999   4.830   2.915   1.583
    1HEX    O0S19000   4.951   2.910   1.517
    1HEX    C0T19001   5.064   2.897   1.584
    1HEX    O0U19002   5.086   2.867   1.701
    1HEX    C0V19003   5.174   2.933   1.497
    1HEX    C0W19004   5.141   3.061   1.427
    1HEX    C0Y19005   4.870   3.143   1.661
    1HEX    O0Z19006   4.916   3.071   1.770
    1HEX    C1019007   4.923   3.125   1.882
    1HEX    O1119008   4.922   3.247   1.898
    1HEX    C1219009   4.934   3.017   1.987
    1HEX    C1319010   5.030   3.034   2.106
    1HEX    C1519011   4.651   3.043   1.703
    1HEX    O1619012   4.672   2.941   1.798
    1HEX    C1719013   4.591   2.912   1.898
    1HEX    O1819014   4.632   2.868   2.004
    1HEX    C1919015   4.444   2.942   1.885
    1HEX    C1A19016   4.362   2.920   1.762
    1HEX    H1D19017   4.929   2.640   1.266
    1HEX    H1E19018   4.883   2.676   1.098
    1HEX    H1F19019   4.884   2.917   1.278
    1HEX    H1G19020   4.776   2.796   1.324
    1HEX    H1H19021   4.547   3.004   1.014
    1HEX    H1I19022   4.607   3.163   1.043
    1HEX    H1J19023   4.642   3.222   1.274
    1HEX    H1K19024   4.499   3.196   1.367
    1HEX    H1M19025   4.411   3.598   1.317
    1HEX    H1N19026   4.583   3.621   1.296
    1HEX    H1O19027   4.439   3.589   1.554
    1HEX    H1P19028   4.495   3.724   1.511
    1HEX    H1R19029   4.327   3.103   1.096
    1HEX    H1S19030   4.302   3.115   1.269
    1HEX    H1T19031   4.457   2.659   1.087
    1HEX    H1U19032   4.285   2.645   1.118
    1HEX    H1V19033   4.338   2.596   1.328
    1HEX    H1W19034   4.365   2.759   1.356
    1HEX    H1Y19035   4.551   2.892   1.302
    1HEX    H1Z19036   4.501   2.999   1.423
    1HEX    H2019037   4.642   3.171   1.505
    1HEX    H2119038   4.802   3.177   1.433
    1HEX    H2219039   4.765   2.863   1.521
    1HEX    H2319040   4.838   2.863   1.676
    1HEX    H2419041   5.189   2.851   1.427
    1HEX    H2519042   5.260   2.944   1.560
    1HEX    H2619043   5.040   3.074   1.387
    1HEX    H2719044   5.212   3.048   1.349
    1HEX    H2919045   4.829   3.242   1.683
    1HEX    H2A19046   4.951   3.153   1.592
    1HEX    H2B19047   4.962   2.925   1.937
    1HEX    H2C19048   4.832   3.000   2.020
    1HEX    H2D19049   5.131   3.014   2.078
    1HEX    H2E19050   5.003   2.961   2.181
    1HEX    H2G19051   4.560   3.032   1.646
    1HEX    H2H19052   4.644   3.135   1.761
    1HEX    H2I19053   4.456   3.047   1.892
    1HEX    H2J19054   4.390   2.901   1.969
    1HEX    H2K19055   4.286   2.846   1.776
    1HEX    H2M19056   4.420   2.893   1.678
    1STR    S0019057   5.083   2.792   1.161
    1STR    S0E19058   4.647   3.572   1.629
    1STR    S0M19059   4.576   2.630   1.336
    1STR    S0X19060   5.207   3.207   1.498
    1STR    S1419061   5.015   3.197   2.180
    1STR    S1B19062   4.291   3.081   1.732
    1HEX    C0119063   5.019   3.159   2.544
    1HEX    C0219064   5.017   3.007   2.561
    1HEX    C0319065   4.889   2.962   2.628
    1HEX    O0419066   4.826   2.865   2.585
    1HEX    O0519067   4.850   3.044   2.727
    1HEX    C0619068   4.716   3.034   2.766
    1HEX    C0719069   4.676   3.104   2.895
    1HEX    C0819070   4.667   3.254   2.893
    1HEX    O0919071   4.542   3.314   2.888
    1HEX    C0A19072   4.517   3.441   2.927
    1HEX    O0B19073   4.405   3.474   2.963
    1HEX    C0C19074   4.624   3.551   2.923
    1HEX    C0D19075   4.776   3.539   2.896
    1HEX    C0F19076   4.542   3.052   2.935
    1HEX    O0G19077   4.535   2.912   2.934
    1HEX    C0H19078   4.481   2.846   2.831
    1HEX    O0I19079   4.437   2.894   2.727
    1HEX    C0J19080   4.468   2.698   2.860
    1HEX    C0K19081   4.543   2.659   2.988
    1HEX    C0N19082   4.777   3.073   3.002
    1HEX    O0O19083   4.877   3.170   3.009
    1HEX    C0P19084   4.886   3.271   3.109
    1HEX    C0Q19085   4.866   3.237   3.252
    1HEX    C0R19086   4.902   3.099   3.300
    1HEX    O0S19087   5.040   3.079   3.311
    1HEX    C0T19088   5.075   2.961   3.348
    1HEX    O0U19089   4.994   2.871   3.368
    1HEX    C0V19090   5.225   2.942   3.368
    1HEX    C0W19091   5.301   3.047   3.454
    1HEX    C0Y19092   4.948   3.340   3.330
    1HEX    O0Z19093   4.890   3.333   3.453
    1HEX    C1019094   4.881   3.433   3.531
    1HEX    O1119095   4.966   3.519   3.557
    1HEX    C1219096   4.745   3.424   3.590
    1HEX    C1319097   4.732   3.463   3.734
    1HEX    C1519098   4.716   3.257   3.268
    1HEX    O1619099   4.658   3.205   3.382
    1HEX    C1719100   4.589   3.097   3.371
    1HEX    O1819101   4.582   3.025   3.273
    1HEX    C1919102   4.520   3.069   3.499
    1HEX    C1A19103   4.449   3.193   3.559
    1HEX    H1D19104   5.099   3.198   2.482
    1HEX    H1E19105   5.021   3.206   2.638
    1HEX    H1F19106   5.101   2.974   2.621
    1HEX    H1G19107   5.020   2.959   2.464
    1HEX    H1H19108   4.706   2.927   2.781
    1HEX    H1I19109   4.650   3.060   2.684
    1HEX    H1J19110   4.746   3.290   2.830
    1HEX    H1K19111   4.681   3.288   2.991
    1HEX    H1M19112   4.608   3.594   3.016
    1HEX    H1N19113   4.584   3.633   2.866
    1HEX    H1O19114   4.799   3.562   2.795
    1HEX    H1P19115   4.829   3.447   2.916
    1HEX    H1R19116   4.467   3.091   2.867
    1HEX    H1S19117   4.520   3.089   3.035
    1HEX    H1T19118   4.505   2.647   2.772
    1HEX    H1U19119   4.362   2.676   2.870
    1HEX    H1V19120   4.525   2.557   3.021
    1HEX    H1W19121   4.517   2.722   3.073
    1HEX    H1Y19122   4.831   2.985   2.970
    1HEX    H1Z19123   4.728   3.050   3.095
    1HEX    H2019124   4.827   3.357   3.092
    1HEX    H2119125   4.974   3.327   3.095
    1HEX    H2219126   4.856   3.020   3.242
    1HEX    H2319127   4.861   3.086   3.399
    1HEX    H2419128   5.270   2.928   3.273
    1HEX    H2519129   5.233   2.846   3.416
    1HEX    H2619130   5.361   2.998   3.529
    1HEX    H2719131   5.236   3.110   3.507
    1HEX    H2919132   4.941   3.440   3.293
    1HEX    H2A19133   5.054   3.319   3.336
    1HEX    H2B19134   4.714   3.324   3.565
    1HEX    H2C19135   4.671   3.468   3.532
    1HEX    H2D19136   4.672   3.552   3.749
    1HEX    H2E19137   4.830   3.474   3.781
    1HEX    H2G19138   4.655   3.232   3.182
    1HEX    H2H19139   4.706   3.361   3.281
    1HEX    H2I19140   4.596   3.026   3.559
    1HEX    H2J19141   4.464   2.978   3.492
    1HEX    H2K19142   4.499   3.287   3.532
    1HEX    H2M19143   4.450   3.183   3.667
    1STR    S0019144   4.860   3.214   2.492
    1STR    S0E19145   4.869   3.667   2.979
    1STR    S0M19146   4.716   2.682   2.946
    1STR    S0X19147   5.406   3.173   3.384
    1STR    S1419148   4.648   3.319   3.792
    1STR    S1B19149   4.276   3.222   3.520
    1HEX    C0119150   5.153   3.277   4.259
    1HEX    C0219151   5.000   3.299   4.251
    1HEX    C0319152   4.920   3.255   4.371
    1HEX    O0419153   4.966   3.203   4.472
    1HEX    O0519154   4.800   3.305   4.360
    1HEX    C0619155   4.686   3.230   4.374
    1HEX    C0719156   4.610   3.189   4.498
    1HEX    C0819157   4.612   3.290   4.605
    1HEX    O0919158   4.558   3.414   4.579
    1HEX    C0A19159   4.557   3.488   4.688
    1HEX    O0B19160   4.584   3.448   4.802
    1HEX    C0C19161   4.519   3.628   4.658
    1HEX    C0D19162   4.530   3.712   4.784
    1HEX    C0F19163   4.465   3.168   4.460
    1HEX    O0G19164   4.443   3.033   4.428
    1HEX    C0H19165   4.328   2.987   4.387
    1HEX    O0I19166   4.245   3.046   4.320
    1HEX    C0J19167   4.315   2.843   4.422
    1HEX    C0K19168   4.190   2.800   4.495
    1HEX    C0N19169   4.658   3.058   4.561
    1HEX    O0O19170   4.789   3.051   4.600
    1HEX    C0P19171   4.820   3.100   4.727
    1HEX    C0Q19172   4.779   3.031   4.854
    1HEX    C0R19173   4.780   2.886   4.821
    1HEX    O0S19174   4.899   2.849   4.751
    1HEX    C0T19175   4.979   2.749   4.789
    1HEX    O0U19176   4.965   2.672   4.884
    1HEX    C0V19177   5.098   2.737   4.699
    1HEX    C0W19178   5.194   2.848   4.734
    1HEX    C0Y19179   4.880   3.052   4.966
    1HEX    O0Z19180   4.967   2.946   4.996
    1HEX    C1019181   4.940   2.864   5.097
    1HEX    O1119182   4.831   2.844   5.149
    1HEX    C1219183   5.067   2.804   5.149
    1HEX    C1319184   5.167   2.916   5.186
    1HEX    C1519185   4.643   3.091   4.894
    1HEX    O1619186   4.604   3.074   5.027
    1HEX    C1719187   4.558   2.959   5.069
    1HEX    O1819188   4.562   2.851   5.010
    1HEX    C1919189   4.480   2.975   5.195
    1HEX    C1A19190   4.332   2.995   5.157
    1HEX    H1D19191   5.191   3.278   4.158
    1HEX    H1E19192   5.199   3.360   4.311
    1HEX    H1F19193   4.955   3.247   4.167
    1HEX    H1G19194   4.973   3.402   4.227
    1HEX    H1H19195   4.718   3.138   4.336
    1HEX    H1I19196   4.621   3.285   4.308
    1HEX    H1J19197   4.713   3.311   4.631
    1HEX    H1K19198   4.562   3.246   4.692
    1HEX    H1M19199   4.422   3.635   4.616
    1HEX    H1N19200   4.575   3.659   4.571
    1HEX    H1O19201   4.471   3.670   4.862
    1HEX    H1P19202   4.487   3.808   4.767
    1HEX    H1R19203   4.430   3.235   4.383
    1HEX    H1S19204   4.407   3.187   4.546
    1HEX    H1T19205   4.406   2.822   4.475
    1HEX    H1U19206   4.314   2.782   4.333
    1HEX    H1V19207   4.190   2.692   4.492
    1HEX    H1W19208   4.104   2.835   4.440
    1HEX    H1Y19209   4.645   2.973   4.498
    1HEX    H1Z19210   4.597   3.034   4.644
    1HEX    H2019211   4.830   3.203   4.737
    1HEX    H2119212   4.918   3.070   4.719
    1HEX    H2219213   4.694   2.871   4.757
    1HEX    H2319214   4.768   2.825   4.909
    1HEX    H2419215   5.063   2.741   4.596
    1HEX    H2519216   5.142   2.640   4.717
    1HEX    H2619217   5.294   2.823   4.701
    1HEX    H2719218   5.195   2.863   4.842
    1HEX    H2919219   4.829   3.068   5.057
    1HEX    H2A19220   4.942   3.139   4.949
    1HEX    H2B19221   5.107   2.742   5.070
    1HEX    H2C19222   5.042   2.742   5.234
    1HEX    H2D19223   5.171   2.993   5.108
    1HEX    H2E19224   5.266   2.875   5.197
    1HEX    H2G19225   4.562   3.051   4.836
    1HEX    H2H19226   4.644   3.198   4.879
    1HEX    H2I19227   4.523   3.056   5.253
    1HEX    H2J19228   4.495   2.883   5.250
    1HEX    H2K19229   4.269   2.955   5.235
    1HEX    H2M19230   4.307   2.947   5.063
    1STR    S0019231   5.215   3.124   4.338
    1STR    S0E19232   4.693   3.710   4.859
    1STR    S0M19233   4.173   2.842   4.669
    1STR    S0X19234   5.143   3.000   4.653
    1STR    S1419235   5.117   2.995   5.340
    1STR    S1B19236   4.290   3.169   5.140
    1HEX    C0119237   5.178   4.739   5.886
    1HEX    C0219238   5.094   4.763   6.009
    1HEX    C0319239   4.999   4.648   6.048
    1HEX    O0419240   5.022   4.531   6.024
    1HEX    O0519241   4.884   4.688   6.090
    1HEX    C0619242   4.766   4.613   6.067
    1HEX    C0719243   4.641   4.684   6.107
    1HEX    C0819244   4.654   4.817   6.031
    1HEX    O0919245   4.544   4.896   6.051
    1HEX    C0A19246   4.556   4.963   6.154
    1HEX    O0B19247   4.508   4.941   6.259
    1HEX    C0C19248   4.623   5.088   6.135
    1HEX    C0D19249   4.773   5.105   6.131
    1HEX    C0F19250   4.505   4.635   6.058
    1HEX    O0G19251   4.475   4.500   6.031
    1HEX    C0H19252   4.347   4.477   6.001
    1HEX    O0I19253   4.259   4.561   6.014
    1HEX    C0J19254   4.307   4.343   5.941
    1HEX    C0K19255   4.379   4.211   5.971
    1HEX    C0N19256   4.633   4.677   6.259
    1HEX    O0O19257   4.756   4.676   6.330
    1HEX    C0P19258   4.840   4.790   6.322
    1HEX    C0Q19259   4.836   4.881   0.102
    1HEX    C0R19260   4.862   4.787   0.214
    1HEX    O0S19261   4.998   4.773   0.203
    1HEX    C0T19262   5.057   4.679   0.261
    1HEX    O0U19263   5.027   4.562   0.263
    1HEX    C0V19264   5.177   4.733   0.327
    1HEX    C0W19265   5.248   4.838   0.239
    1HEX    C0Y19266   4.934   5.001   0.095
    1HEX    O0Z19267   4.974   5.043   0.222
    1HEX    C1019268   4.897   5.123   0.291
    1HEX    O1119269   4.802   5.184   0.245
    1HEX    C1219270   4.938   5.136   0.435
    1HEX    C1319271   5.020   5.017   0.487
    1HEX    C1519272   4.700   4.938   0.111
    1HEX    O1619273   4.648   4.966   0.235
    1HEX    C1719274   4.533   4.910   0.254
    1HEX    O1819275   4.518   4.789   0.263
    1HEX    C1919276   4.425   5.012   0.265
    1HEX    C1A19277   4.368   5.061   0.134
    1HEX    H1D19278   5.257   4.813   5.877
    1HEX    H1E19279   5.221   4.641   5.882
    1HEX    H1F19280   5.039   4.857   6.006
    1HEX    H1G19281   5.177   4.775   6.074
    1HEX    H1H19282   4.769   4.508   6.082
    1HEX    H1I19283   4.759   4.618   5.966
    1HEX    H1J19284   4.653   4.806   5.924
    1HEX    H1K19285   4.748   4.867   6.048
    1HEX    H1M19286   4.588   5.140   6.223
    1HEX    H1N19287   4.572   5.113   6.044
    1HEX    H1O19288   4.822   5.031   6.190
    1HEX    H1P19289   4.798   5.196   6.181
    1HEX    H1R19290   4.476   4.686   5.969
    1HEX    H1S19291   4.432   4.675   6.127
    1HEX    H1T19292   4.307   4.358   5.834
    1HEX    H1U19293   4.202   4.331   5.967
    1HEX    H1V19294   4.366   4.145   5.887
    1HEX    H1W19295   4.329   4.163   6.054
    1HEX    H1Y19296   4.586   4.584   6.278
    1HEX    H1Z19297   4.551   4.729   6.305
    1HEX    H2019298   4.823   4.845   6.233
    1HEX    H2119299   4.936   4.744   6.313
    1HEX    H2219300   4.808   4.692   0.212
    1HEX    H2319301   4.839   4.840   0.303
    1HEX    H2419302   5.224   4.643   0.364
    1HEX    H2519303   5.151   4.778   0.420
    1HEX    H2619304   5.328   4.880   0.298
    1HEX    H2719305   5.182   4.919   0.211
    1HEX    H2919306   4.897   5.085   0.038
    1HEX    H2A19307   5.026   4.975   0.047
    1HEX    H2B19308   4.845   5.151   0.492
    1HEX    H2C19309   4.995   5.228   0.441
    1HEX    H2D19310   5.091   5.044   0.564
    1HEX    H2E19311   5.073   4.966   0.408
    1HEX    H2G19312   4.641   4.858   0.074
    1HEX    H2H19313   4.688   5.025   0.049
    1HEX    H2I19314   4.470   5.099   0.313
    1HEX    H2J19315   4.352   4.976   0.334
    1HEX    H2K19316   4.447   5.098   0.070
    1HEX    H2M19317   4.314   5.149   0.165
    1STR    S0019318   5.085   4.739   5.741
    1STR    S0E19319   4.840   5.098   5.963
    1STR    S0M19320   4.557   4.220   5.998
    1STR    S0X19321   5.318   4.778   0.084
    1STR    S1419322   4.903   4.906   0.558
    1STR    S1B19323   4.240   4.965   0.049
    1HEX    C0119324   5.087   4.784   0.991
    1HEX    C0219325   5.054   4.827   1.132
    1HEX    C0319326   4.954   4.736   1.194
    1HEX    O0419327   4.942   4.620   1.158
    1HEX    O0519328   4.873   4.803   1.267
    1HEX    C0619329   4.741   4.764   1.284
    1HEX    C0719330   4.702   4.757   1.428
    1HEX    C0819331   4.670   4.894   1.488
    1HEX    O0919332   4.616   4.968   1.382
    1HEX    C0A19333   4.536   5.065   1.399
    1HEX    O0B19334   4.479   5.094   1.503
    1HEX    C0C19335   4.517   5.139   1.269
    1HEX    C0D19336   4.635   5.229   1.237
    1HEX    C0F19337   4.572   4.683   1.434
    1HEX    O0G19338   4.589   4.544   1.412
    1HEX    C0H19339   4.504   4.486   1.336
    1HEX    O0I19340   4.425   4.546   1.271
    1HEX    C0J19341   4.501   4.338   1.333
    1HEX    C0K19342   4.466   4.296   1.473
    1HEX    C0N19343   4.812   4.667   1.480
    1HEX    O0O19344   4.925   4.721   1.536
    1HEX    C0P19345   4.900   4.770   1.663
    1HEX    C0Q19346   4.849   4.682   1.778
    1HEX    C0R19347   4.917   4.546   1.770
    1HEX    O0S19348   5.052   4.563   1.796
    1HEX    C0T19349   5.140   4.469   1.794
    1HEX    O0U19350   5.122   4.349   1.782
    1HEX    C0V19351   5.279   4.525   1.804
    1HEX    C0W19352   5.280   4.679   1.800
    1HEX    C0Y19353   4.911   4.753   1.903
    1HEX    O0Z19354   4.816   4.812   1.983
    1HEX    C1019355   4.753   4.910   1.939
    1HEX    O1119356   4.772   4.959   1.831
    1HEX    C1219357   4.631   4.935   2.017
    1HEX    C1319358   4.655   4.934   2.165
    1HEX    C1519359   4.692   4.681   1.765
    1HEX    O1619360   4.602   4.627   1.859
    1HEX    C1719361   4.485   4.578   1.814
    1HEX    O1819362   4.467   4.517   1.710
    1HEX    C1919363   4.366   4.603   1.903
    1HEX    C1A19364   4.341   4.751   1.940
    1HEX    H1D19365   5.180   4.830   0.958
    1HEX    H1E19366   5.100   4.675   0.985
    1HEX    H1F19367   5.022   4.930   1.134
    1HEX    H1G19368   5.135   4.823   1.197
    1HEX    H1H19369   4.725   4.666   1.244
    1HEX    H1I19370   4.681   4.833   1.228
    1HEX    H1J19371   4.753   4.953   1.520
    1HEX    H1K19372   4.604   4.889   1.574
    1HEX    H1M19373   4.424   5.194   1.273
    1HEX    H1N19374   4.510   5.062   1.193
    1HEX    H1O19375   4.627   5.271   1.138
    1HEX    H1P19376   4.729   5.174   1.241
    1HEX    H1R19377   4.504   4.734   1.365
    1HEX    H1S19378   4.525   4.690   1.532
    1HEX    H1T19379   4.595   4.300   1.295
    1HEX    H1U19380   4.426   4.303   1.263
    1HEX    H1V19381   4.392   4.218   1.474
    1HEX    H1W19382   4.430   4.376   1.535
    1HEX    H1Y19383   4.846   4.603   1.400
    1HEX    H1Z19384   4.774   4.591   1.541
    1HEX    H2019385   4.851   4.862   1.655
    1HEX    H2119386   4.992   4.805   1.695
    1HEX    H2219387   4.914   4.507   1.671
    1HEX    H2319388   4.873   4.472   1.834
    1HEX    H2419389   5.330   4.480   1.720
    1HEX    H2519390   5.323   4.488   1.896
    1HEX    H2619391   5.379   4.722   1.817
    1HEX    H2719392   5.213   4.723   1.875
    1HEX    H2919393   4.987   4.830   1.887
    1HEX    H2A19394   4.969   4.684   1.960
    1HEX    H2B19395   4.581   4.844   1.989
    1HEX    H2C19396   4.573   5.019   1.981
    1HEX    H2D19397   4.638   5.033   2.204
    1HEX    H2E19398   4.758   4.910   2.187
    1HEX    H2G19399   4.660   4.634   1.677
    1HEX    H2H19400   4.654   4.780   1.747
    1HEX    H2I19401   4.375   4.538   1.989
    1HEX    H2J19402   4.280   4.568   1.847
    1HEX    H2K19403   4.387   4.774   2.033
    1HEX    H2M19404   4.235   4.765   1.960
    1STR    S0019405   4.953   4.837   0.883
    1STR    S0E19406   4.636   5.368   1.348
    1STR    S0M19407   4.617   4.235   1.535
    1STR    S0X19408   5.223   4.728   1.638
    1STR    S1419409   4.534   4.818   2.235
    1STR    S1B19410   4.395   4.873   1.816
    1HEX    C0119411   4.967   4.594   2.853
    1HEX    C0219412   4.897   4.456   2.859
    1HEX    C0319413   4.759   4.458   2.807
    1HEX    O0419414   4.711   4.365   2.742
    1HEX    O0519415   4.704   4.571   2.838
    1HEX    C0619416   4.598   4.617   2.762
    1HEX    C0719417   4.537   4.740   2.830
    1HEX    C0819418   4.626   4.854   2.794
    1HEX    O0919419   4.566   4.967   2.846
    1HEX    C0A19420   4.553   5.073   2.774
    1HEX    O0B19421   4.590   5.091   2.659
    1HEX    C0C19422   4.491   5.181   2.856
    1HEX    C0D19423   4.448   5.144   2.998
    1HEX    C0F19424   4.402   4.761   2.763
    1HEX    O0G19425   4.336   4.639   2.786
    1HEX    C0H19426   4.297   4.559   2.689
    1HEX    O0I19427   4.280   4.592   2.572
    1HEX    C0J19428   4.282   4.415   2.737
    1HEX    C0K19429   4.289   4.402   2.889
    1HEX    C0N19430   4.515   4.735   2.984
    1HEX    O0O19431   4.612   4.669   3.062
    1HEX    C0P19432   4.728   4.741   3.091
    1HEX    C0Q19433   4.795   4.681   3.213
    1HEX    C0R19434   4.814   4.529   3.198
    1HEX    O0S19435   4.942   4.510   3.141
    1HEX    C0T19436   5.010   4.405   3.167
    1HEX    O0U19437   4.960   4.294   3.176
    1HEX    C0V19438   5.158   4.436   3.184
    1HEX    C0W19439   5.229   4.482   3.056
    1HEX    C0Y19440   4.931   4.744   3.225
    1HEX    O0Z19441   4.999   4.669   3.323
    1HEX    C1019442   4.998   4.717   3.438
    1HEX    O1119443   4.994   4.838   3.454
    1HEX    C1219444   4.987   4.609   3.544
    1HEX    C1319445   5.035   4.646   3.686
    1HEX    C1519446   4.721   4.730   3.339
    1HEX    O1619447   4.679   4.639   3.437
    1HEX    C1719448   4.551   4.610   3.434
    1HEX    O1819449   4.485   4.622   3.334
    1HEX    C1919450   4.492   4.570   3.568
    1HEX    C1A19451   4.340   4.549   3.564
    1HEX    H1D19452   5.070   4.576   2.829
    1HEX    H1E19453   4.957   4.645   2.946
    1HEX    H1F19454   4.877   4.420   2.957
    1HEX    H1G19455   4.957   4.375   2.820
    1HEX    H1H19456   4.534   4.534   2.742
    1HEX    H1I19457   4.629   4.640   2.662
    1HEX    H1J19458   4.642   4.859   2.687
    1HEX    H1K19459   4.721   4.842   2.842
    1HEX    H1M19460   4.405   5.216   2.800
    1HEX    H1N19461   4.562   5.259   2.858
    1HEX    H1O19462   4.382   5.063   2.982
    1HEX    H1P19463   4.395   5.227   3.044
    1HEX    H1R19464   4.411   4.786   2.658
    1HEX    H1S19465   4.349   4.841   2.813
    1HEX    H1T19466   4.360   4.356   2.690
    1HEX    H1U19467   4.185   4.380   2.703
    1HEX    H1V19468   4.250   4.307   2.925
    1HEX    H1W19469   4.228   4.479   2.935
    1HEX    H1Y19470   4.421   4.686   3.004
    1HEX    H1Z19471   4.494   4.832   3.028
    1HEX    H2019472   4.704   4.843   3.113
    1HEX    H2119473   4.792   4.741   3.005
    1HEX    H2219474   4.736   4.482   3.140
    1HEX    H2319475   4.817   4.485   3.297
    1HEX    H2419476   5.205   4.346   3.222
    1HEX    H2519477   5.168   4.511   3.262
    1HEX    H2619478   5.192   4.423   2.972
    1HEX    H2719479   5.336   4.464   3.064
    1HEX    H2919480   4.916   4.850   3.243
    1HEX    H2A19481   4.987   4.734   3.135
    1HEX    H2B19482   5.036   4.520   3.508
    1HEX    H2C19483   4.882   4.582   3.547
    1HEX    H2D19484   5.142   4.640   3.698
    1HEX    H2E19485   4.989   4.580   3.759
    1HEX    H2G19486   4.642   4.791   3.305
    1HEX    H2H19487   4.771   4.808   3.393
    1HEX    H2I19488   4.519   4.644   3.641
    1HEX    H2J19489   4.540   4.478   3.598
    1HEX    H2K19490   4.302   4.519   3.661
    1HEX    H2M19491   4.319   4.469   3.494
    1STR    S0019492   4.920   4.711   2.728
    1STR    S0E19493   4.557   5.075   3.124
    1STR    S0M19494   4.460   4.415   2.947
    1STR    S0X19495   5.206   4.658   3.014
    1STR    S1419496   4.995   4.814   3.726
    1STR    S1B19497   4.248   4.697   3.511
    1HEX    C0119498   4.993   4.657   4.217
    1HEX    C0219499   4.955   4.561   4.320
    1HEX    C0319500   4.812   4.526   4.301
    1HEX    O0419501   4.780   4.409   4.290
    1HEX    O0519502   4.736   4.636   4.293
    1HEX    C0619503   4.597   4.624   4.304
    1HEX    C0719504   4.550   4.649   4.448
    1HEX    C0819505   4.534   4.793   4.473
    1HEX    O0919506   4.418   4.853   4.420
    1HEX    C0A19507   4.354   4.952   4.483
    1HEX    O0B19508   4.232   4.959   4.483
    1HEX    C0C19509   4.438   5.065   4.543
    1HEX    C0D19510   4.543   5.033   4.647
    1HEX    C0F19511   4.407   4.596   4.468
    1HEX    O0G19512   4.391   4.460   4.439
    1HEX    C0H19513   4.344   4.424   4.318
    1HEX    O0I19514   4.313   4.499   4.227
    1HEX    C0J19515   4.334   4.274   4.301
    1HEX    C0K19516   4.401   4.196   4.413
    1HEX    C0N19517   4.647   4.594   4.556
    1HEX    O0O19518   4.785   4.631   4.568
    1HEX    C0P19519   4.831   4.756   4.621
    1HEX    C0Q19520   4.837   4.778   4.770
    1HEX    C0R19521   4.907   4.659   4.830
    1HEX    O0S19522   5.009   4.697   4.921
    1HEX    C0T19523   5.096   4.611   4.973
    1HEX    O0U19524   5.104   4.494   4.947
    1HEX    C0V19525   5.198   4.666   5.068
    1HEX    C0W19526   5.198   4.817   5.077
    1HEX    C0Y19527   4.908   4.907   4.809
    1HEX    O0Z19528   4.884   4.957   4.942
    1HEX    C1019529   4.969   5.048   4.993
    1HEX    O1119530   5.071   5.090   4.942
    1HEX    C1219531   4.930   5.107   5.126
    1HEX    C1319532   4.945   5.012   5.243
    1HEX    C1519533   4.696   4.804   4.812
    1HEX    O1619534   4.676   4.771   4.941
    1HEX    C1719535   4.604   4.668   4.960
    1HEX    O1819536   4.595   4.567   4.889
    1HEX    C1919537   4.528   4.690   5.083
    1HEX    C1A19538   4.453   4.819   5.107
    1HEX    H1D19539   4.931   4.638   4.131
    1HEX    H1E19540   5.094   4.637   4.183
    1HEX    H1F19541   4.962   4.607   4.416
    1HEX    H1G19542   5.018   4.473   4.311
    1HEX    H1H19543   4.569   4.525   4.269
    1HEX    H1I19544   4.550   4.697   4.240
    1HEX    H1J19545   4.622   4.849   4.449
    1HEX    H1K19546   4.515   4.787   4.578
    1HEX    H1M19547   4.371   5.140   4.584
    1HEX    H1N19548   4.487   5.111   4.462
    1HEX    H1O19549   4.597   4.945   4.634
    1HEX    H1P19550   4.504   5.023   4.746
    1HEX    H1R19551   4.335   4.650   4.407
    1HEX    H1S19552   4.375   4.616   4.569
    1HEX    H1T19553   4.379   4.250   4.205
    1HEX    H1U19554   4.228   4.251   4.298
    1HEX    H1V19555   4.386   4.089   4.406
    1HEX    H1W19556   4.361   4.229   4.508
    1HEX    H1Y19557   4.656   4.498   4.515
    1HEX    H1Z19558   4.600   4.576   4.653
    1HEX    H2019559   4.774   4.837   4.582
    1HEX    H2119560   4.933   4.766   4.587
    1HEX    H2219561   4.931   4.582   4.761
    1HEX    H2319562   4.827   4.603   4.868
    1HEX    H2419563   5.295   4.624   5.041
    1HEX    H2519564   5.170   4.622   5.164
    1HEX    H2619565   5.222   4.846   5.179
    1HEX    H2719566   5.101   4.856   5.054
    1HEX    H2919567   4.897   4.974   4.727
    1HEX    H2A19568   5.010   4.897   4.803
    1HEX    H2B19569   4.833   5.151   5.117
    1HEX    H2C19570   4.999   5.190   5.140
    1HEX    H2D19571   4.949   5.066   5.336
    1HEX    H2E19572   5.035   4.952   5.236
    1HEX    H2G19573   4.623   4.760   4.748
    1HEX    H2H19574   4.676   4.909   4.817
    1HEX    H2I19575   4.609   4.721   5.134
    1HEX    H2J19576   4.499   4.599   5.132
    1HEX    H2K19577   4.525   4.888   5.145
    1HEX    H2M19578   4.383   4.810   5.189
    1STR    S0019579   4.998   4.824   4.287
    1STR    S0E19580   4.699   5.110   4.625
    1STR    S0M19581   4.578   4.228   4.401
    1STR    S0X19582   5.314   4.900   4.971
    1STR    S1419583   4.799   4.910   5.244
    1STR    S1B19584   4.383   4.897   4.963
   6.34000   6.34000   6.34000
