My System
 7940
    1STR   BCK1    1   0.728   4.237   4.538
    1STR    O03    2   0.753   4.354   4.568
    1STR    N04    3   0.857   4.248   4.503
    1STR    C05    4   0.956   4.168   4.438
    1STR    C06    5   1.096   4.191   4.464
    1STR    C07    6   1.203   4.119   4.399
    1STR    N08    7   1.342   4.145   4.422
    1STR    C09    8   1.453   4.072   4.388
    1STR    O0A    9   1.446   3.961   4.336
    1STR    O0B   10   1.578   4.132   4.414
    1STR    C0C   11   1.703   4.070   4.367
    1STR    C0D   12   1.717   4.097   4.216
    1STR    C0E   13   1.837   4.112   4.440
    1STR    O0F   14   1.959   4.048   4.388
    1STR    C0G   15   2.087   4.071   4.456
    1STR    C0H   16   2.086   3.991   4.587
    1STR    C0I   17   2.215   4.032   4.372
    1STR    O0J   18   2.344   4.062   4.435
    1STR    C0K   19   2.467   4.019   4.369
    1STR    C0M   20   2.485   4.092   4.235
    1STR    C0N   21   2.598   4.043   4.453
    1STR    O0O   22   2.716   3.981   4.394
    1STR    C0P   23   2.837   4.046   4.382
    1STR    O0Q   24   2.856   4.166   4.403
    1STR    N0R   25   2.933   3.959   4.347
    1STR    C0S   26   3.072   3.968   4.322
    1STR    C0T   27   3.145   3.849   4.343
    1STR    C0U   28   3.284   3.843   4.322
    1STR    C0V   29   3.355   3.956   4.278
    1STR    C0W   30   3.507   3.943   4.272
    1STR    C0X   31   3.286   4.077   4.249
    1STR    N0Y   32   3.357   4.193   4.215
    1STR   BCK2   33   3.459   4.222   4.131
    1STR    O10   34   3.524   4.324   4.150
    1STR    C13   35   3.145   4.082   4.276
    1STR    C14   36   1.161   4.023   4.304
    1STR    C15   37   1.026   4.000   4.275
    1STR    C16   38   0.923   4.072   4.339
    1STR    C17   39   0.782   4.046   4.286
    1STR    H1B   40   0.877   4.342   4.533
    1STR    H1C   41   1.122   4.267   4.537
    1STR    H1D   42   1.366   4.230   4.469
    1STR    H1E   43   1.693   3.962   4.381
    1STR    H1F   44   1.729   4.203   4.195
    1STR    H1G   45   1.803   4.045   4.175
    1STR    H1H   46   1.629   4.061   4.161
    1STR    H1I   47   1.826   4.088   4.545
    1STR    H1J   48   1.849   4.220   4.434
    1STR    H1K   49   2.095   4.178   4.478
    1STR    H1M   50   2.071   3.885   4.568
    1STR    H1N   51   2.009   4.024   4.656
    1STR    H1O   52   2.182   4.001   4.639
    1STR    H1P   53   2.211   3.925   4.349
    1STR    H1Q   54   2.210   4.083   4.276
    1STR    H1R   55   2.459   3.912   4.350
    1STR    H1S   56   2.579   4.064   4.188
    1STR    H1T   57   2.488   4.200   4.250
    1STR    H1U   58   2.406   4.070   4.164
    1STR    H1V   59   2.585   3.999   4.552
    1STR    H1W   60   2.614   4.149   4.470
    1STR    H1X   61   2.894   3.867   4.343
    1STR    H1Y   62   3.096   3.760   4.378
    1STR    H1Z   63   3.336   3.751   4.342
    1STR    H20   64   3.538   3.911   4.172
    1STR    H21   65   3.556   4.037   4.296
    1STR    H22   66   3.544   3.869   4.342
    1STR    H23   67   3.333   4.275   4.268
    1STR    H27   68   3.091   4.175   4.261
    1STR    H28   69   1.233   3.966   4.247
    1STR    H29   70   1.001   3.928   4.199
    1STR    H2A   71   0.703   4.102   4.335
    1STR    H2B   72   0.759   3.940   4.292
    1STR    H2C   73   0.778   4.075   4.181
    1STR   BCK1   74   0.740   4.538   8.595
    1STR    O03   75   0.689   4.463   8.678
    1STR    N04   76   0.877   4.549   8.601
    1STR    C05   77   0.992   4.619   8.550
    1STR    C06   78   1.126   4.565   8.566
    1STR    C07   79   1.249   4.634   8.529
    1STR    N08   80   1.384   4.580   8.544
    1STR    C09   81   1.508   4.640   8.528
    1STR    O0A   82   1.520   4.759   8.503
    1STR    O0B   83   1.627   4.559   8.543
    1STR    C0C   84   1.764   4.619   8.539
    1STR    C0D   85   1.785   4.695   8.671
    1STR    C0E   86   1.894   4.528   8.511
    1STR    O0F   87   2.028   4.595   8.514
    1STR    C0G   88   2.154   4.522   8.482
    1STR    C0H   89   2.151   4.490   8.332
    1STR    C0I   90   2.294   4.596   8.517
    1STR    O0J   91   2.423   4.523   8.504
    1STR    C0K   92   2.553   4.591   8.529
    1STR    C0M   93   2.553   4.648   8.672
    1STR    C0N   94   2.691   4.508   8.512
    1STR    O0O   95   2.817   4.582   8.537
    1STR    C0P   96   2.943   4.519   8.556
    1STR    O0Q   97   2.959   4.398   8.563
    1STR    N0R   98   3.045   4.609   8.560
    1STR    C0S   99   3.189   4.607   8.566
    1STR    C0T  100   3.251   4.700   8.480
    1STR    C0U  101   3.389   4.726   8.487
    1STR    C0V  102   3.473   4.662   8.580
    1STR    C0W  103   3.615   4.713   8.587
    1STR    C0X  104   3.419   4.562   8.666
    1STR    N0Y  105   3.493   4.500   8.772
    1STR   BCK2  106   3.619   4.479   8.822
    1STR    O10  107   3.625   4.437   8.937
    1STR    C13  108   3.276   4.536   8.656
    1STR    C14  109   1.229   4.762   8.474
    1STR    C15  110   1.101   4.818   8.459
    1STR    C16  111   0.984   4.750   8.496
    1STR    C17  112   0.853   4.826   8.481
    1STR    H1B  113   0.903   4.482   8.672
    1STR    H1C  114   1.135   4.466   8.609
    1STR    H1D  115   1.392   4.483   8.570
    1STR    H1E  116   1.761   4.693   8.458
    1STR    H1F  117   1.788   4.627   8.756
    1STR    H1G  118   1.879   4.750   8.668
    1STR    H1H  119   1.706   4.767   8.689
    1STR    H1I  120   1.881   4.481   8.413
    1STR    H1J  121   1.896   4.447   8.583
    1STR    H1K  122   2.153   4.429   8.539
    1STR    H1M  123   2.141   4.580   8.272
    1STR    H1N  124   2.070   4.423   8.306
    1STR    H1O  125   2.244   4.441   8.301
    1STR    H1P  126   2.300   4.687   8.457
    1STR    H1Q  127   2.285   4.630   8.620
    1STR    H1R  128   2.559   4.675   8.459
    1STR    H1S  129   2.648   4.695   8.695
    1STR    H1T  130   2.536   4.569   8.745
    1STR    H1U  131   2.476   4.724   8.686
    1STR    H1V  132   2.697   4.469   8.410
    1STR    H1W  133   2.690   4.420   8.577
    1STR    H1X  134   3.007   4.701   8.547
    1STR    H1Y  135   3.193   4.757   8.409
    1STR    H1Z  136   3.431   4.801   8.421
    1STR    H20  137   3.644   4.732   8.691
    1STR    H21  138   3.683   4.641   8.541
    1STR    H22  139   3.629   4.807   8.534
    1STR    H23  140   3.433   4.457   8.839
    1STR    H27  141   3.231   4.464   8.722
    1STR    H28  142   1.311   4.824   8.442
    1STR    H29  143   1.094   4.918   8.418
    1STR    H2A  144   0.800   4.789   8.393
    1STR    H2B  145   0.870   4.932   8.465
    1STR    H2C  146   0.792   4.816   8.570
    1STR   BCK1  147   0.894  12.981  13.159
    1STR    O03  148   0.879  12.860  13.168
    1STR    N04  149   1.005  13.047  13.197
    1STR    C05  150   1.105  13.004  13.285
    1STR    C06  151   1.243  13.022  13.256
    1STR    C07  152   1.346  12.987  13.350
    1STR    N08  153   1.483  13.011  13.322
    1STR    C09  154   1.593  12.984  13.395
    1STR    O0A  155   1.592  12.928  13.505
    1STR    O0B  156   1.709  13.026  13.336
    1STR    C0C  157   1.835  12.994  13.398
    1STR    C0D  158   1.874  12.849  13.362
    1STR    C0E  159   1.949  13.093  13.360
    1STR    O0F  160   2.070  13.058  13.428
    1STR    C0G  161   2.184  13.141  13.404
    1STR    C0H  162   2.171  13.269  13.488
    1STR    C0I  163   2.314  13.064  13.441
    1STR    O0J  164   2.431  13.135  13.398
    1STR    C0K  165   2.558  13.073  13.424
    1STR    C0M  166   2.577  12.950  13.333
    1STR    C0N  167   2.671  13.175  13.397
    1STR    O0O  168   2.800  13.124  13.435
    1STR    C0P  169   2.899  13.105  13.344
    1STR    O0Q  170   2.888  13.118  13.223
    1STR    N0R  171   3.011  13.072  13.409
    1STR    C0S  172   3.141  13.040  13.367
    1STR    C0T  173   3.236  13.029  13.470
    1STR    C0U  174   3.368  12.990  13.442
    1STR    C0V  175   3.408  12.959  13.311
    1STR    C0W  176   3.549  12.905  13.292
    1STR    C0X  177   3.315  12.971  13.203
    1STR    N0Y  178   3.348  12.926  13.074
    1STR   BCK2  179   3.459  12.951  13.001
    1STR    O10  180   3.535  13.044  13.023
    1STR    C13  181   3.182  13.013  13.234
    1STR    C14  182   1.303  12.932  13.473
    1STR    C15  183   1.167  12.917  13.505
    1STR    C16  184   1.068  12.956  13.414
    1STR    C17  185   0.923  12.951  13.460
    1STR    H1B  186   1.008  13.143  13.167
    1STR    H1C  187   1.271  13.063  13.161
    1STR    H1D  188   1.505  13.054  13.234
    1STR    H1E  189   1.824  13.001  13.506
    1STR    H1F  190   1.887  12.837  13.255
    1STR    H1G  191   1.967  12.821  13.411
    1STR    H1H  192   1.797  12.779  13.395
    1STR    H1I  193   1.918  13.194  13.387
    1STR    H1J  194   1.964  13.092  13.252
    1STR    H1K  195   2.190  13.167  13.298
    1STR    H1M  196   2.159  13.246  13.594
    1STR    H1N  197   2.086  13.330  13.458
    1STR    H1O  198   2.260  13.331  13.479
    1STR    H1P  199   2.317  13.046  13.548
    1STR    H1Q  200   2.309  12.966  13.393
    1STR    H1R  201   2.563  13.043  13.528
    1STR    H1S  202   2.676  12.907  13.347
    1STR    H1T  203   2.568  12.978  13.228
    1STR    H1U  204   2.505  12.871  13.353
    1STR    H1V  205   2.654  13.264  13.458
    1STR    H1W  206   2.670  13.209  13.294
    1STR    H1X  207   2.993  13.071  13.508
    1STR    H1Y  208   3.210  13.048  13.573
    1STR    H1Z  209   3.438  12.980  13.524
    1STR    H20  210   3.553  12.827  13.217
    1STR    H21  211   3.616  12.986  13.262
    1STR    H22  212   3.588  12.862  13.384
    1STR    H23  213   3.281  12.866  13.029
    1STR    H27  214   3.110  13.021  13.154
    1STR    H28  215   1.372  12.901  13.550
    1STR    H29  216   1.140  12.878  13.601
    1STR    H2A  217   0.868  13.039  13.427
    1STR    H2B  218   0.917  12.948  13.569
    1STR    H2C  219   0.873  12.862  13.422
    1STR   BCK1  220   5.268   4.256   4.343
    1STR    O03  221   5.225   4.355   4.285
    1STR    N04  222   5.392   4.205   4.329
    1STR    C05  223   5.487   4.223   4.226
    1STR    C06  224   5.628   4.227   4.254
    1STR    C07  225   5.728   4.228   4.151
    1STR    N08  226   5.867   4.227   4.181
    1STR    C09  227   5.974   4.199   4.101
    1STR    O0A  228   5.964   4.164   3.984
    1STR    O0B  229   6.098   4.212   4.164
    1STR    C0C  230   6.222   4.198   4.088
    1STR    C0D  231   6.245   4.328   4.009
    1STR    C0E  232   6.348   4.163   4.174
    1STR    O0F  233   6.473   4.156   4.099
    1STR    C0G  234   6.594   4.115   4.169
    1STR    C0H  235   6.588   3.963   4.191
    1STR    C0I  236   6.725   4.154   4.090
    1STR    O0J  237   6.852   4.142   4.163
    1STR    C0K  238   6.973   4.184   4.093
    1STR    C0M  239   6.966   4.335   4.064
    1STR    C0N  240   7.110   4.155   4.166
    1STR    O0O  241   7.222   4.195   4.083
    1STR    C0P  242   7.353   4.199   4.127
    1STR    O0Q  243   7.390   4.173   4.240
    1STR    N0R  244   7.433   4.230   4.023
    1STR    C0S  245   7.572   4.222   3.999
    1STR    C0T  246   7.610   4.121   3.909
    1STR    C0U  247   7.736   4.123   3.847
    1STR    C0V  248   7.828   4.226   3.872
    1STR    C0W  249   7.950   4.234   3.782
    1STR    C0X  250   7.799   4.324   3.972
    1STR    N0Y  251   7.892   4.429   3.992
    1STR   BCK2  252   8.026   4.417   4.005
    1STR    O10  253   8.080   4.313   4.042
    1STR    C13  254   7.669   4.322   4.033
    1STR    C14  255   5.681   4.231   4.018
    1STR    C15  256   5.544   4.226   3.988
    1STR    C16  257   5.447   4.220   4.089
    1STR    C17  258   5.302   4.200   4.046
    1STR    H1B  259   5.415   4.138   4.400
    1STR    H1C  260   5.659   4.227   4.357
    1STR    H1D  261   5.895   4.249   4.275
    1STR    H1E  262   6.208   4.117   4.016
    1STR    H1F  263   6.258   4.414   4.075
    1STR    H1G  264   6.335   4.320   3.947
    1STR    H1H  265   6.162   4.350   3.942
    1STR    H1I  266   6.329   4.067   4.223
    1STR    H1J  267   6.359   4.236   4.254
    1STR    H1K  268   6.598   4.166   4.266
    1STR    H1M  269   6.574   3.910   4.097
    1STR    H1N  270   6.506   3.934   4.257
    1STR    H1O  271   6.680   3.927   4.236
    1STR    H1P  272   6.731   4.095   3.999
    1STR    H1Q  273   6.711   4.258   4.059
    1STR    H1R  274   6.977   4.129   3.998
    1STR    H1S  275   7.060   4.372   4.024
    1STR    H1T  276   6.946   4.390   4.156
    1STR    H1U  277   6.889   4.360   3.991
    1STR    H1V  278   7.121   4.049   4.189
    1STR    H1W  279   7.116   4.207   4.262
    1STR    H1X  280   7.377   4.244   3.941
    1STR    H1Y  281   7.541   4.044   3.882
    1STR    H1Z  282   7.759   4.048   3.773
    1STR    H20  283   7.970   4.337   3.752
    1STR    H21  284   8.038   4.195   3.832
    1STR    H22  285   7.936   4.178   3.690
    1STR    H23  286   7.858   4.524   3.988
    1STR    H27  287   7.642   4.400   4.103
    1STR    H28  288   5.748   4.235   3.934
    1STR    H29  289   5.513   4.225   3.885
    1STR    H2A  290   5.249   4.132   4.112
    1STR    H2B  291   5.296   4.158   3.946
    1STR    H2C  292   5.250   4.296   4.044
    1STR   BCK1  293   5.286   8.718   4.453
    1STR    O03  294   5.261   8.736   4.571
    1STR    N04  295   5.395   8.768   4.389
    1STR    C05  296   5.489   8.863   4.434
    1STR    C06  297   5.630   8.846   4.414
    1STR    C07  298   5.728   8.944   4.453
    1STR    N08  299   5.868   8.926   4.429
    1STR    C09  300   5.976   9.004   4.462
    1STR    O0A  301   5.967   9.108   4.525
    1STR    O0B  302   6.099   8.955   4.418
    1STR    C0C  303   6.225   9.020   4.457
    1STR    C0D  304   6.256   8.980   4.602
    1STR    C0E  305   6.349   8.990   4.363
    1STR    O0F  306   6.478   9.046   4.405
    1STR    C0G  307   6.592   9.035   4.314
    1STR    C0H  308   6.572   9.135   4.200
    1STR    C0I  309   6.735   9.058   4.380
    1STR    O0J  310   6.850   9.027   4.294
    1STR    C0K  311   6.986   9.055   4.341
    1STR    C0M  312   7.012   8.979   4.472
    1STR    C0N  313   7.101   9.020   4.236
    1STR    O0O  314   7.235   9.066   4.271
    1STR    C0P  315   7.352   9.009   4.220
    1STR    O0Q  316   7.356   8.910   4.148
    1STR    N0R  317   7.461   9.075   4.265
    1STR    C0S  318   7.601   9.054   4.270
    1STR    C0T  319   7.659   9.104   4.388
    1STR    C0U  320   7.796   9.093   4.412
    1STR    C0V  321   7.884   9.036   4.319
    1STR    C0W  322   8.028   9.022   4.367
    1STR    C0X  323   7.835   8.991   4.192
    1STR    N0Y  324   7.919   8.940   4.088
    1STR   BCK2  325   8.050   8.952   4.053
    1STR    O10  326   8.134   9.021   4.110
    1STR    C13  327   7.691   8.998   4.172
    1STR    C14  328   5.677   9.061   4.515
    1STR    C15  329   5.539   9.081   4.532
    1STR    C16  330   5.445   8.986   4.490
    1STR    C17  331   5.298   9.024   4.500
    1STR    H1B  332   5.406   8.733   4.295
    1STR    H1C  333   5.664   8.754   4.368
    1STR    H1D  334   5.896   8.843   4.381
    1STR    H1E  335   6.209   9.128   4.454
    1STR    H1F  336   6.271   8.873   4.612
    1STR    H1G  337   6.347   9.030   4.637
    1STR    H1H  338   6.175   9.010   4.669
    1STR    H1I  339   6.323   9.026   4.264
    1STR    H1J  340   6.360   8.882   4.353
    1STR    H1K  341   6.593   8.933   4.273
    1STR    H1M  342   6.559   9.237   4.239
    1STR    H1N  343   6.485   9.112   4.139
    1STR    H1O  344   6.658   9.136   4.133
    1STR    H1P  345   6.742   9.162   4.414
    1STR    H1Q  346   6.739   8.997   4.470
    1STR    H1R  347   6.992   9.163   4.361
    1STR    H1S  348   7.116   8.991   4.505
    1STR    H1T  349   6.994   8.872   4.459
    1STR    H1U  350   6.949   9.014   4.554
    1STR    H1V  351   7.076   9.065   4.140
    1STR    H1W  352   7.104   8.912   4.219
    1STR    H1X  353   7.429   9.153   4.318
    1STR    H1Y  354   7.598   9.149   4.464
    1STR    H1Z  355   7.834   9.129   4.507
    1STR    H20  356   8.069   8.924   4.342
    1STR    H21  357   8.090   9.101   4.326
    1STR    H22  358   8.035   9.033   4.475
    1STR    H23  359   7.870   8.886   4.018
    1STR    H27  360   7.648   8.962   4.079
    1STR    H28  361   5.741   9.140   4.549
    1STR    H29  362   5.505   9.174   4.577
    1STR    H2A  363   5.240   8.985   4.417
    1STR    H2B  364   5.284   9.132   4.500
    1STR    H2C  365   5.255   8.986   4.593
    1STR   BCK1  366   9.601   4.295   4.438
    1STR    O03  367   9.560   4.405   4.473
    1STR    N04  368   9.731   4.267   4.459
    1STR    C05  369   9.822   4.159   4.456
    1STR    C06  370   9.961   4.191   4.449
    1STR    C07  371  10.065   4.093   4.460
    1STR    N08  372  10.202   4.131   4.462
    1STR    C09  373  10.312   4.056   4.485
    1STR    O0A  374  10.311   3.935   4.507
    1STR    O0B  375  10.429   4.128   4.480
    1STR    C0C  376  10.556   4.059   4.490
    1STR    C0D  377  10.591   4.000   4.352
    1STR    C0E  378  10.671   4.149   4.543
    1STR    O0F  379  10.795   4.075   4.552
    1STR    C0G  380  10.909   4.145   4.606
    1STR    C0H  381  10.895   4.153   4.759
    1STR    C0I  382  11.041   4.073   4.566
    1STR    O0J  383  11.157   4.152   4.598
    1STR    C0K  384  11.286   4.096   4.569
    1STR    C0M  385  11.305   4.084   4.417
    1STR    C0N  386  11.398   4.186   4.628
    1STR    O0O  387  11.528   4.127   4.610
    1STR    C0P  388  11.636   4.199   4.570
    1STR    O0Q  389  11.634   4.317   4.535
    1STR    N0R  390  11.744   4.121   4.573
    1STR    C0S  391  11.879   4.139   4.538
    1STR    C0T  392  11.963   4.029   4.564
    1STR    C0U  393  12.098   4.029   4.524
    1STR    C0V  394  12.153   4.140   4.457
    1STR    C0W  395  12.295   4.126   4.404
    1STR    C0X  396  12.074   4.255   4.434
    1STR    N0Y  397  12.126   4.362   4.360
    1STR   BCK2  398  12.242   4.427   4.379
    1STR    O10  399  12.308   4.424   4.483
    1STR    C13  400  11.936   4.253   4.474
    1STR    C14  401  10.024   3.959   4.471
    1STR    C15  402   9.888   3.925   4.478
    1STR    C16  403   9.787   4.022   4.475
    1STR    C17  404   9.648   3.971   4.503
    1STR    H1B  405   9.773   4.354   4.488
    1STR    H1C  406   9.990   4.295   4.438
    1STR    H1D  407  10.224   4.228   4.447
    1STR    H1E  408  10.546   3.977   4.561
    1STR    H1F  409  10.602   4.079   4.277
    1STR    H1G  410  10.684   3.944   4.356
    1STR    H1H  411  10.513   3.932   4.318
    1STR    H1I  412  10.643   4.188   4.640
    1STR    H1J  413  10.685   4.235   4.477
    1STR    H1K  414  10.912   4.245   4.563
    1STR    H1M  415  10.883   4.054   4.803
    1STR    H1N  416  10.810   4.214   4.789
    1STR    H1O  417  10.984   4.198   4.803
    1STR    H1P  418  11.046   3.975   4.616
    1STR    H1Q  419  11.037   4.053   4.459
    1STR    H1R  420  11.293   3.997   4.615
    1STR    H1S  421  11.406   4.049   4.393
    1STR    H1T  422  11.292   4.180   4.368
    1STR    H1U  423  11.237   4.012   4.371
    1STR    H1V  424  11.383   4.199   4.735
    1STR    H1W  425  11.394   4.286   4.585
    1STR    H1X  426  11.719   4.031   4.610
    1STR    H1Y  427  11.925   3.941   4.613
    1STR    H1Z  428  12.159   3.942   4.543
    1STR    H20  429  12.306   4.173   4.307
    1STR    H21  430  12.366   4.173   4.473
    1STR    H22  431  12.324   4.022   4.392
    1STR    H23  432  12.074   4.392   4.280
    1STR    H27  433  11.874   4.339   4.454
    1STR    H28  434  10.094   3.877   4.477
    1STR    H29  435   9.863   3.820   4.491
    1STR    H2A  436   9.592   4.041   4.565
    1STR    H2B  437   9.650   3.877   4.557
    1STR    H2C  438   9.596   3.953   4.409
    1STR   BCK1  439   9.388   4.170   8.424
    1STR    O03  440   9.347   4.104   8.518
    1STR    N04  441   9.519   4.211   8.436
    1STR    C05  442   9.621   4.300   8.389
    1STR    C06  443   9.762   4.266   8.406
    1STR    C07  444   9.873   4.357   8.383
    1STR    N08  445  10.014   4.325   8.406
    1STR    C09  446  10.129   4.390   8.369
    1STR    O0A  447  10.127   4.489   8.295
    1STR    O0B  448  10.255   4.341   8.418
    1STR    C0C  449  10.385   4.410   8.392
    1STR    C0D  450  10.388   4.540   8.473
    1STR    C0E  451  10.524   4.332   8.416
    1STR    O0F  452  10.651   4.404   8.387
    1STR    C0G  453  10.783   4.336   8.403
    1STR    C0H  454  10.793   4.227   8.296
    1STR    C0I  455  10.915   4.428   8.394
    1STR    O0J  456  11.046   4.361   8.415
    1STR    C0K  457  11.172   4.436   8.395
    1STR    C0M  458  11.181   4.552   8.495
    1STR    C0N  459  11.308   4.353   8.408
    1STR    O0O  460  11.428   4.426   8.369
    1STR    C0P  461  11.555   4.403   8.423
    1STR    O0Q  462  11.578   4.334   8.522
    1STR    N0R  463  11.651   4.464   8.350
    1STR    C0S  464  11.792   4.476   8.352
    1STR    C0T  465  11.850   4.497   8.225
    1STR    C0U  466  11.987   4.527   8.211
    1STR    C0V  467  12.071   4.540   8.322
    1STR    C0W  468  12.210   4.592   8.291
    1STR    C0X  469  12.021   4.513   8.453
    1STR    N0Y  470  12.094   4.532   8.573
    1STR   BCK2  471  12.219   4.548   8.622
    1STR    O10  472  12.230   4.587   8.738
    1STR    C13  473  11.881   4.480   8.465
    1STR    C14  474   9.835   4.487   8.343
    1STR    C15  475   9.700   4.523   8.326
    1STR    C16  476   9.594   4.434   8.350
    1STR    C17  477   9.455   4.494   8.344
    1STR    H1B  478   9.554   4.157   8.514
    1STR    H1C  479   9.785   4.166   8.439
    1STR    H1D  480  10.033   4.243   8.460
    1STR    H1E  481  10.383   4.437   8.286
    1STR    H1F  482  10.390   4.521   8.581
    1STR    H1G  483  10.477   4.598   8.449
    1STR    H1H  484  10.302   4.604   8.452
    1STR    H1I  485  10.520   4.241   8.356
    1STR    H1J  486  10.527   4.299   8.520
    1STR    H1K  487  10.784   4.290   8.502
    1STR    H1M  488  10.784   4.269   8.196
    1STR    H1N  489  10.718   4.149   8.308
    1STR    H1O  490  10.891   4.178   8.301
    1STR    H1P  491  10.917   4.477   8.297
    1STR    H1Q  492  10.905   4.507   8.468
    1STR    H1R  493  11.170   4.476   8.294
    1STR    H1S  494  11.275   4.606   8.482
    1STR    H1T  495  11.180   4.515   8.598
    1STR    H1U  496  11.101   4.624   8.484
    1STR    H1V  497  11.303   4.265   8.344
    1STR    H1W  498  11.320   4.315   8.510
    1STR    H1X  499  11.606   4.508   8.272
    1STR    H1Y  500  11.791   4.493   8.135
    1STR    H1Z  501  12.026   4.546   8.112
    1STR    H20  502  12.238   4.671   8.361
    1STR    H21  503  12.282   4.510   8.293
    1STR    H22  504  12.217   4.637   8.192
    1STR    H23  505  12.034   4.540   8.654
    1STR    H27  506  11.838   4.463   8.562
    1STR    H28  507   9.909   4.564   8.327
    1STR    H29  508   9.679   4.626   8.299
    1STR    H2A  509   9.375   4.422   8.344
    1STR    H2B  510   9.443   4.554   8.253
    1STR    H2C  511   9.439   4.559   8.430
    1STR   BCK1  512  13.777   4.221  12.976
    1STR    O03  513  13.729   4.180  13.080
    1STR    N04  514  13.904   4.276  12.968
    1STR    C05  515  14.001   4.314  13.070
    1STR    C06  516  14.147   4.311  13.052
    1STR    C07  517  14.245   4.351  13.153
    1STR    N08  518  14.390   4.358  13.136
    1STR    C09  519  14.492   4.390  13.225
    1STR    O0A  520  14.471   4.411  13.344
    1STR    O0B  521  14.627   4.398  13.176
    1STR    C0C  522  14.744   4.421  13.268
    1STR    C0D  523  14.769   4.292  13.347
    1STR    C0E  524  14.885   4.474  13.211
    1STR    O0F  525  15.005   4.471  13.300
    1STR    C0G  526  15.133   4.536  13.260
    1STR    C0H  527  15.116   4.687  13.281
    1STR    C0I  528  15.268   4.489  13.334
    1STR    O0J  529  15.397   4.541  13.283
    1STR    C0K  530  15.524   4.513  13.354
    1STR    C0M  531  15.545   4.361  13.366
    1STR    C0N  532  15.658   4.573  13.291
    1STR    O0O  533  15.780   4.550  13.370
    1STR    C0P  534  15.908   4.534  13.314
    1STR    O0Q  535  15.932   4.525  13.194
    1STR    N0R  536  16.003   4.531  13.411
    1STR    C0S  537  16.144   4.513  13.422
    1STR    C0T  538  16.195   4.542  13.550
    1STR    C0U  539  16.330   4.523  13.582
    1STR    C0V  540  16.423   4.476  13.487
    1STR    C0W  541  16.565   4.462  13.536
    1STR    C0X  542  16.380   4.448  13.354
    1STR    N0Y  543  16.469   4.417  13.247
    1STR   BCK2  544  16.594   4.371  13.219
    1STR    O10  545  16.634   4.385  13.104
    1STR    C13  546  16.239   4.468  13.324
    1STR    C14  547  14.187   4.389  13.276
    1STR    C15  548  14.049   4.400  13.295
    1STR    C16  549  13.957   4.371  13.193
    1STR    C17  550  13.814   4.413  13.221
    1STR    H1B  551  13.933   4.290  12.873
    1STR    H1C  552  14.184   4.276  12.957
    1STR    H1D  553  14.426   4.339  13.044
    1STR    H1E  554  14.711   4.496  13.340
    1STR    H1F  555  14.804   4.211  13.283
    1STR    H1G  556  14.845   4.308  13.424
    1STR    H1H  557  14.679   4.258  13.399
    1STR    H1I  558  14.870   4.577  13.176
    1STR    H1J  559  14.910   4.417  13.121
    1STR    H1K  560  15.147   4.516  13.154
    1STR    H1M  561  15.098   4.710  13.386
    1STR    H1N  562  15.035   4.729  13.223
    1STR    H1O  563  15.207   4.740  13.253
    1STR    H1P  564  15.260   4.515  13.440
    1STR    H1Q  565  15.271   4.381  13.331
    1STR    H1R  566  15.514   4.555  13.454
    1STR    H1S  567  15.639   4.340  13.417
    1STR    H1T  568  15.551   4.315  13.268
    1STR    H1U  569  15.467   4.313  13.424
    1STR    H1V  570  15.648   4.682  13.281
    1STR    H1W  571  15.673   4.536  13.190
    1STR    H1X  572  15.957   4.548  13.498
    1STR    H1Y  573  16.131   4.580  13.628
    1STR    H1Z  574  16.364   4.546  13.682
    1STR    H20  575  16.588   4.356  13.549
    1STR    H21  576  16.635   4.508  13.466
    1STR    H22  577  16.581   4.509  13.633
    1STR    H23  578  16.429   4.439  13.158
    1STR    H27  579  16.203   4.448  13.224
    1STR    H28  580  14.247   4.417  13.362
    1STR    H29  581  14.013   4.435  13.390
    1STR    H2A  582  13.758   4.434  13.130
    1STR    H2B  583  13.813   4.504  13.280
    1STR    H2C  584  13.764   4.336  13.279
    1STR   BCK1  585   0.130   0.826   4.511
    1STR    O03  586   0.086   0.813   4.625
    1STR    N04  587   0.151   0.955   4.472
    1STR    C05  588   0.205   1.041   4.372
    1STR    C06  589   0.190   1.183   4.393
    1STR    C07  590   0.245   1.284   4.306
    1STR    N08  591   0.229   1.424   4.331
    1STR    C09  592   0.292   1.532   4.277
    1STR    O0A  593   0.383   1.522   4.195
    1STR    O0B  594   0.245   1.656   4.321
    1STR    C0C  595   0.294   1.781   4.261
    1STR    C0D  596   0.227   1.799   4.123
    1STR    C0E  597   0.272   1.912   4.348
    1STR    O0F  598   0.317   2.036   4.285
    1STR    C0G  599   0.310   2.160   4.361
    1STR    C0H  600   0.422   2.159   4.466
    1STR    C0I  601   0.321   2.290   4.271
    1STR    O0J  602   0.294   2.417   4.339
    1STR    C0K  603   0.305   2.542   4.262
    1STR    C0M  604   0.202   2.542   4.148
    1STR    C0N  605   0.284   2.673   4.347
    1STR    O0O  606   0.306   2.795   4.270
    1STR    C0P  607   0.231   2.910   4.286
    1STR    O0Q  608   0.128   2.919   4.353
    1STR    N0R  609   0.286   3.014   4.220
    1STR    C0S  610   0.255   3.151   4.202
    1STR    C0T  611   0.366   3.235   4.176
    1STR    C0U  612   0.349   3.372   4.152
    1STR    C0V  613   0.221   3.432   4.153
    1STR    C0W  614   0.218   3.583   4.134
    1STR    C0X  615   0.106   3.353   4.176
    1STR    N0Y  616  17.414   3.405   4.190
    1STR   BCK2  617  17.333   3.507   4.151
    1STR    O10  618  17.223   3.513   4.204
    1STR    C13  619   0.126   3.212   4.203
    1STR    C14  620   0.314   1.236   4.193
    1STR    C15  621   0.330   1.098   4.170
    1STR    C16  622   0.277   1.001   4.257
    1STR    C17  623   0.305   0.856   4.222
    1STR    H1B  624   0.113   1.008   4.549
    1STR    H1C  625   0.135   1.217   4.480
    1STR    H1D  626   0.161   1.451   4.400
    1STR    H1E  627   0.401   1.770   4.246
    1STR    H1F  628   0.119   1.809   4.132
    1STR    H1G  629   0.265   1.887   4.073
    1STR    H1H  630   0.248   1.713   4.058
    1STR    H1I  631   0.324   1.897   4.442
    1STR    H1J  632   0.166   1.921   4.372
    1STR    H1K  633   0.213   2.164   4.411
    1STR    H1M  634   0.520   2.146   4.418
    1STR    H1N  635   0.410   2.080   4.539
    1STR    H1O  636   0.425   2.254   4.520
    1STR    H1P  637   0.420   2.294   4.226
    1STR    H1Q  638   0.251   2.278   4.189
    1STR    H1R  639   0.406   2.546   4.220
    1STR    H1S  640   0.205   2.637   4.095
    1STR    H1T  641   0.101   2.530   4.187
    1STR    H1U  642   0.221   2.465   4.074
    1STR    H1V  643   0.354   2.675   4.431
    1STR    H1W  644   0.184   2.675   4.391
    1STR    H1X  645   0.372   2.983   4.179
    1STR    H1Y  646   0.466   3.195   4.176
    1STR    H1Z  647   0.436   3.433   4.135
    1STR    H20  648   0.191   3.606   4.031
    1STR    H21  649   0.146   3.629   4.202
    1STR    H22  650   0.314   3.629   4.153
    1STR    H23  651  17.358   3.348   4.251
    1STR    H27  652   0.041   3.149   4.225
    1STR    H28  653   0.358   1.303   4.121
    1STR    H29  654   0.385   1.067   4.082
    1STR    H2A  655   0.357   0.807   4.304
    1STR    H2B  656   0.368   0.847   4.134
    1STR    H2C  657   0.211   0.805   4.200
    1STR   BCK1  658   0.038   5.160  17.167
    1STR    O03  659   0.153   5.145  17.129
    1STR    N04  660   0.004   5.285  17.208
    1STR    C05  661  17.338   5.369  17.254
    1STR    C06  662  17.351   5.510  17.231
    1STR    C07  663  17.255   5.608  17.275
    1STR    N08  664  17.277   5.749  17.261
    1STR    C09  665  17.191   5.854  17.271
    1STR    O0A  666  17.069   5.840  17.283
    1STR    O0B  667  17.251   5.980  17.269
    1STR    C0C  668  17.173   6.103  17.291
    1STR    C0D  669  17.135   6.113  17.439
    1STR    C0E  670  17.243   6.237  17.244
    1STR    O0F  671  17.164   6.359  17.262
    1STR    C0G  672  17.216   6.485  17.209
    1STR    C0H  673  17.203   6.482  17.056
    1STR    C0I  674  17.145   6.615  17.264
    1STR    O0J  675  17.202   6.740  17.215
    1STR    C0K  676  17.136   6.866  17.249
    1STR    C0M  677  17.143   6.890  17.400
    1STR    C0N  678  17.197   6.991  17.174
    1STR    O0O  679  17.117   7.111  17.190
    1STR    C0P  680  17.171   7.238  17.188
    1STR    O0Q  681  17.291   7.264  17.180
    1STR    N0R  682  17.074   7.330  17.201
    1STR    C0S  683  17.069   7.469  17.224
    1STR    C0T  684  16.955   7.513  17.294
    1STR    C0U  685  16.940   7.647  17.334
    1STR    C0V  686  17.037   7.743  17.303
    1STR    C0W  687  17.027   7.879  17.371
    1STR    C0X  688  17.147   7.707  17.221
    1STR    N0Y  689  17.244   7.805  17.190
    1STR   BCK2  690  17.234   7.929  17.139
    1STR    O10  691  17.329   8.007  17.151
    1STR    C13  692  17.165   7.569  17.187
    1STR    C14  693  17.141   5.558  17.341
    1STR    C15  694  17.128   5.421  17.369
    1STR    C16  695  17.227   5.327  17.332
    1STR    C17  696  17.211   5.190  17.394
    1STR    H1B  697   0.089   5.338  17.195
    1STR    H1C  698  17.438   5.546  17.179
    1STR    H1D  699  17.371   5.780  17.244
    1STR    H1E  700  17.081   6.093  17.233
    1STR    H1F  701  17.223   6.122   0.063
    1STR    H1G  702  17.072   6.200   0.017
    1STR    H1H  703  17.079   6.026   0.033
    1STR    H1I  704  17.269   6.225  17.139
    1STR    H1J  705  17.337   6.249  17.298
    1STR    H1K  706  17.322   6.492  17.236
    1STR    H1M  707  17.099   6.465  17.027
    1STR    H1N  708  17.263   6.404  17.010
    1STR    H1O  709  17.234   6.576  17.013
    1STR    H1P  710  17.039   6.611  17.239
    1STR    H1Q  711  17.150   6.613  17.373
    1STR    H1R  712  17.031   6.858  17.218
    1STR    H1S  713  17.100   6.987  17.426
    1STR    H1T  714  17.247   6.891  17.435
    1STR    H1U  715  17.089   6.815   0.017
    1STR    H1V  716  17.204   6.971  17.068
    1STR    H1W  717  17.299   7.010  17.208
    1STR    H1X  718  16.985   7.283  17.202
    1STR    H1Y  719  16.878   7.443  17.323
    1STR    H1Z  720  16.854   7.674  17.394
    1STR    H20  721  17.124   7.909  17.411
    1STR    H21  722  16.993   7.956  17.304
    1STR    H22  723  16.958   7.877   0.015
    1STR    H23  724  17.339   7.783  17.216
    1STR    H27  725  17.253   7.538  17.132
    1STR    H28  726  17.063   5.624  17.376
    1STR    H29  727  17.041   5.388  17.424
    1STR    H2A  728  17.295   5.124  17.376
    1STR    H2B  729  17.118   5.145  17.360
    1STR    H2C  730  17.204   5.200   0.062
    1STR   BCK1  731  17.419   5.250  13.054
    1STR    O03  732   0.084   5.186  13.061
    1STR    N04  733  17.400   5.373  13.109
    1STR    C05  734   0.041   5.457  13.190
    1STR    C06  735   0.028   5.600  13.181
    1STR    C07  736   0.103   5.692  13.263
    1STR    N08  737   0.084   5.834  13.255
    1STR    C09  738   0.139   5.936  13.327
    1STR    O0A  739   0.222   5.920  13.416
    1STR    O0B  740   0.094   6.062  13.291
    1STR    C0C  741   0.150   6.182  13.351
    1STR    C0D  742   0.285   6.213  13.285
    1STR    C0E  743   0.055   6.307  13.343
    1STR    O0F  744   0.113   6.430  13.394
    1STR    C0G  745   0.027   6.547  13.398
    1STR    C0H  746  17.373   6.535  13.518
    1STR    C0I  747   0.106   6.683  13.405
    1STR    O0J  748   0.022   6.799  13.381
    1STR    C0K  749   0.082   6.932  13.388
    1STR    C0M  750   0.190   6.947  13.280
    1STR    C0N  751  17.415   7.045  13.369
    1STR    O0O  752   0.030   7.179  13.377
    1STR    C0P  753  17.417   7.285  13.307
    1STR    O0Q  754  17.328   7.278  13.223
    1STR    N0R  755   0.038   7.399  13.344
    1STR    C0S  756   0.033   7.535  13.305
    1STR    C0T  757   0.114   7.620  13.383
    1STR    C0U  758   0.129   7.756  13.350
    1STR    C0V  759   0.064   7.811  13.239
    1STR    C0W  760   0.101   7.954  13.201
    1STR    C0X  761  17.413   7.732  13.162
    1STR    N0Y  762  17.349   7.787  13.049
    1STR   BCK2  763  17.285   7.906  13.033
    1STR    O10  764  17.254   7.981  13.125
    1STR    C13  765  17.401   7.593  13.196
    1STR    C14  766   0.197   5.635  13.352
    1STR    C15  767   0.210   5.496  13.365
    1STR    C16  768   0.131   5.407  13.290
    1STR    C17  769   0.144   5.260  13.327
    1STR    H1B  770  17.311   5.411  13.082
    1STR    H1C  771  17.398   5.641  13.110
    1STR    H1D  772   0.019   5.868  13.187
    1STR    H1E  773   0.168   6.162  13.457
    1STR    H1F  774   0.274   6.232  13.178
    1STR    H1G  775   0.332   6.300  13.331
    1STR    H1H  776   0.355   6.129  13.297
    1STR    H1I  777  17.404   6.283  13.399
    1STR    H1J  778   0.025   6.323  13.240
    1STR    H1K  779  17.409   6.550  13.305
    1STR    H1M  780  17.429   6.524  13.611
    1STR    H1N  781  17.305   6.451  13.510
    1STR    H1O  782  17.311   6.625  13.528
    1STR    H1P  783   0.156   6.692  13.502
    1STR    H1Q  784   0.185   6.679  13.330
    1STR    H1R  785   0.127   6.944  13.486
    1STR    H1S  786   0.230   7.048  13.279
    1STR    H1T  787   0.149   6.928  13.180
    1STR    H1U  788   0.274   6.880  13.295
    1STR    H1V  789  17.338   7.037  13.446
    1STR    H1W  790  17.363   7.032  13.274
    1STR    H1X  791   0.103   7.377  13.418
    1STR    H1Y  792   0.168   7.583  13.468
    1STR    H1Z  793   0.195   7.817  13.410
    1STR    H20  794   0.103   7.967  13.093
    1STR    H21  795   0.031   8.025  13.244
    1STR    H22  796   0.201   7.979  13.237
    1STR    H23  797  17.351   7.731  12.965
    1STR    H27  798  17.337   7.529  13.137
    1STR    H28  799   0.261   5.695  13.415
    1STR    H29  800   0.280   5.458  13.437
    1STR    H2A  801   0.049   5.208  13.316
    1STR    H2B  802   0.175   5.249  13.431
    1STR    H2C  803   0.219   5.212  13.265
    1STR   BCK1  804   0.082   9.578  13.095
    1STR    O03  805  17.400   9.567  13.099
    1STR    N04  806   0.146   9.694  13.063
    1STR    C05  807   0.105   9.799  12.975
    1STR    C06  808   0.112   9.941  13.005
    1STR    C07  809   0.087  10.046  12.907
    1STR    N08  810   0.096  10.188  12.932
    1STR    C09  811   0.100  10.297  12.847
    1STR    O0A  812   0.101  10.283  12.725
    1STR    O0B  813   0.101  10.428  12.905
    1STR    C0C  814   0.091  10.552  12.822
    1STR    C0D  815  17.385  10.564  12.773
    1STR    C0E  816   0.137  10.693  12.886
    1STR    O0F  817   0.112  10.820  12.812
    1STR    C0G  818   0.170  10.949  12.858
    1STR    C0H  819   0.320  10.944  12.823
    1STR    C0I  820   0.107  11.086  12.799
    1STR    O0J  821   0.143  11.219  12.858
    1STR    C0K  822   0.091  11.347  12.801
    1STR    C0M  823  17.378  11.339  12.796
    1STR    C0N  824   0.130  11.488  12.870
    1STR    O0O  825   0.077  11.612  12.807
    1STR    C0P  826   0.079  11.742  12.867
    1STR    O0Q  827   0.117  11.764  12.981
    1STR    N0R  828   0.037  11.839  12.781
    1STR    C0S  829   0.023  11.983  12.773
    1STR    C0T  830   0.051  12.034  12.645
    1STR    C0U  831   0.030  12.168  12.612
    1STR    C0V  832  17.419  12.261  12.704
    1STR    C0W  833  17.396  12.402  12.653
    1STR    C0X  834  17.391  12.221  12.838
    1STR    N0Y  835  17.345  12.311  12.940
    1STR   BCK2  836  17.291  12.434  12.969
    1STR    O10  837  17.273  12.455  13.088
    1STR    C13  838  17.416  12.080  12.870
    1STR    C14  839   0.049   9.999  12.778
    1STR    C15  840   0.043   9.862  12.747
    1STR    C16  841   0.073   9.762  12.842
    1STR    C17  842   0.076   9.617  12.795
    1STR    H1B  843   0.244   9.695  13.089
    1STR    H1C  844   0.140   9.970  13.105
    1STR    H1D  845   0.100  10.217  13.029
    1STR    H1E  846   0.153  10.535  12.734
    1STR    H1F  847  17.316  10.578  12.856
    1STR    H1G  848  17.374  10.649  12.706
    1STR    H1H  849  17.354  10.475  12.718
    1STR    H1I  850   0.244  10.684  12.906
    1STR    H1J  851   0.091  10.703  12.984
    1STR    H1K  852   0.158  10.953  12.966
    1STR    H1M  853   0.335  10.928  12.716
    1STR    H1N  854   0.372  10.864  12.875
    1STR    H1O  855   0.369  11.037  12.850
    1STR    H1P  856   0.128  11.091  12.692
    1STR    H1Q  857  -0.001  11.075  12.807
    1STR    H1R  858   0.129  11.352  12.699
    1STR    H1S  859  17.336  11.433  12.761
    1STR    H1T  860  17.337  11.319  12.895
    1STR    H1U  861  17.343  11.262  12.727
    1STR    H1V  862   0.239  11.499  12.873
    1STR    H1W  863   0.100  11.488  12.975
    1STR    H1X  864   0.015  11.793  12.694
    1STR    H1Y  865   0.090  11.969  12.568
    1STR    H1Z  866   0.053  12.201  12.511
    1STR    H20  867  17.289  12.423  12.651
    1STR    H21  868   0.008  12.475  12.716
    1STR    H22  869  17.432  12.416  12.551
    1STR    H23  870  17.354  12.269  13.031
    1STR    H27  871  17.396  12.045  12.970
    1STR    H28  872   0.025  10.066  12.698
    1STR    H29  873   0.018   9.832  12.646
    1STR    H2A  874   0.162   9.564  12.836
    1STR    H2B  875   0.084   9.610  12.686
    1STR    H2C  876  17.426   9.565  12.826
    1STR   BCK1  877   0.102  13.848   4.493
    1STR    O03  878   0.120  13.839   4.614
    1STR    N04  879   0.042  13.955   4.433
    1STR    C05  880  17.402  14.058   4.490
    1STR    C06  881  17.418  14.199   4.461
    1STR    C07  882  17.327  14.302   4.509
    1STR    N08  883  17.339  14.442   4.478
    1STR    C09  884  17.270  14.552   4.527
    1STR    O0A  885  17.188  14.542   4.617
    1STR    O0B  886  17.299  14.678   4.470
    1STR    C0C  887  17.238  14.802   4.524
    1STR    C0D  888  17.307  14.836   4.657
    1STR    C0E  889  17.235  14.933   4.432
    1STR    O0F  890  17.190  15.058   4.498
    1STR    C0G  891  17.173  15.181   4.420
    1STR    C0H  892  17.042  15.170   4.341
    1STR    C0I  893  17.170  15.316   4.505
    1STR    O0J  894  17.173  15.443   4.430
    1STR    C0K  895  17.161  15.571   4.501
    1STR    C0M  896  17.277  15.586   4.601
    1STR    C0N  897  17.160  15.700   4.410
    1STR    O0O  898  17.142  15.826   4.481
    1STR    C0P  899  17.204  15.944   4.444
    1STR    O0Q  900  17.291  15.953   4.358
    1STR    N0R  901  17.157  16.050   4.513
    1STR    C0S  902  17.186  16.189   4.518
    1STR    C0T  903  17.090  16.272   4.578
    1STR    C0U  904  17.112  16.409   4.597
    1STR    C0V  905  17.233  16.470   4.558
    1STR    C0W  906  17.248  16.617   4.593
    1STR    C0X  907  17.334  16.393   4.495
    1STR    N0Y  908   0.024  16.437   4.458
    1STR   BCK2  909   0.106  16.544   4.446
    1STR    O10  910   0.223  16.517   4.420
    1STR    C13  911  17.307  16.252   4.475
    1STR    C14  912  17.220  14.254   4.588
    1STR    C15  913  17.201  14.118   4.616
    1STR    C16  914  17.288  14.019   4.566
    1STR    C17  915  17.251  13.874   4.590
    1STR    H1B  916   0.043  13.951   4.332
    1STR    H1C  917   0.062  14.228   4.400
    1STR    H1D  918  17.408  14.468   4.410
    1STR    H1E  919  17.134  14.778   4.546
    1STR    H1F  920  17.412  14.863   4.642
    1STR    H1G  921  17.258  14.920   4.706
    1STR    H1H  922  17.303  14.752   4.727
    1STR    H1I  923  17.171  14.913   4.346
    1STR    H1J  924  17.335  14.951   4.392
    1STR    H1K  925  17.257  15.190   4.351
    1STR    H1M  926  16.957  15.155   4.408
    1STR    H1N  927  17.043  15.086   4.271
    1STR    H1O  928  17.023  15.260   4.283
    1STR    H1P  929  17.082  15.316   4.570
    1STR    H1Q  930  17.257  15.314   4.572
    1STR    H1R  931  17.067  15.570   4.557
    1STR    H1S  932  17.272  15.683   4.651
    1STR    H1T  933  17.373  15.582   4.549
    1STR    H1U  934  17.276  15.510   4.679
    1STR    H1V  935  17.078  15.693   4.338
    1STR    H1W  936  17.251  15.705   4.350
    1STR    H1X  937  17.082  16.020   4.573
    1STR    H1Y  938  16.995  16.231   4.612
    1STR    H1Z  939  17.035  16.468   4.644
    1STR    H20  940  17.339  16.633   4.652
    1STR    H21  941  17.251  16.677   4.502
    1STR    H22  942  17.165  16.654   4.653
    1STR    H23  943   0.082  16.359   4.430
    1STR    H27  944  17.382  16.190   4.428
    1STR    H28  945  17.145  14.320   4.629
    1STR    H29  946  17.115  14.088   4.674
    1STR    H2A  947  17.269  13.813   4.501
    1STR    H2B  948  17.145  13.863   4.615
    1STR    H2C  949  17.309  13.833   4.673
    1STR   BCK1  950   4.550   5.147   4.112
    1STR    O03  951   4.648   5.149   4.039
    1STR    N04  952   4.514   5.250   4.193
    1STR    C05  953   4.593   5.359   4.240
    1STR    C06  954   4.549   5.497   4.243
    1STR    C07  955   4.628   5.605   4.299
    1STR    N08  956   4.586   5.742   4.309
    1STR    C09  957   4.661   5.856   4.326
    1STR    O0A  958   4.783   5.855   4.319
    1STR    O0B  959   4.591   5.976   4.351
    1STR    C0C  960   4.662   6.105   4.359
    1STR    C0D  961   4.694   6.149   4.215
    1STR    C0E  962   4.594   6.226   4.437
    1STR    O0F  963   4.664   6.355   4.427
    1STR    C0G  964   4.615   6.472   4.502
    1STR    C0H  965   4.652   6.454   4.650
    1STR    C0I  966   4.671   6.612   4.451
    1STR    O0J  967   4.614   6.731   4.514
    1STR    C0K  968   4.667   6.863   4.479
    1STR    C0M  969   4.646   6.891   4.329
    1STR    C0N  970   4.604   6.984   4.560
    1STR    O0O  971   4.661   7.114   4.529
    1STR    C0P  972   4.591   7.232   4.545
    1STR    O0Q  973   4.474   7.240   4.581
    1STR    N0R  974   4.668   7.339   4.516
    1STR    C0S  975   4.647   7.478   4.506
    1STR    C0T  976   4.757   7.554   4.463
    1STR    C0U  977   4.746   7.692   4.438
    1STR    C0V  978   4.624   7.760   4.455
    1STR    C0W  979   4.621   7.904   4.407
    1STR    C0X  980   4.511   7.691   4.508
    1STR    N0Y  981   4.383   7.746   4.532
    1STR   BCK2  982   4.316   7.863   4.550
    1STR    O10  983   4.195   7.854   4.569
    1STR    C13  984   4.525   7.550   4.530
    1STR    C14  985   4.753   5.567   4.354
    1STR    C15  986   4.796   5.433   4.356
    1STR    C16  987   4.717   5.330   4.304
    1STR    C17  988   4.766   5.187   4.325
    1STR    H1B  989   4.421   5.243   4.231
    1STR    H1C  990   4.453   5.520   4.199
    1STR    H1D  991   4.487   5.761   4.304
    1STR    H1E  992   4.757   6.086   4.410
    1STR    H1F  993   4.603   6.171   4.159
    1STR    H1G  994   4.755   6.239   4.215
    1STR    H1H  995   4.749   6.073   4.162
    1STR    H1I  996   4.584   6.198   4.542
    1STR    H1J  997   4.492   6.240   4.400
    1STR    H1K  998   4.506   6.476   4.491
    1STR    H1M  999   4.759   6.443   4.663
    1STR    H1N 1000   4.604   6.367   4.694
    1STR    H1O 1001   4.621   6.541   4.708
    1STR    H1P 1002   4.780   6.613   4.465
    1STR    H1Q 1003   4.654   6.617   4.344
    1STR    H1R 1004   4.774   6.863   4.500
    1STR    H1S 1005   4.681   6.991   4.303
    1STR    H1T 1006   4.540   6.885   4.303
    1STR    H1U 1007   4.701   6.821   4.266
    1STR    H1V 1008   4.617   6.968   4.667
    1STR    H1W 1009   4.496   6.987   4.544
    1STR    H1X 1010   4.761   7.307   4.494
    1STR    H1Y 1011   4.853   7.508   4.445
    1STR    H1Z 1012   4.832   7.746   4.401
    1STR    H20 1013   4.529   7.925   4.353
    1STR    H21 1014   4.633   7.973   4.490
    1STR    H22 1015   4.702   7.925   4.337
    1STR    H23 1016   4.313   7.675   4.544
    1STR    H27 1017   4.441   7.493   4.566
    1STR    H28 1018   4.818   5.639   4.400
    1STR    H29 1019   4.890   5.410   4.403
    1STR    H2A 1020   4.683   5.121   4.352
    1STR    H2B 1021   4.838   5.182   4.406
    1STR    H2C 1022   4.813   5.149   4.235
    1STR   BCK1 1023   4.431   5.141  12.757
    1STR    O03 1024   4.546   5.110  12.788
    1STR    N04 1025   4.394   5.268  12.785
    1STR    C05 1026   4.290   5.365  12.774
    1STR    C06 1027   4.327   5.503  12.789
    1STR    C07 1028   4.233   5.612  12.787
    1STR    N08 1029   4.272   5.749  12.804
    1STR    C09 1030   4.205   5.863  12.772
    1STR    O0A 1031   4.098   5.863  12.711
    1STR    O0B 1032   4.266   5.983  12.812
    1STR    C0C 1033   4.196   6.111  12.797
    1STR    C0D 1034   4.088   6.122  12.906
    1STR    C0E 1035   4.287   6.241  12.799
    1STR    O0F 1036   4.215   6.367  12.779
    1STR    C0G 1037   4.292   6.490  12.768
    1STR    C0H 1038   4.364   6.491  12.633
    1STR    C0I 1039   4.207   6.623  12.782
    1STR    O0J 1040   4.287   6.745  12.784
    1STR    C0K 1041   4.220   6.875  12.782
    1STR    C0M 1042   4.134   6.892  12.909
    1STR    C0N 1043   4.321   6.996  12.773
    1STR    O0O 1044   4.257   7.126  12.765
    1STR    C0P 1045   4.317   7.241  12.815
    1STR    O0Q 1046   4.421   7.244  12.879
    1STR    N0R 1047   4.245   7.349  12.782
    1STR    C0S 1048   4.253   7.488  12.810
    1STR    C0T 1049   4.154   7.567  12.748
    1STR    C0U 1050   4.141   7.704  12.774
    1STR    C0V 1051   4.227   7.768  12.865
    1STR    C0W 1052   4.197   7.913  12.902
    1STR    C0X 1053   4.333   7.696  12.925
    1STR    N0Y 1054   4.412   7.761  13.022
    1STR   BCK2 1055   4.480   7.877  13.012
    1STR    O10 1056   4.516   7.929  12.907
    1STR    C13 1057   4.344   7.555  12.898
    1STR    C14 1058   4.097   5.576  12.774
    1STR    C15 1059   4.058   5.442  12.759
    1STR    C16 1060   4.151   5.336  12.759
    1STR    C17 1061   4.094   5.197  12.745
    1STR    H1B 1062   4.476   5.307  12.828
    1STR    H1C 1063   4.431   5.527  12.802
    1STR    H1D 1064   4.362   5.768  12.845
    1STR    H1E 1065   4.146   6.110  12.700
    1STR    H1F 1066   4.132   6.124  13.006
    1STR    H1G 1067   4.029   6.213  12.894
    1STR    H1H 1068   4.019   6.038  12.902
    1STR    H1I 1069   4.363   6.229  12.722
    1STR    H1J 1070   4.340   6.246  12.894
    1STR    H1K 1071   4.366   6.492  12.849
    1STR    H1M 1072   4.293   6.479  12.551
    1STR    H1N 1073   4.438   6.412  12.624
    1STR    H1O 1074   4.416   6.586  12.617
    1STR    H1P 1075   4.134   6.628  12.701
    1STR    H1Q 1076   4.149   6.617  12.874
    1STR    H1R 1077   4.155   6.879  12.694
    1STR    H1S 1078   4.087   6.991  12.910
    1STR    H1T 1079   4.195   6.885  12.999
    1STR    H1U 1080   4.054   6.819  12.915
    1STR    H1V 1081   4.383   6.985  12.684
    1STR    H1W 1082   4.389   6.994  12.858
    1STR    H1X 1083   4.168   7.321  12.725
    1STR    H1Y 1084   4.083   7.523  12.679
    1STR    H1Z 1085   4.061   7.760  12.728
    1STR    H20 1086   4.209   7.929  13.009
    1STR    H21 1087   4.264   7.981  12.849
    1STR    H22 1088   4.094   7.941  12.877
    1STR    H23 1089   4.410   7.721  13.114
    1STR    H27 1090   4.421   7.497  12.946
    1STR    H28 1091   4.019   5.651  12.775
    1STR    H29 1092   3.953   5.422  12.749
    1STR    H2A 1093   4.124   5.155  12.650
    1STR    H2B 1094   3.985   5.198  12.746
    1STR    H2C 1095   4.127   5.134  12.827
    1STR   BCK1 1096   4.199   9.495  13.263
    1STR    O03 1097   4.137   9.461  13.163
    1STR    N04 1098   4.221   9.629  13.276
    1STR    C05 1099   4.278   9.733  13.355
    1STR    C06 1100   4.254   9.871  13.315
    1STR    C07 1101   4.304   9.986  13.385
    1STR    N08 1102   4.281  10.122  13.343
    1STR    C09 1103   4.296  10.240  13.412
    1STR    O0A 1104   4.326  10.243  13.531
    1STR    O0B 1105   4.276  10.360  13.339
    1STR    C0C 1106   4.308  10.492  13.397
    1STR    C0D 1107   4.461  10.507  13.396
    1STR    C0E 1108   4.241  10.622  13.334
    1STR    O0F 1109   4.277  10.751  13.396
    1STR    C0G 1110   4.212  10.876  13.353
    1STR    C0H 1111   4.067  10.873  13.404
    1STR    C0I 1112   4.280  11.012  13.402
    1STR    O0J 1113   4.226  11.140  13.351
    1STR    C0K 1114   4.280  11.268  13.401
    1STR    C0M 1115   4.430  11.276  13.367
    1STR    C0N 1116   4.211  11.402  13.349
    1STR    O0O 1117   4.257  11.524  13.417
    1STR    C0P 1118   4.251  11.653  13.363
    1STR    O0Q 1119   4.220  11.681  13.248
    1STR    N0R 1120   4.285  11.743  13.458
    1STR    C0S 1121   4.306  11.883  13.478
    1STR    C0T 1122   4.332  11.913  13.613
    1STR    C0U 1123   4.372  12.040  13.655
    1STR    C0V 1124   4.385  12.145  13.564
    1STR    C0W 1125   4.449  12.274  13.617
    1STR    C0X 1126   4.345  12.128  13.429
    1STR    N0Y 1127   4.353  12.243  13.345
    1STR   BCK2 1128   4.306  12.367  13.375
    1STR    O10 1129   4.219  12.387  13.459
    1STR    C13 1130   4.310  11.994  13.385
    1STR    C14 1131   4.385   9.958  13.497
    1STR    C15 1132   4.411   9.826  13.539
    1STR    C16 1133   4.359   9.714  13.470
    1STR    C17 1134   4.397   9.579  13.525
    1STR    H1B 1135   4.177   9.666  13.193
    1STR    H1C 1136   4.193   9.888  13.228
    1STR    H1D 1137   4.249  10.137  13.249
    1STR    H1E 1138   4.276  10.488  13.502
    1STR    H1F 1139   4.500  10.511  13.294
    1STR    H1G 1140   4.491  10.599  13.446
    1STR    H1H 1141   4.510  10.425  13.447
    1STR    H1I 1142   4.133  10.609  13.340
    1STR    H1J 1143   4.265  10.627  13.228
    1STR    H1K 1144   4.212  10.878  13.244
    1STR    H1M 1145   4.063  10.859  13.512
    1STR    H1N 1146   4.009  10.792  13.358
    1STR    H1O 1147   4.015  10.966  13.380
    1STR    H1P 1148   4.279  11.015  13.511
    1STR    H1Q 1149   4.386  11.006  13.374
    1STR    H1R 1150   4.268  11.267  13.510
    1STR    H1S 1151   4.471  11.373  13.397
    1STR    H1T 1152   4.446  11.266  13.260
    1STR    H1U 1153   4.488  11.200  13.418
    1STR    H1V 1154   4.103  11.396  13.363
    1STR    H1W 1155   4.226  11.414  13.241
    1STR    H1X 1156   4.299  11.690  13.541
    1STR    H1Y 1157   4.326  11.836  13.688
    1STR    H1Z 1158   4.396  12.056  13.759
    1STR    H20 1159   4.515  12.318  13.542
    1STR    H21 1160   4.373  12.346  13.645
    1STR    H22 1161   4.510  12.255  13.705
    1STR    H23 1162   4.409  12.237  13.262
    1STR    H27 1163   4.286  11.976  13.281
    1STR    H28 1164   4.431  10.037  13.555
    1STR    H29 1165   4.473   9.812  13.625
    1STR    H2A 1166   4.309   9.528  13.563
    1STR    H2B 1167   4.468   9.586  13.607
    1STR    H2C 1168   4.444   9.519  13.447
    1STR   BCK1 1169   4.485  13.849  17.168
    1STR    O03 1170   4.413  13.842  17.268
    1STR    N04 1171   4.483  13.978  17.205
    1STR    C05 1172   4.548  14.096  17.159
    1STR    C06 1173   4.516  14.227  17.212
    1STR    C07 1174   4.582  14.349  17.169
    1STR    N08 1175   4.555  14.480  17.224
    1STR    C09 1176   4.586  14.604  17.173
    1STR    O0A 1177   4.632  14.618  17.060
    1STR    O0B 1178   4.561  14.717  17.255
    1STR    C0C 1179   4.582  14.855  17.204
    1STR    C0D 1180   4.466  14.888  17.109
    1STR    C0E 1181   4.600  14.976  17.307
    1STR    O0F 1182   4.618  15.111  17.249
    1STR    C0G 1183   4.642  15.229  17.334
    1STR    C0H 1184   4.783  15.215  17.395
    1STR    C0I 1185   4.631  15.372  17.263
    1STR    O0J 1186   4.640  15.493  17.348
    1STR    C0K 1187   4.641  15.629  17.288
    1STR    C0M 1188   4.513  15.648  17.205
    1STR    C0N 1189   4.655  15.753  17.388
    1STR    O0O 1190   4.660  15.886  17.327
    1STR    C0P 1191   4.636  16.005  17.398
    1STR    O0Q 1192   4.602  16.009   0.076
    1STR    N0R 1193   4.653  16.116  17.322
    1STR    C0S 1194   4.636  16.257  17.336
    1STR    C0T 1195   4.660  16.332  17.220
    1STR    C0U 1196   4.639  16.472  17.216
    1STR    C0V 1197   4.595  16.544  17.329
    1STR    C0W 1198   4.566  16.691  17.308
    1STR    C0X 1199   4.577  16.476   0.013
    1STR    N0Y 1200   4.536  16.536   0.135
    1STR   BCK2 1201   4.517  16.653   0.203
    1STR    O10 1202   4.482  16.640   0.319
    1STR    C13 1203   4.596  16.332   0.012
    1STR    C14 1204   4.682  14.332  17.071
    1STR    C15 1205   4.715  14.206  17.018
    1STR    C16 1206   4.651  14.088  17.061
    1STR    C17 1207   4.699  13.957  17.002
    1STR    H1B 1208   4.421  13.980  17.285
    1STR    H1C 1209   4.439  14.233  17.287
    1STR    H1D 1210   4.507  14.485  17.312
    1STR    H1E 1211   4.674  14.852  17.145
    1STR    H1F 1212   4.371  14.892  17.162
    1STR    H1G 1213   4.482  14.984  17.060
    1STR    H1H 1214   4.457  14.813  17.030
    1STR    H1I 1215   4.686  14.953  17.371
    1STR    H1J 1216   4.514  14.979  17.374
    1STR    H1K 1217   4.569  15.228  17.415
    1STR    H1M 1218   4.858  15.204  17.317
    1STR    H1N 1219   4.791  15.129   0.021
    1STR    H1O 1220   4.809  15.303   0.014
    1STR    H1P 1221   4.707  15.379  17.185
    1STR    H1Q 1222   4.535  15.374  17.212
    1STR    H1R 1223   4.726  15.633  17.220
    1STR    H1S 1224   4.509  15.748  17.163
    1STR    H1T 1225   4.424  15.635  17.267
    1STR    H1U 1226   4.506  15.579  17.121
    1STR    H1V 1227   4.745  15.742   0.007
    1STR    H1W 1228   4.573  15.752   0.020
    1STR    H1X 1229   4.684  16.086  17.231
    1STR    H1Y 1230   4.692  16.285  17.129
    1STR    H1Z 1231   4.656  16.524  17.123
    1STR    H20 1232   4.468  16.716  17.350
    1STR    H21 1233   4.643  16.752  17.353
    1STR    H22 1234   4.561  16.717  17.202
    1STR    H23 1235   4.513  16.467   0.203
    1STR    H27 1236   4.580  16.276   0.103
    1STR    H28 1237   4.739  14.415  17.034
    1STR    H29 1238   4.793  14.200  16.944
    1STR    H2A 1239   4.732  13.889  17.081
    1STR    H2B 1240   4.784  13.971  16.935
    1STR    H2C 1241   4.620  13.909  16.944
    1STR   BCK1 1242  12.935   0.763   4.491
    1STR    O03 1243  13.053   0.732   4.507
    1STR    N04 1244  12.913   0.896   4.470
    1STR    C05 1245  12.816   0.998   4.449
    1STR    C06 1246  12.863   1.135   4.437
    1STR    C07 1247  12.777   1.249   4.416
    1STR    N08 1248  12.824   1.383   4.399
    1STR    C09 1249  12.757   1.501   4.415
    1STR    O0A 1250  12.645   1.507   4.463
    1STR    O0B 1251  12.825   1.618   4.374
    1STR    C0C 1252  12.765   1.751   4.393
    1STR    C0D 1253  12.780   1.789   4.541
    1STR    C0E 1254  12.818   1.870   4.303
    1STR    O0F 1255  12.754   1.999   4.330
    1STR    C0G 1256  12.790   2.117   4.251
    1STR    C0H 1257  12.732   2.101   4.110
    1STR    C0I 1258  12.740   2.254   4.313
    1STR    O0J 1259  12.781   2.375   4.241
    1STR    C0K 1260  12.732   2.504   4.289
    1STR    C0M 1261  12.790   2.534   4.428
    1STR    C0N 1262  12.766   2.627   4.195
    1STR    O0O 1263  12.702   2.750   4.237
    1STR    C0P 1264  12.754   2.875   4.208
    1STR    O0Q 1265  12.859   2.896   4.148
    1STR    N0R 1266  12.675   2.971   4.259
    1STR    C0S 1267  12.685   3.112   4.274
    1STR    C0T 1268  12.606   3.168   4.375
    1STR    C0U 1269  12.613   3.304   4.406
    1STR    C0V 1270  12.696   3.392   4.333
    1STR    C0W 1271  12.710   3.532   4.390
    1STR    C0X 1272  12.766   3.343   4.219
    1STR    N0Y 1273  12.837   3.422   4.125
    1STR   BCK2 1274  12.827   3.543   4.065
    1STR    O10 1275  12.876   3.555   3.953
    1STR    C13 1276  12.764   3.202   4.196
    1STR    C14 1277  12.639   1.220   4.408
    1STR    C15 1278  12.590   1.089   4.418
    1STR    C16 1279  12.675   0.978   4.437
    1STR    C17 1280  12.610   0.843   4.440
    1STR    H1B 1281  13.006   0.934   4.472
    1STR    H1C 1282  12.969   1.153   4.444
    1STR    H1D 1283  12.919   1.396   4.370
    1STR    H1E 1284  12.659   1.741   4.371
    1STR    H1F 1285  12.884   1.802   4.569
    1STR    H1G 1286  12.728   1.883   4.562
    1STR    H1H 1287  12.736   1.714   4.607
    1STR    H1I 1288  12.802   1.843   4.199
    1STR    H1J 1289  12.926   1.881   4.316
    1STR    H1K 1290  12.899   2.122   4.245
    1STR    H1M 1291  12.623   2.088   4.113
    1STR    H1N 1292  12.774   2.016   4.056
    1STR    H1O 1293  12.752   2.190   4.049
    1STR    H1P 1294  12.631   2.252   4.321
    1STR    H1Q 1295  12.778   2.259   4.415
    1STR    H1R 1296  12.623   2.499   4.296
    1STR    H1S 1297  12.760   2.633   4.463
    1STR    H1T 1298  12.899   2.532   4.426
    1STR    H1U 1299  12.757   2.463   4.504
    1STR    H1V 1300  12.732   2.606   4.093
    1STR    H1W 1301  12.874   2.641   4.188
    1STR    H1X 1302  12.594   2.929   4.301
    1STR    H1Y 1303  12.540   3.106   4.435
    1STR    H1Z 1304  12.555   3.342   4.489
    1STR    H20 1305  12.810   3.571   4.374
    1STR    H21 1306  12.636   3.599   4.347
    1STR    H22 1307  12.693   3.533   4.498
    1STR    H23 1308  12.905   3.369   4.074
    1STR    H27 1309  12.822   3.160   4.115
    1STR    H28 1310  12.567   1.298   4.391
    1STR    H29 1311  12.483   1.074   4.410
    1STR    H2A 1312  12.654   0.779   4.363
    1STR    H2B 1313  12.503   0.848   4.418
    1STR    H2C 1314  12.620   0.798   4.538
    1STR   BCK1 1315  13.171   5.175   0.247
    1STR    O03 1316  13.202   5.167   0.366
    1STR    N04 1317  13.179   5.290   0.175
    1STR    C05 1318  13.259   5.403   0.204
    1STR    C06 1319  13.210   5.539   0.197
    1STR    C07 1320  13.295   5.654   0.216
    1STR    N08 1321  13.249   5.789   0.207
    1STR    C09 1322  13.310   5.906   0.244
    1STR    O0A 1323  13.419   5.909   0.300
    1STR    O0B 1324  13.242   6.024   0.211
    1STR    C0C 1325  13.308   6.154   0.226
    1STR    C0D 1326  13.403   6.174   0.106
    1STR    C0E 1327  13.214   6.280   0.242
    1STR    O0F 1328  13.284   6.408   0.255
    1STR    C0G 1329  13.205   6.528   0.282
    1STR    C0H 1330  13.160   6.523   0.429
    1STR    C0I 1331  13.282   6.664   0.255
    1STR    O0J 1332  13.198   6.785   0.259
    1STR    C0K 1333  13.260   6.916   0.243
    1STR    C0M 1334  13.332   6.924   0.107
    1STR    C0N 1335  13.157   7.037   0.252
    1STR    O0O 1336  13.215   7.169   0.235
    1STR    C0P 1337  13.144   7.278   0.185
    1STR    O0Q 1338  13.032   7.272   0.136
    1STR    N0R 1339  13.215   7.391   0.198
    1STR    C0S 1340  13.200   7.529   0.165
    1STR    C0T 1341  13.296   7.612   0.227
    1STR    C0U 1342  13.306   7.749   0.195
    1STR    C0V 1343  13.220   7.808   0.101
    1STR    C0W 1344  13.252   7.951   0.061
    1STR    C0X 1345  13.114   7.733   0.043
    1STR    N0Y 1346  13.029   7.795  17.387
    1STR   BCK2 1347  12.967   7.916  17.389
    1STR    O10 1348  12.955   7.985   0.050
    1STR    C13 1349  13.108   7.592   0.074
    1STR    C14 1350  13.432   5.626   0.237
    1STR    C15 1351  13.482   5.495   0.244
    1STR    C16 1352  13.398   5.384   0.226
    1STR    C17 1353  13.463   5.247   0.227
    1STR    H1B 1354  13.134   5.286   0.086
    1STR    H1C 1355  13.105   5.554   0.178
    1STR    H1D 1356  13.157   5.805   0.169
    1STR    H1E 1357  13.369   6.150   0.317
    1STR    H1F 1358  13.348   6.179   0.012
    1STR    H1G 1359  13.460   6.266   0.117
    1STR    H1H 1360  13.475   6.093   0.099
    1STR    H1I 1361  13.151   6.263   0.329
    1STR    H1J 1362  13.147   6.285   0.156
    1STR    H1K 1363  13.118   6.527   0.217
    1STR    H1M 1364  13.245   6.512   0.496
    1STR    H1N 1365  13.091   6.441   0.449
    1STR    H1O 1366  13.108   6.615   0.457
    1STR    H1P 1367  13.364   6.674   0.327
    1STR    H1Q 1368  13.328   6.656   0.157
    1STR    H1R 1369  13.333   6.929   0.322
    1STR    H1S 1370  13.375   7.024   0.092
    1STR    H1T 1371  13.263   6.906   0.025
    1STR    H1U 1372  13.415   6.854   0.100
    1STR    H1V 1373  13.109   7.035   0.350
    1STR    H1W 1374  13.077   7.023   0.179
    1STR    H1X 1375  13.300   7.369   0.246
    1STR    H1Y 1376  13.366   7.572   0.298
    1STR    H1Z 1377  13.383   7.808   0.242
    1STR    H20 1378  13.233   7.968  17.395
    1STR    H21 1379  13.194   8.022   0.119
    1STR    H22 1380  13.358   7.975   0.077
    1STR    H23 1381  13.014   7.743  17.302
    1STR    H27 1382  13.032   7.530   0.028
    1STR    H28 1383  13.505   5.704   0.248
    1STR    H29 1384  13.588   5.481   0.260
    1STR    H2A 1385  13.443   5.195   0.320
    1STR    H2B 1386  13.572   5.253   0.217
    1STR    H2C 1387  13.427   5.185   0.144
    1STR   BCK1 1388  12.950   5.235  12.956
    1STR    O03 1389  12.830   5.241  12.935
    1STR    N04 1390  13.034   5.340  12.943
    1STR    C05 1391  13.015   5.450  12.856
    1STR    C06 1392  13.028   5.587  12.896
    1STR    C07 1393  13.016   5.696  12.802
    1STR    N08 1394  13.034   5.832  12.839
    1STR    C09 1395  13.010   5.945  12.767
    1STR    O0A 1396  12.956   5.947  12.657
    1STR    O0B 1397  13.052   6.062  12.829
    1STR    C0C 1398  13.029   6.190  12.763
    1STR    C0D 1399  12.881   6.230  12.781
    1STR    C0E 1400  13.123   6.304  12.810
    1STR    O0F 1401  13.095   6.427  12.740
    1STR    C0G 1402  13.175   6.543  12.772
    1STR    C0H 1403  13.311   6.530  12.700
    1STR    C0I 1404  13.101   6.673  12.728
    1STR    O0J 1405  13.163   6.794  12.778
    1STR    C0K 1406  13.097   6.918  12.742
    1STR    C0M 1407  12.962   6.929  12.813
    1STR    C0N 1408  13.182   7.044  12.777
    1STR    O0O 1409  13.125   7.158  12.710
    1STR    C0P 1410  13.118   7.282  12.766
    1STR    O0Q 1411  13.142   7.311  12.883
    1STR    N0R 1412  13.083   7.367  12.670
    1STR    C0S 1413  13.068   7.506  12.659
    1STR    C0T 1414  13.102   7.557  12.533
    1STR    C0U 1415  13.081   7.691  12.501
    1STR    C0V 1416  13.022   7.780  12.593
    1STR    C0W 1417  12.999   7.919  12.539
    1STR    C0X 1418  12.985   7.734  12.724
    1STR    N0Y 1419  12.912   7.807  12.821
    1STR   BCK2 1420  12.861   7.929  12.850
    1STR    O10 1421  12.778   7.936  12.940
    1STR    C13 1422  13.012   7.596  12.755
    1STR    C14 1423  12.990   5.660  12.668
    1STR    C15 1424  12.980   5.526  12.627
    1STR    C16 1425  12.996   5.421  12.719
    1STR    C17 1426  12.999   5.279  12.664
    1STR    H1B 1427  13.126   5.327  12.982
    1STR    H1C 1428  13.047   5.609  13.000
    1STR    H1D 1429  13.071   5.852  12.930
    1STR    H1E 1430  13.047   6.176  12.656
    1STR    H1F 1431  12.857   6.245  12.886
    1STR    H1G 1432  12.860   6.323  12.728
    1STR    H1H 1433  12.814   6.155  12.741
    1STR    H1I 1434  13.227   6.274  12.793
    1STR    H1J 1435  13.112   6.320  12.918
    1STR    H1K 1436  13.190   6.548  12.880
    1STR    H1M 1437  13.298   6.519  12.593
    1STR    H1N 1438  13.369   6.445  12.736
    1STR    H1O 1439  13.371   6.620  12.716
    1STR    H1P 1440  13.095   6.676  12.619
    1STR    H1Q 1441  12.999   6.666  12.765
    1STR    H1R 1442  13.082   6.918  12.634
    1STR    H1S 1443  12.916   7.027  12.795
    1STR    H1T 1444  12.974   6.920  12.921
    1STR    H1U 1445  12.890   6.855  12.780
    1STR    H1V 1446  13.284   7.032  12.741
    1STR    H1W 1447  13.189   7.059  12.884
    1STR    H1X 1448  13.074   7.316  12.584
    1STR    H1Y 1449  13.145   7.493  12.457
    1STR    H1Z 1450  13.109   7.726  12.403
    1STR    H20 1451  12.894   7.945  12.547
    1STR    H21 1452  13.062   7.990  12.593
    1STR    H22 1453  13.025   7.928  12.434
    1STR    H23 1454  12.880   7.748  12.896
    1STR    H27 1455  12.986   7.556  12.851
    1STR    H28 1456  12.979   5.732  12.589
    1STR    H29 1457  12.962   5.505  12.523
    1STR    H2A 1458  13.081   5.223  12.708
    1STR    H2B 1459  13.013   5.278  12.556
    1STR    H2C 1460  12.905   5.228  12.686
    1STR   BCK1 1461  13.217  13.856   8.866
    1STR    O03 1462  13.266  13.851   8.979
    1STR    N04 1463  13.146  13.963   8.821
    1STR    C05 1464  13.084  14.070   8.893
    1STR    C06 1465  13.094  14.211   8.858
    1STR    C07 1466  13.021  14.317   8.926
    1STR    N08 1467  13.024  14.457   8.889
    1STR    C09 1468  12.975  14.569   8.954
    1STR    O0A 1469  12.925  14.563   9.066
    1STR    O0B 1470  12.985  14.696   8.888
    1STR    C0C 1471  12.947  14.824   8.956
    1STR    C0D 1472  13.057  14.856   9.058
    1STR    C0E 1473  12.915  14.956   8.870
    1STR    O0F 1474  12.899  15.085   8.944
    1STR    C0G 1475  12.857  15.210   8.875
    1STR    C0H 1476  12.707  15.196   8.843
    1STR    C0I 1477  12.881  15.348   8.954
    1STR    O0J 1478  12.860  15.478   8.885
    1STR    C0K 1479  12.877  15.607   8.958
    1STR    C0M 1480  13.020  15.613   9.013
    1STR    C0N 1481  12.850  15.746   8.882
    1STR    O0O 1482  12.863  15.868   8.964
    1STR    C0P 1483  12.877  15.998   8.912
    1STR    O0Q 1484  12.892  16.024   8.793
    1STR    N0R 1485  12.868  16.093   9.009
    1STR    C0S 1486  12.862  16.236   9.019
    1STR    C0T 1487  12.764  16.282   9.109
    1STR    C0U 1488  12.758  16.416   9.149
    1STR    C0V 1489  12.851  16.512   9.104
    1STR    C0W 1490  12.844  16.648   9.170
    1STR    C0X 1491  12.950  16.475   9.008
    1STR    N0Y 1492  13.054  16.562   8.963
    1STR   BCK2 1493  13.102  16.689   8.965
    1STR    O10 1494  13.217  16.702   8.925
    1STR    C13 1495  12.952  16.335   8.967
    1STR    C14 1496  12.937  14.272   9.031
    1STR    C15 1497  12.924  14.137   9.066
    1STR    C16 1498  12.994  14.036   8.997
    1STR    C17 1499  12.962  13.891   9.034
    1STR    H1B 1500  13.121  13.956   8.723
    1STR    H1C 1501  13.159  14.236   8.776
    1STR    H1D 1502  13.070  14.480   8.803
    1STR    H1E 1503  12.856  14.801   9.012
    1STR    H1F 1504  13.151  14.879   9.009
    1STR    H1G 1505  13.029  14.942   9.119
    1STR    H1H 1506  13.074  14.773   9.127
    1STR    H1I 1507  12.825  14.937   8.812
    1STR    H1J 1508  12.995  14.970   8.797
    1STR    H1K 1509  12.912  15.216   8.782
    1STR    H1M 1510  12.648  15.181   8.934
    1STR    H1N 1511  12.686  15.112   8.777
    1STR    H1O 1512  12.669  15.286   8.795
    1STR    H1P 1513  12.820  15.347   9.044
    1STR    H1Q 1514  12.985  15.345   8.988
    1STR    H1R 1515  12.808  15.604   9.043
    1STR    H1S 1516  13.039  15.709   9.062
    1STR    H1T 1517  13.093  15.604   8.932
    1STR    H1U 1518  13.041  15.536   9.086
    1STR    H1V 1519  12.748  15.746   8.841
    1STR    H1W 1520  12.915  15.755   8.795
    1STR    H1X 1521  12.851  16.046   9.096
    1STR    H1Y 1522  12.692  16.214   9.151
    1STR    H1Z 1523  12.683  16.446   9.221
    1STR    H20 1524  12.942  16.677   9.206
    1STR    H21 1525  12.805  16.722   9.099
    1STR    H22 1526  12.778  16.649   9.256
    1STR    H23 1527  13.124  16.512   8.911
    1STR    H27 1528  13.028  16.302   8.897
    1STR    H28 1529  12.877  14.341   9.088
    1STR    H29 1530  12.857  14.110   9.145
    1STR    H2A 1531  12.955  13.828   8.945
    1STR    H2B 1532  12.866  13.883   9.085
    1STR    H2C 1533  13.039  13.850   9.099
    1STR   BCK1 1534  13.074  14.004  12.948
    1STR    O03 1535  13.066  14.007  12.826
    1STR    N04 1536  13.118  14.108  13.024
    1STR    C05 1537  13.211  14.212  12.994
    1STR    C06 1538  13.189  14.353  13.015
    1STR    C07 1539  13.292  14.454  13.000
    1STR    N08 1540  13.272  14.596  13.025
    1STR    C09 1541  13.354  14.705  13.007
    1STR    O0A 1542  13.467  14.696  12.960
    1STR    O0B 1543  13.301  14.831  13.045
    1STR    C0C 1544  13.372  14.958  13.015
    1STR    C0D 1545  13.358  14.985  12.865
    1STR    C0E 1546  13.331  15.088  13.098
    1STR    O0F 1547  13.386  15.219  13.055
    1STR    C0G 1548  13.362  15.341  13.135
    1STR    C0H 1549  13.453  15.332  13.259
    1STR    C0I 1550  13.386  15.481  13.061
    1STR    O0J 1551  13.335  15.605  13.124
    1STR    C0K 1552  13.358  15.738  13.060
    1STR    C0M 1553  13.303  15.734  12.917
    1STR    C0N 1554  13.299  15.868  13.133
    1STR    O0O 1555  13.324  15.998  13.067
    1STR    C0P 1556  13.255  16.117  13.098
    1STR    O0Q 1557  13.161  16.124  13.177
    1STR    N0R 1558  13.305  16.225  13.032
    1STR    C0S 1559  13.281  16.366  13.022
    1STR    C0T 1560  13.390  16.440  12.971
    1STR    C0U 1561  13.380  16.578  12.945
    1STR    C0V 1562  13.261  16.650  12.969
    1STR    C0W 1563  13.262  16.798  12.934
    1STR    C0X 1564  13.148  16.584  13.024
    1STR    N0Y 1565  13.024  16.647  13.058
    1STR   BCK2 1566  12.945  16.758  13.053
    1STR    O10 1567  12.837  16.745  13.109
    1STR    C13 1568  13.162  16.441  13.050
    1STR    C14 1569  13.419  14.405  12.963
    1STR    C15 1570  13.444  14.268  12.944
    1STR    C16 1571  13.343  14.172  12.961
    1STR    C17 1572  13.382  14.024  12.952
    1STR    H1B 1573  13.098  14.097  13.122
    1STR    H1C 1574  13.090  14.384  13.044
    1STR    H1D 1575  13.182  14.623  13.061
    1STR    H1E 1576  13.478  14.940  13.035
    1STR    H1F 1577  13.253  15.001  12.837
    1STR    H1G 1578  13.414  15.075  12.836
    1STR    H1H 1579  13.397  14.903  12.805
    1STR    H1I 1580  13.360  15.070  13.202
    1STR    H1J 1581  13.223  15.096  13.099
    1STR    H1K 1582  13.257  15.339  13.167
    1STR    H1M 1583  13.557  15.321  13.230
    1STR    H1N 1584  13.427  15.247  13.323
    1STR    H1O 1585  13.445  15.422  13.320
    1STR    H1P 1586  13.492  15.493  13.042
    1STR    H1Q 1587  13.340  15.471  12.963
    1STR    H1R 1588  13.466  15.752  13.055
    1STR    H1S 1589  13.310  15.832  12.870
    1STR    H1T 1590  13.198  15.705  12.917
    1STR    H1U 1591  13.358  15.664  12.853
    1STR    H1V 1592  13.340  15.875  13.234
    1STR    H1W 1593  13.191  15.857  13.146
    1STR    H1X 1594  13.383  16.192  12.978
    1STR    H1Y 1595  13.484  16.392  12.950
    1STR    H1Z 1596  13.467  16.629  12.906
    1STR    H20 1597  13.188  16.818  12.857
    1STR    H21 1598  13.242  16.858  13.022
    1STR    H22 1599  13.358  16.830  12.893
    1STR    H23 1600  12.967  16.583  13.112
    1STR    H27 1601  13.078  16.387  13.091
    1STR    H28 1602  13.504  14.470  12.950
    1STR    H29 1603  13.544  14.236  12.919
    1STR    H2A 1604  13.341  13.968  13.036
    1STR    H2B 1605  13.490  14.011  12.954
    1STR    H2C 1606  13.344  13.981  12.860
    1STR   BCK1 1607   0.050  13.168   5.230
    1STR    O03 1608  17.395  13.242   5.208
    1STR    N04 1609   0.117  13.163   5.347
    1STR    C05 1610   0.116  13.261   5.449
    1STR    C06 1611   0.109  13.226   5.588
    1STR    C07 1612   0.116  13.324   5.691
    1STR    N08 1613   0.115  13.289   5.829
    1STR    C09 1614   0.148  13.364   5.937
    1STR    O0A 1615   0.189  13.479   5.931
    1STR    O0B 1616   0.131  13.298   6.056
    1STR    C0C 1617   0.148  13.370   6.181
    1STR    C0D 1618   0.016  13.441   6.216
    1STR    C0E 1619   0.195  13.279   6.297
    1STR    O0F 1620   0.213  13.356   6.417
    1STR    C0G 1621   0.261  13.285   6.533
    1STR    C0H 1622   0.413  13.263   6.519
    1STR    C0I 1623   0.229  13.364   6.662
    1STR    O0J 1624   0.260  13.287   6.778
    1STR    C0K 1625   0.235  13.347   6.906
    1STR    C0M 1626   0.084  13.353   6.933
    1STR    C0N 1627   0.306  13.262   7.015
    1STR    O0O 1628   0.293  13.320   7.145
    1STR    C0P 1629   0.223  13.258   7.243
    1STR    O0Q 1630   0.157  13.155   7.229
    1STR    N0R 1631   0.238  13.325   7.358
    1STR    C0S 1632   0.186  13.307   7.487
    1STR    C0T 1633   0.228  13.397   7.586
    1STR    C0U 1634   0.176  13.392   7.716
    1STR    C0V 1635   0.078  13.296   7.751
    1STR    C0W 1636   0.017  13.307   7.889
    1STR    C0X 1637   0.037  13.200   7.654
    1STR    N0Y 1638  17.373  13.109   7.678
    1STR   BCK2 1639  17.341  13.033   7.784
    1STR    O10 1640  17.410  13.017   7.884
    1STR    C13 1641   0.091  13.207   7.523
    1STR    C14 1642   0.124  13.460   5.651
    1STR    C15 1643   0.136  13.495   5.516
    1STR    C16 1644   0.136  13.397   5.415
    1STR    C17 1645   0.166  13.444   5.273
    1STR    H1B 1646   0.180  13.086   5.357
    1STR    H1C 1647   0.099  13.122   5.615
    1STR    H1D 1648   0.087  13.196   5.854
    1STR    H1E 1649   0.226  13.446   6.168
    1STR    H1F 1650  17.375  13.370   6.232
    1STR    H1G 1651   0.027  13.500   6.308
    1STR    H1H 1652  17.426  13.510   6.137
    1STR    H1I 1653   0.289  13.231   6.268
    1STR    H1J 1654   0.122  13.200   6.314
    1STR    H1K 1655   0.210  13.189   6.540
    1STR    H1M 1656   0.465  13.358   6.507
    1STR    H1N 1657   0.438  13.199   6.435
    1STR    H1O 1658   0.453  13.215   6.609
    1STR    H1P 1659   0.284  13.459   6.663
    1STR    H1Q 1660   0.123  13.390   6.661
    1STR    H1R 1661   0.277  13.448   6.908
    1STR    H1S 1662   0.064  13.393   7.033
    1STR    H1T 1663   0.040  13.253   6.929
    1STR    H1U 1664   0.031  13.416   6.863
    1STR    H1V 1665   0.412  13.257   6.992
    1STR    H1W 1666   0.270  13.159   7.012
    1STR    H1X 1667   0.299  13.404   7.344
    1STR    H1Y 1668   0.301  13.474   7.563
    1STR    H1Z 1669   0.208  13.464   7.789
    1STR    H20 1670  17.350  13.282   7.887
    1STR    H21 1671   0.067  13.239   7.958
    1STR    H22 1672   0.025  13.408   7.929
    1STR    H23 1673  17.311  13.093   7.600
    1STR    H27 1674   0.058  13.137   7.449
    1STR    H28 1675   0.124  13.541   5.721
    1STR    H29 1676   0.146  13.599   5.490
    1STR    H2A 1677   0.225  13.371   5.219
    1STR    H2B 1678   0.222  13.537   5.273
    1STR    H2C 1679   0.073  13.462   5.219
    1STR   BCK1 1680   4.364   4.346  13.972
    1STR    O03 1681   4.384   4.229  13.942
    1STR    N04 1682   4.302   4.388  14.084
    1STR    C05 1683   4.221   4.316  14.173
    1STR    C06 1684   4.235   4.331  14.315
    1STR    C07 1685   4.146   4.269  14.408
    1STR    N08 1686   4.159   4.289  14.549
    1STR    C09 1687   4.081   4.249  14.652
    1STR    O0A 1688   3.978   4.184  14.639
    1STR    O0B 1689   4.128   4.290  14.774
    1STR    C0C 1690   4.061   4.248  14.896
    1STR    C0D 1691   4.106   4.106  14.932
    1STR    C0E 1692   4.085   4.346  15.015
    1STR    O0F 1693   4.020   4.302  15.136
    1STR    C0G 1694   4.031   4.388  15.251
    1STR    C0H 1695   3.933   4.505  15.236
    1STR    C0I 1696   4.003   4.311  15.382
    1STR    O0J 1697   4.030   4.392  15.498
    1STR    C0K 1698   4.002   4.335  15.627
    1STR    C0M 1699   4.101   4.222  15.658
    1STR    C0N 1700   4.011   4.445  15.737
    1STR    O0O 1701   3.965   4.395  15.864
    1STR    C0P 1702   4.023   4.433  15.980
    1STR    O0Q 1703   4.120   4.508  15.990
    1STR    N0R 1704   3.962   4.373  16.082
    1STR    C0S 1705   3.991   4.367  16.219
    1STR    C0T 1706   3.931   4.262  16.292
    1STR    C0U 1707   3.963   4.239  16.426
    1STR    C0V 1708   4.055   4.323  16.494
    1STR    C0W 1709   4.100   4.281  16.632
    1STR    C0X 1710   4.109   4.436  16.427
    1STR    N0Y 1711   4.206   4.518  16.485
    1STR   BCK2 1712   4.219   4.585  16.601
    1STR    O10 1713   4.325   4.642  16.623
    1STR    C13 1714   4.078   4.455  16.289
    1STR    C14 1715   4.042   4.190  14.354
    1STR    C15 1716   4.025   4.176  14.215
    1STR    C16 1717   4.111   4.241  14.125
    1STR    C17 1718   4.078   4.231  13.977
    1STR    H1B 1719   4.309   4.487  14.099
    1STR    H1C 1720   4.316   4.391  14.352
    1STR    H1D 1721   4.239   4.341  14.580
    1STR    H1E 1722   3.953   4.247  14.878
    1STR    H1F 1723   4.213   4.101  14.951
    1STR    H1G 1724   4.054   4.070  15.021
    1STR    H1H 1725   4.083   4.036  14.851
    1STR    H1I 1726   4.048   4.445  14.986
    1STR    H1J 1727   4.192   4.356  15.033
    1STR    H1K 1728   4.134   4.426  15.257
    1STR    H1M 1729   3.831   4.470  15.223
    1STR    H1N 1730   3.957   4.569  15.150
    1STR    H1O 1731   3.935   4.569  15.324
    1STR    H1P 1732   3.899   4.276  15.384
    1STR    H1Q 1733   4.065   4.221  15.384
    1STR    H1R 1734   3.900   4.296  15.627
    1STR    H1S 1735   4.087   4.185  15.760
    1STR    H1T 1736   4.204   4.258  15.652
    1STR    H1U 1737   4.091   4.137  15.591
    1STR    H1V 1738   3.948   4.530  15.711
    1STR    H1W 1739   4.113   4.483  15.744
    1STR    H1X 1740   3.885   4.318  16.049
    1STR    H1Y 1741   3.863   4.193  16.243
    1STR    H1Z 1742   3.920   4.154  16.477
    1STR    H20 1743   4.204   4.307  16.649
    1STR    H21 1744   4.038   4.329  16.707
    1STR    H22 1745   4.092   4.173  16.645
    1STR    H23 1746   4.286   4.535  16.427
    1STR    H27 1747   4.123   4.537  16.236
    1STR    H28 1748   3.970   4.138  14.416
    1STR    H29 1749   3.942   4.118  14.179
    1STR    H2A 1750   4.095   4.326  13.926
    1STR    H2B 1751   3.973   4.206  13.961
    1STR    H2C 1752   4.138   4.155  13.929
    1STR   BCK1 1753   8.593  17.204  13.786
    1STR    O03 1754   8.483  17.186  13.838
    1STR    N04 1755   8.619  17.210  13.920
    1STR    C05 1756   8.727  17.227  14.017
    1STR    C06 1757   8.704  17.226  14.163
    1STR    C07 1758   8.806  17.240  14.267
    1STR    N08 1759   8.784  17.240  14.413
    1STR    C09 1760   8.871  17.241  14.523
    1STR    O0A 1761   8.992  17.237  14.508
    1STR    O0B 1762   8.815  17.248  14.660
    1STR    C0C 1763   8.898  17.259  14.787
    1STR    C0D 1764   8.967  17.397  14.787
    1STR    C0E 1765   8.834  17.233  14.937
    1STR    O0F 1766   8.907  17.261  15.067
    1STR    C0G 1767   8.855  17.216  15.202
    1STR    C0H 1768   8.880  17.064  15.206
    1STR    C0I 1769   8.911  17.277  15.345
    1STR    O0J 1770   8.837  17.251  15.476
    1STR    C0K 1771   8.891  17.280  15.614
    1STR    C0M 1772   8.954  17.420  15.617
    1STR    C0N 1773   8.793  17.265  15.746
    1STR    O0O 1774   8.839  17.298  15.885
    1STR    C0P 1775   8.752  17.314  16.001
    1STR    O0Q 1776   8.630  17.307  15.995
    1STR    N0R 1777   8.819  17.336  16.119
    1STR    C0S 1778   8.801  17.365  16.261
    1STR    C0T 1779   8.924  17.356  16.329
    1STR    C0U 1780   8.941  17.402  16.460
    1STR    C0V 1781   8.834   0.016  16.535
    1STR    C0W 1782   8.878   0.090  16.661
    1STR    C0X 1783   8.700   0.007  16.487
    1STR    N0Y 1784   8.585   0.029  16.576
    1STR   BCK2 1785   8.556   0.092  16.698
    1STR    O10 1786   8.627   0.176  16.751
    1STR    C13 1787   8.688  17.404  16.346
    1STR    C14 1788   8.936  17.258  14.214
    1STR    C15 1789   8.963  17.260  14.075
    1STR    C16 1790   8.862  17.245  13.977
    1STR    C17 1791   8.909  17.248  13.832
    1STR    H1B 1792   8.525  17.195  13.952
    1STR    H1C 1793   8.602  17.212  14.195
    1STR    H1D 1794   8.688  17.240  14.442
    1STR    H1E 1795   8.978  17.185  14.774
    1STR    H1F 1796   8.894   0.038  14.796
    1STR    H1G 1797   9.036  17.405  14.871
    1STR    H1H 1798   9.025  17.413  14.696
    1STR    H1I 1799   8.804  17.128  14.938
    1STR    H1J 1800   8.741  17.289  14.942
    1STR    H1K 1801   8.748  17.235  15.202
    1STR    H1M 1802   8.987  17.042  15.196
    1STR    H1N 1803   8.828  17.011  15.127
    1STR    H1O 1804   8.847  17.022  15.301
    1STR    H1P 1805   9.014  17.243  15.359
    1STR    H1Q 1806   8.919  17.385  15.334
    1STR    H1R 1807   8.973  17.209  15.629
    1STR    H1S 1808   8.998  17.440  15.715
    1STR    H1T 1809   8.879   0.057  15.599
    1STR    H1U 1810   9.034  17.431  15.544
    1STR    H1V 1811   8.760  17.161  15.750
    1STR    H1W 1812   8.702  17.322  15.728
    1STR    H1X 1813   8.916  17.330  16.095
    1STR    H1Y 1814   9.012  17.318  16.280
    1STR    H1Z 1815   9.040  17.400  16.502
    1STR    H20 1816   8.842   0.193  16.655
    1STR    H21 1817   8.845   0.045  16.754
    1STR    H22 1818   8.987   0.100  16.666
    1STR    H23 1819   8.501  17.425  16.543
    1STR    H27 1820   8.590  17.402  16.301
    1STR    H28 1821   9.021  17.272  14.279
    1STR    H29 1822   9.065  17.274  14.043
    1STR    H2A 1823   8.830  17.268  13.760
    1STR    H2B 1824   8.957  17.154  13.806
    1STR    H2C 1825   8.982  17.328  13.819
    1STR   BCK1 1826   8.829  13.123   9.327
    1STR    O03 1827   8.724  13.071   9.289
    1STR    N04 1828   8.849  13.163   9.459
    1STR    C05 1829   8.763  13.195   9.573
    1STR    C06 1830   8.799  13.177   9.716
    1STR    C07 1831   8.719  13.226   9.830
    1STR    N08 1832   8.750  13.215   9.973
    1STR    C09 1833   8.701  13.287  10.082
    1STR    O0A 1834   8.628  13.384  10.066
    1STR    O0B 1835   8.736  13.246  10.216
    1STR    C0C 1836   8.674  13.309  10.338
    1STR    C0D 1837   8.531  13.256  10.353
    1STR    C0E 1838   8.745  13.299  10.484
    1STR    O0F 1839   8.673  13.352  10.603
    1STR    C0G 1840   8.739  13.359  10.736
    1STR    C0H 1841   8.838  13.476  10.734
    1STR    C0I 1842   8.647  13.378  10.867
    1STR    O0J 1843   8.719  13.377  10.997
    1STR    C0K 1844   8.649  13.407  11.123
    1STR    C0M 1845   8.542  13.300  11.153
    1STR    C0N 1846   8.743  13.416  11.251
    1STR    O0O 1847   8.677  13.449  11.377
    1STR    C0P 1848   8.712  13.389  11.497
    1STR    O0Q 1849   8.789  13.294  11.507
    1STR    N0R 1850   8.652  13.447  11.603
    1STR    C0S 1851   8.647  13.418  11.742
    1STR    C0T 1852   8.573  13.506  11.824
    1STR    C0U 1853   8.552  13.479  11.961
    1STR    C0V 1854   8.605  13.364  12.022
    1STR    C0W 1855   8.565  13.333  12.166
    1STR    C0X 1856   8.689  13.278  11.945
    1STR    N0Y 1857   8.744  13.162  12.003
    1STR   BCK2 1858   8.814  13.149  12.116
    1STR    O10 1859   8.854  13.244  12.184
    1STR    C13 1860   8.707  13.305  11.806
    1STR    C14 1861   8.597  13.287   9.794
    1STR    C15 1862   8.561  13.308   9.660
    1STR    C16 1863   8.642  13.267   9.553
    1STR    C17 1864   8.599  13.317   9.417
    1STR    H1B 1865   8.947  13.176   9.478
    1STR    H1C 1866   8.891  13.126   9.738
    1STR    H1D 1867   8.815  13.144  10.000
    1STR    H1E 1868   8.666  13.416  10.317
    1STR    H1F 1869   8.530  13.149  10.377
    1STR    H1G 1870   8.478  13.308  10.433
    1STR    H1H 1871   8.473  13.271  10.262
    1STR    H1I 1872   8.841  13.350  10.476
    1STR    H1J 1873   8.769  13.195  10.504
    1STR    H1K 1874   8.794  13.266  10.751
    1STR    H1M 1875   8.787  13.571  10.717
    1STR    H1N 1876   8.914  13.465  10.657
    1STR    H1O 1877   8.890  13.484  10.829
    1STR    H1P 1878   8.592  13.471  10.859
    1STR    H1Q 1879   8.573  13.298  10.869
    1STR    H1R 1880   8.599  13.504  11.113
    1STR    H1S 1881   8.491  13.323  11.247
    1STR    H1T 1882   8.588  13.202  11.166
    1STR    H1U 1883   8.466  13.294  11.076
    1STR    H1V 1884   8.818  13.493  11.235
    1STR    H1W 1885   8.799  13.323  11.262
    1STR    H1X 1886   8.599  13.527  11.574
    1STR    H1Y 1887   8.528  13.595  11.784
    1STR    H1Z 1888   8.491  13.546  12.020
    1STR    H20 1889   8.559  13.225  12.183
    1STR    H21 1890   8.636  13.374  12.237
    1STR    H22 1891   8.466  13.373  12.189
    1STR    H23 1892   8.733  13.077  11.951
    1STR    H27 1893   8.767  13.237  11.748
    1STR    H28 1894   8.528  13.323   9.868
    1STR    H29 1895   8.469  13.361   9.641
    1STR    H2A 1896   8.687  13.358   9.368
    1STR    H2B 1897   8.528  13.399   9.424
    1STR    H2C 1898   8.554  13.238   9.358
    1STR   BCK1 1899  13.151   4.316  14.041
    1STR    O03 1900  13.246   4.241  14.026
    1STR    N04 1901  13.059   4.305  14.138
    1STR    C05 1902  13.043   4.196  14.224
    1STR    C06 1903  13.038   4.216  14.364
    1STR    C07 1904  13.015   4.108  14.455
    1STR    N08 1905  13.008   4.133  14.593
    1STR    C09 1906  12.991   4.050  14.697
    1STR    O0A 1907  12.980   3.928  14.688
    1STR    O0B 1908  12.988   4.116  14.816
    1STR    C0C 1909  12.983   4.043  14.941
    1STR    C0D 1910  13.126   3.995  14.974
    1STR    C0E 1911  12.924   4.129  15.056
    1STR    O0F 1912  12.923   4.057  15.181
    1STR    C0G 1913  12.866   4.125  15.294
    1STR    C0H 1914  12.713   4.117  15.284
    1STR    C0I 1915  12.917   4.061  15.426
    1STR    O0J 1916  12.894   4.143  15.543
    1STR    C0K 1917  12.943   4.092  15.669
    1STR    C0M 1918  13.097   4.081  15.665
    1STR    C0N 1919  12.902   4.180  15.791
    1STR    O0O 1920  12.959   4.126  15.911
    1STR    C0P 1921  12.966   4.195  16.027
    1STR    O0Q 1922  12.930   4.311  16.044
    1STR    N0R 1923  13.015   4.115  16.122
    1STR    C0S 1924  13.019   4.123  16.261
    1STR    C0T 1925  12.948   4.021  16.326
    1STR    C0U 1926  12.953   4.008  16.464
    1STR    C0V 1927  13.030   4.095  16.543
    1STR    C0W 1928  13.026   4.062  16.689
    1STR    C0X 1929  13.108   4.199  16.483
    1STR    N0Y 1930  13.205   4.275  16.555
    1STR   BCK2 1931  13.215   4.319  16.683
    1STR    O10 1932  13.137   4.400  16.730
    1STR    C13 1933  13.098   4.212  16.340
    1STR    C14 1934  12.998   3.979  14.399
    1STR    C15 1935  13.000   3.959  14.259
    1STR    C16 1936  13.020   4.067  14.171
    1STR    C17 1937  13.011   4.040  14.021
    1STR    H1B 1938  12.994   4.381  14.144
    1STR    H1C 1939  13.054   4.316  14.403
    1STR    H1D 1940  13.019   4.229  14.624
    1STR    H1E 1941  12.919   3.956  14.928
    1STR    H1F 1942  13.194   4.078  14.986
    1STR    H1G 1943  13.127   3.936  15.066
    1STR    H1H 1944  13.165   3.931  14.894
    1STR    H1I 1945  12.823   4.158  15.028
    1STR    H1J 1946  12.981   4.221  15.066
    1STR    H1K 1947  12.898   4.230  15.293
    1STR    H1M 1948  12.679   4.013  15.275
    1STR    H1N 1949  12.674   4.172  15.198
    1STR    H1O 1950  12.665   4.159  15.373
    1STR    H1P 1951  12.873   3.962  15.439
    1STR    H1Q 1952  13.024   4.046  15.413
    1STR    H1R 1953  12.901   3.992  15.685
    1STR    H1S 1954  13.137   4.052  15.762
    1STR    H1T 1955  13.142   4.178  15.639
    1STR    H1U 1956  13.133   4.007  15.594
    1STR    H1V 1957  12.793   4.184  15.801
    1STR    H1W 1958  12.935   4.283  15.778
    1STR    H1X 1959  13.035   4.024  16.082
    1STR    H1Y 1960  12.889   3.950  16.269
    1STR    H1Z 1961  12.898   3.928  16.511
    1STR    H20 1962  13.081   4.131  16.750
    1STR    H21 1963  12.922   4.064  16.722
    1STR    H22 1964  13.063   3.962  16.705
    1STR    H23 1965  13.270   4.325  16.496
    1STR    H27 1966  13.154   4.288  16.289
    1STR    H28 1967  12.981   3.892  14.460
    1STR    H29 1968  12.985   3.860  14.220
    1STR    H2A 1969  12.963   4.123  13.970
    1STR    H2B 1970  12.953   3.951  14.000
    1STR    H2C 1971  13.111   4.027  13.979
    1STR   BCK1 1972  13.053   8.957   0.688
    1STR    O03 1973  13.059   9.079   0.675
    1STR    N04 1974  13.088   8.893   0.807
    1STR    C05 1975  13.166   8.932   0.924
    1STR    C06 1976  13.133   8.894   1.062
    1STR    C07 1977  13.220   8.918   1.178
    1STR    N08 1978  13.197   8.879   1.316
    1STR    C09 1979  13.260   8.921   1.432
    1STR    O0A 1980  13.338   9.015   1.433
    1STR    O0B 1981  13.233   8.852   1.555
    1STR    C0C 1982  13.297   8.893   1.683
    1STR    C0D 1983  13.235   9.026   1.731
    1STR    C0E 1984  13.300   8.793   1.808
    1STR    O0F 1985  13.356   8.850   1.933
    1STR    C0G 1986  13.366   8.768   2.055
    1STR    C0H 1987  13.484   8.670   2.040
    1STR    C0I 1988  13.386   8.850   2.189
    1STR    O0J 1989  13.393   8.769   2.311
    1STR    C0K 1990  13.418   8.835   2.438
    1STR    C0M 1991  13.297   8.919   2.481
    1STR    C0N 1992  13.451   8.735   2.554
    1STR    O0O 1993  13.491   8.800   2.677
    1STR    C0P 1994  13.426   8.777   2.796
    1STR    O0Q 1995  13.325   8.709   2.807
    1STR    N0R 1996  13.488   8.840   2.898
    1STR    C0S 1997  13.455   8.854   3.034
    1STR    C0T 1998  13.531   8.944   3.112
    1STR    C0U 1999  13.498   8.971   3.246
    1STR    C0V 2000  13.389   8.908   3.308
    1STR    C0W 2001  13.348   8.953   3.448
    1STR    C0X 2002  13.316   8.810   3.236
    1STR    N0Y 2003  13.207   8.744   3.293
    1STR   BCK2 2004  13.199   8.666   3.401
    1STR    O10 2005  13.090   8.619   3.434
    1STR    C13 2006  13.348   8.785   3.100
    1STR    C14 2007  13.343   8.979   1.147
    1STR    C15 2008  13.378   9.016   1.017
    1STR    C16 2009  13.294   8.994   0.907
    1STR    C17 2010  13.359   9.027   0.774
    1STR    H1B 2011  13.050   8.800   0.811
    1STR    H1C 2012  13.039   8.845   1.079
    1STR    H1D 2013  13.126   8.809   1.334
    1STR    H1E 2014  13.402   8.914   1.659
    1STR    H1F 2015  13.131   9.013   1.761
    1STR    H1G 2016  13.289   9.064   1.818
    1STR    H1H 2017  13.240   9.103   1.655
    1STR    H1I 2018  13.358   8.705   1.781
    1STR    H1J 2019  13.199   8.759   1.829
    1STR    H1K 2020  13.274   8.711   2.066
    1STR    H1M 2021  13.578   8.723   2.028
    1STR    H1N 2022  13.471   8.602   1.956
    1STR    H1O 2023  13.493   8.608   2.129
    1STR    H1P 2024  13.477   8.909   2.182
    1STR    H1Q 2025  13.304   8.921   2.199
    1STR    H1R 2026  13.505   8.901   2.427
    1STR    H1S 2027  13.315   8.966   2.578
    1STR    H1T 2028  13.209   8.856   2.493
    1STR    H1U 2029  13.274   8.999   2.411
    1STR    H1V 2030  13.534   8.670   2.524
    1STR    H1W 2031  13.367   8.668   2.571
    1STR    H1X 2032  13.570   8.887   2.866
    1STR    H1Y 2033  13.615   8.997   3.069
    1STR    H1Z 2034  13.556   9.044   3.301
    1STR    H20 2035  13.240   8.941   3.464
    1STR    H21 2036  13.400   8.896   3.525
    1STR    H22 2037  13.370   9.058   3.464
    1STR    H23 2038  13.120   8.748   3.243
    1STR    H27 2039  13.290   8.713   3.046
    1STR    H28 2040  13.419   8.996   1.222
    1STR    H29 2041  13.475   9.060   1.002
    1STR    H2A 2042  13.434   8.951   0.753
    1STR    H2B 2043  13.412   9.122   0.782
    1STR    H2C 2044  13.293   9.035   0.689
    1HEX    C01 2045   0.280  17.286  16.749
    1HEX    C02 2046   0.218  17.288  16.889
    1HEX    C03 2047   0.066  17.289  16.879
    1HEX    O04 2048   0.004  17.190  16.842
    1HEX    O05 2049   0.013  17.408  16.913
    1HEX    C06 2050  17.312  17.424  16.919
    1HEX    C07 2051  17.262  17.422  17.065
    1HEX    C08 2052  17.311   0.110  17.135
    1HEX    O09 2053  17.244   0.231  17.099
    1HEX    C0A 2054  17.176   0.298  17.194
    1HEX    O0B 2055  17.131   0.250  17.297
    1HEX    C0C 2056  17.166   0.447  17.164
    1HEX    C0D 2057  17.179   0.530  17.293
    1HEX    C0F 2058  17.106  17.421  17.065
    1HEX    O0G 2059  17.060  17.298  17.009
    1HEX    C0H 2060  17.006  17.294  16.886
    1HEX    O0I 2061  16.973  17.391  16.818
    1HEX    C0J 2062  16.995  17.153  16.831
    1HEX    C0K 2063  16.875  17.079  16.890
    1HEX    C0N 2064  17.307  17.292  17.141
    1HEX    O0O 2065   0.004  17.275  17.184
    1HEX    C0P 2066   0.068  17.356  17.284
    1HEX    C0Q 2067   0.033  17.343  17.436
    1HEX    C0R 2068   0.066  17.199   0.043
    1HEX    O0S 2069   0.207  17.174   0.039
    1HEX    C0T 2070   0.278  17.166   0.154
    1HEX    O0U 2071   0.233  17.174   0.268
    1HEX    C0V 2072   0.427  17.143   0.129
    1HEX    C0W 2073   0.509  17.273   0.119
    1HEX    C0Y 2074   0.123   0.005   0.069
    1HEX    O0Z 2075   0.101  17.439   0.209
    1HEX    C10 2076   0.187   0.058   0.291
    1HEX    O11 2077   0.288   0.120   0.257
    1HEX    C12 2078   0.148   0.040   0.437
    1HEX    C13 2079   0.255   0.091   0.534
    1HEX    C15 2080  17.325  17.381   0.027
    1HEX    O16 2081  17.287  17.361   0.163
    1HEX    C17 2082  17.213  17.255   0.199
    1HEX    O18 2083  17.179  17.162   0.126
    1HEX    C19 2084  17.168  17.263   0.344
    1HEX    C1A 2085  17.086  17.390   0.368
    1HEX    H1C 2086   0.488  17.289  16.635
    1HEX    H1D 2087   0.252  17.194  16.697
    1HEX    H1E 2088   0.244  17.370  16.690
    1HEX    H1F 2089   0.250  17.376  16.945
    1HEX    H1G 2090   0.247  17.201  16.947
    1HEX    H1H 2091  17.263  17.349  16.858
    1HEX    H1I 2092  17.286   0.079  16.872
    1HEX    H1J 2093  17.415   0.127  17.108
    1HEX    H1K 2094  17.308   0.096  17.242
    1HEX    H1M 2095  17.073   0.469  17.112
    1HEX    H1N 2096  17.247   0.472  17.096
    1HEX    H1O 2097  17.255   0.487  17.360
    1HEX    H1P 2098  17.085   0.528  17.349
    1HEX    H1Q 2099  17.352   0.677  17.220
    1HEX    H1R 2100  17.066   0.068  17.012
    1HEX    H1S 2101  17.067  17.429  17.166
    1HEX    H1T 2102  17.088  17.100  16.854
    1HEX    H1U 2103  16.988  17.158  16.723
    1HEX    H1V 2104  16.782  17.131  16.866
    1HEX    H1W 2105  16.882  17.075  16.999
    1HEX    H1X 2106  16.854  16.943  16.695
    1HEX    H1Y 2107  17.293  17.209  17.070
    1HEX    H1Z 2108  17.237  17.264  17.218
    1HEX    H20 2109   0.075   0.019  17.255
    1HEX    H21 2110   0.172  17.324  17.275
    1HEX    H22 2111   0.015  17.126  17.421
    1HEX    H23 2112   0.027  17.182   0.144
    1HEX    H24 2113   0.436  17.086   0.037
    1HEX    H25 2114   0.466  17.079   0.209
    1HEX    H26 2115   0.461  17.345   0.053
    1HEX    H27 2116   0.607  17.251   0.077
    1HEX    H28 2117   0.420  17.420   0.283
    1HEX    H29 2118   0.103   0.107   0.036
    1HEX    H2A 2119   0.228  17.426   0.048
    1HEX    H2B 2120   0.130  17.373   0.453
    1HEX    H2C 2121   0.054   0.091   0.452
    1HEX    H2D 2122   0.286   0.193   0.508
    1HEX    H2E 2123   0.345   0.029   0.528
    1HEX    H2F 2124   0.092   0.179   0.683
    1HEX    H2G 2125  17.254  17.328  17.405
    1HEX    H2H 2126  17.308   0.046   0.009
    1HEX    H2I 2127  17.257  17.261   0.408
    1HEX    H2J 2128  17.111  17.173   0.368
    1HEX    H2K 2129  17.000  17.393   0.301
    1HEX    H2M 2130  17.146   0.039   0.346
    1HEX    H2N 2131  16.946  17.293   0.535
    1STR    S00 2132   0.461  17.295  16.766
    1STR    S0E 2133  17.225   0.701  17.254
    1STR    S0M 2134  16.870  16.910  16.824
    1STR    S0X 2135   0.534  17.350   0.282
    1STR    S14 2136   0.188   0.089   0.703
    1STR    S1B 2137  17.030  17.397   0.540
    1HEX    C01 2138   0.275  17.286   3.674
    1HEX    C02 2139   0.216  17.290   3.815
    1HEX    C03 2140   0.064  17.289   3.809
    1HEX    O04 2141   0.002  17.189   3.774
    1HEX    O05 2142   0.011  17.409   3.841
    1HEX    C06 2143  17.310  17.424   3.846
    1HEX    C07 2144  17.258  17.430   3.992
    1HEX    C08 2145  17.305   0.122   4.055
    1HEX    O09 2146  17.235   0.240   4.018
    1HEX    C0A 2147  17.171   0.309   4.114
    1HEX    O0B 2148  17.126   0.262   4.218
    1HEX    C0C 2149  17.166   0.459   4.086
    1HEX    C0D 2150  17.183   0.539   4.217
    1HEX    C0F 2151  17.103  17.425   3.990
    1HEX    O0G 2152  17.060  17.301   3.934
    1HEX    C0H 2153  17.004  17.295   3.812
    1HEX    O0I 2154  16.967  17.391   3.745
    1HEX    C0J 2155  16.996  17.153   3.758
    1HEX    C0K 2156  16.874  17.079   3.813
    1HEX    C0N 2157  17.307  17.307   4.077
    1HEX    O0O 2158   0.004  17.297   4.119
    1HEX    C0P 2159   0.070  17.385   4.213
    1HEX    C0Q 2160   0.036  17.383   4.366
    1HEX    C0R 2161   0.043  17.236   4.419
    1HEX    O0S 2162   0.158  17.156   4.391
    1HEX    C0T 2163   0.191  17.058   4.480
    1HEX    O0U 2164   0.172  17.065   4.601
    1HEX    C0V 2165   0.259  16.936   4.418
    1HEX    C0W 2166   0.235  16.802   4.494
    1HEX    C0Y 2167   0.138   0.039   4.439
    1HEX    O0Z 2168   0.091   0.175   4.450
    1HEX    C10 2169   0.174   0.279   4.482
    1HEX    O11 2170   0.297   0.275   4.479
    1HEX    C12 2171   0.099   0.403   4.535
    1HEX    C13 2172   0.178   0.537   4.555
    1HEX    C15 2173  17.332  17.434   4.396
    1HEX    O16 2174  17.289  17.406   4.529
    1HEX    C17 2175  17.201  17.305   4.552
    1HEX    O18 2176  17.154  17.230   4.468
    1HEX    C19 2177  17.163  17.294   4.698
    1HEX    C1A 2178  17.074  17.412   4.738
    1HEX    H1C 2179   0.480  17.289   3.555
    1HEX    H1D 2180   0.245  17.195   3.623
    1HEX    H1E 2181   0.238  17.370   3.615
    1HEX    H1F 2182   0.249  17.378   3.870
    1HEX    H1G 2183   0.247  17.202   3.873
    1HEX    H1H 2184  17.261  17.346   3.789
    1HEX    H1I 2185  17.283   0.077   3.794
    1HEX    H1J 2186  17.408   0.141   4.026
    1HEX    H1K 2187  17.306   0.113   4.163
    1HEX    H1M 2188  17.074   0.485   4.035
    1HEX    H1N 2189  17.248   0.482   4.018
    1HEX    H1O 2190  17.260   0.495   4.280
    1HEX    H1P 2191  17.090   0.536   4.275
    1HEX    H1Q 2192  17.355   0.689   4.150
    1HEX    H1R 2193  17.062   0.071   3.935
    1HEX    H1S 2194  17.062  17.435   4.091
    1HEX    H1T 2195  17.088  17.101   3.783
    1HEX    H1U 2196  16.992  17.159   3.649
    1HEX    H1V 2197  16.782  17.132   3.788
    1HEX    H1W 2198  16.879  17.073   3.922
    1HEX    H1X 2199  16.855  16.947   3.615
    1HEX    H1Y 2200  17.293  17.219   4.014
    1HEX    H1Z 2201  17.239  17.285   4.160
    1HEX    H20 2202   0.078   0.047   4.177
    1HEX    H21 2203   0.174  17.350   4.206
    1HEX    H22 2204  17.400  17.180   4.378
    1HEX    H23 2205   0.026  17.238   4.527
    1HEX    H24 2206   0.366  16.959   4.419
    1HEX    H25 2207   0.230  16.927   4.313
    1HEX    H26 2208   0.243  16.818   4.602
    1HEX    H27 2209   0.317  16.734   4.470
    1HEX    H29 2210   0.235   0.037   4.390
    1HEX    H2A 2211   0.156   0.002   4.540
    1HEX    H2B 2212   0.066   0.371   4.634
    1HEX    H2C 2213   0.007   0.419   4.478
    1HEX    H2D 2214   0.285   0.517   4.565
    1HEX    H2E 2215   0.150   0.579   4.652
    1HEX    H2G 2216  17.259  17.395   4.327
    1HEX    H2H 2217  17.322   0.102   4.382
    1HEX    H2I 2218  17.253  17.290   4.759
    1HEX    H2J 2219  17.110  17.199   4.713
    1HEX    H2K 2220  16.986  17.417   4.674
    1HEX    H2M 2221  17.129   0.066   4.725
    1HEX    H2N 2222  16.945  17.288   4.895
    1STR    S00 2223   0.456  17.295   3.686
    1STR    S0E 2224  17.227   0.711   4.182
    1STR    S0M 2225  16.869  16.912   3.743
    1STR    S0X 2226   0.076  16.715   4.460
    1STR    S14 2227   0.156   0.672   4.430
    1STR    S1B 2228  17.023  17.396   4.911
    1HEX    C01 2229   0.280  17.286   8.029
    1HEX    C02 2230   0.218  17.288   8.169
    1HEX    C03 2231   0.066  17.290   8.159
    1HEX    O04 2232   0.004  17.190   8.122
    1HEX    O05 2233   0.013  17.408   8.193
    1HEX    C06 2234  17.312  17.424   8.199
    1HEX    C07 2235  17.262  17.422   8.345
    1HEX    C08 2236  17.311   0.110   8.415
    1HEX    O09 2237  17.244   0.231   8.379
    1HEX    C0A 2238  17.176   0.298   8.474
    1HEX    O0B 2239  17.131   0.250   8.577
    1HEX    C0C 2240  17.166   0.447   8.444
    1HEX    C0D 2241  17.179   0.530   8.574
    1HEX    C0F 2242  17.106  17.421   8.345
    1HEX    O0G 2243  17.060  17.298   8.289
    1HEX    C0H 2244  17.006  17.294   8.166
    1HEX    O0I 2245  16.973  17.391   8.098
    1HEX    C0J 2246  16.995  17.153   8.111
    1HEX    C0K 2247  16.875  17.079   8.170
    1HEX    C0N 2248  17.307  17.292   8.421
    1HEX    O0O 2249   0.004  17.275   8.464
    1HEX    C0P 2250   0.068  17.356   8.564
    1HEX    C0Q 2251   0.033  17.343   8.716
    1HEX    C0R 2252   0.066  17.199   8.763
    1HEX    O0S 2253   0.207  17.174   8.759
    1HEX    C0T 2254   0.278  17.166   8.874
    1HEX    O0U 2255   0.233  17.174   8.988
    1HEX    C0V 2256   0.427  17.143   8.849
    1HEX    C0W 2257   0.509  17.273   8.839
    1HEX    C0Y 2258   0.123   0.005   8.789
    1HEX    O0Z 2259   0.101  17.439   8.929
    1HEX    C10 2260   0.187   0.058   9.011
    1HEX    O11 2261   0.288   0.120   8.977
    1HEX    C12 2262   0.148   0.040   9.157
    1HEX    C13 2263   0.255   0.091   9.254
    1HEX    C15 2264  17.325  17.381   8.747
    1HEX    O16 2265  17.287  17.361   8.883
    1HEX    C17 2266  17.213  17.255   8.919
    1HEX    O18 2267  17.179  17.162   8.846
    1HEX    C19 2268  17.168  17.263   9.064
    1HEX    C1A 2269  17.086  17.390   9.088
    1HEX    H1C 2270   0.488  17.289   7.915
    1HEX    H1D 2271   0.252  17.194   7.977
    1HEX    H1E 2272   0.244  17.370   7.970
    1HEX    H1F 2273   0.250  17.376   8.225
    1HEX    H1G 2274   0.247  17.201   8.227
    1HEX    H1H 2275  17.263  17.349   8.138
    1HEX    H1I 2276  17.286   0.079   8.152
    1HEX    H1J 2277  17.415   0.127   8.388
    1HEX    H1K 2278  17.308   0.096   8.522
    1HEX    H1M 2279  17.073   0.469   8.392
    1HEX    H1N 2280  17.247   0.472   8.376
    1HEX    H1O 2281  17.254   0.487   8.640
    1HEX    H1P 2282  17.085   0.528   8.629
    1HEX    H1Q 2283  17.352   0.677   8.500
    1HEX    H1R 2284  17.066   0.068   8.292
    1HEX    H1S 2285  17.067  17.429   8.446
    1HEX    H1T 2286  17.088  17.100   8.134
    1HEX    H1U 2287  16.988  17.158   8.003
    1HEX    H1V 2288  16.782  17.131   8.146
    1HEX    H1W 2289  16.882  17.075   8.279
    1HEX    H1X 2290  16.854  16.943   7.975
    1HEX    H1Y 2291  17.293  17.209   8.350
    1HEX    H1Z 2292  17.237  17.264   8.498
    1HEX    H20 2293   0.075   0.019   8.535
    1HEX    H21 2294   0.172  17.324   8.555
    1HEX    H22 2295   0.015  17.126   8.701
    1HEX    H23 2296   0.027  17.182   8.864
    1HEX    H24 2297   0.436  17.086   8.757
    1HEX    H25 2298   0.466  17.079   8.929
    1HEX    H26 2299   0.461  17.345   8.773
    1HEX    H27 2300   0.607  17.251   8.797
    1HEX    H28 2301   0.420  17.420   9.003
    1HEX    H29 2302   0.103   0.107   8.756
    1HEX    H2A 2303   0.228  17.426   8.768
    1HEX    H2B 2304   0.130  17.373   9.173
    1HEX    H2C 2305   0.054   0.091   9.172
    1HEX    H2D 2306   0.286   0.193   9.228
    1HEX    H2E 2307   0.345   0.029   9.248
    1HEX    H2F 2308   0.092   0.179   9.403
    1HEX    H2G 2309  17.254  17.328   8.685
    1HEX    H2H 2310  17.308   0.046   8.729
    1HEX    H2I 2311  17.257  17.261   9.128
    1HEX    H2J 2312  17.111  17.173   9.088
    1HEX    H2K 2313  17.000  17.393   9.021
    1HEX    H2M 2314  17.146   0.039   9.066
    1HEX    H2N 2315  16.946  17.293   9.255
    1STR    S00 2316   0.461  17.295   8.046
    1STR    S0E 2317  17.225   0.701   8.535
    1STR    S0M 2318  16.870  16.910   8.104
    1STR    S0X 2319   0.534  17.350   9.002
    1STR    S14 2320   0.188   0.089   9.423
    1STR    S1B 2321  17.030  17.397   9.260
    1HEX    C01 2322   0.280  17.286  12.389
    1HEX    C02 2323   0.218  17.288  12.529
    1HEX    C03 2324   0.066  17.289  12.519
    1HEX    O04 2325   0.004  17.190  12.482
    1HEX    O05 2326   0.013  17.408  12.553
    1HEX    C06 2327  17.312  17.424  12.559
    1HEX    C07 2328  17.262  17.422  12.705
    1HEX    C08 2329  17.311   0.110  12.775
    1HEX    O09 2330  17.244   0.231  12.739
    1HEX    C0A 2331  17.176   0.298  12.834
    1HEX    O0B 2332  17.131   0.250  12.937
    1HEX    C0C 2333  17.166   0.447  12.804
    1HEX    C0D 2334  17.179   0.530  12.934
    1HEX    C0F 2335  17.106  17.421  12.705
    1HEX    O0G 2336  17.060  17.298  12.649
    1HEX    C0H 2337  17.006  17.294  12.526
    1HEX    O0I 2338  16.973  17.391  12.458
    1HEX    C0J 2339  16.995  17.153  12.471
    1HEX    C0K 2340  16.874  17.079  12.530
    1HEX    C0N 2341  17.307  17.292  12.781
    1HEX    O0O 2342   0.004  17.275  12.824
    1HEX    C0P 2343   0.068  17.356  12.924
    1HEX    C0Q 2344   0.033  17.343  13.076
    1HEX    C0R 2345   0.066  17.199  13.123
    1HEX    O0S 2346   0.207  17.174  13.119
    1HEX    C0T 2347   0.278  17.166  13.234
    1HEX    O0U 2348   0.233  17.173  13.348
    1HEX    C0V 2349   0.427  17.143  13.209
    1HEX    C0W 2350   0.509  17.273  13.199
    1HEX    C0Y 2351   0.123   0.005  13.149
    1HEX    O0Z 2352   0.101  17.439  13.289
    1HEX    C10 2353   0.187   0.058  13.371
    1HEX    O11 2354   0.288   0.120  13.337
    1HEX    C12 2355   0.148   0.040  13.517
    1HEX    C13 2356   0.255   0.091  13.614
    1HEX    C15 2357  17.325  17.381  13.107
    1HEX    O16 2358  17.287  17.361  13.243
    1HEX    C17 2359  17.213  17.255  13.279
    1HEX    O18 2360  17.179  17.162  13.206
    1HEX    C19 2361  17.168  17.263  13.424
    1HEX    C1A 2362  17.086  17.390  13.448
    1HEX    H1C 2363   0.488  17.289  12.275
    1HEX    H1D 2364   0.252  17.194  12.337
    1HEX    H1E 2365   0.244  17.370  12.330
    1HEX    H1F 2366   0.250  17.376  12.585
    1HEX    H1G 2367   0.247  17.201  12.587
    1HEX    H1H 2368  17.263  17.349  12.498
    1HEX    H1I 2369  17.286   0.079  12.512
    1HEX    H1J 2370  17.415   0.127  12.748
    1HEX    H1K 2371  17.308   0.096  12.882
    1HEX    H1M 2372  17.073   0.469  12.752
    1HEX    H1N 2373  17.247   0.472  12.736
    1HEX    H1O 2374  17.255   0.487  13.000
    1HEX    H1P 2375  17.085   0.528  12.989
    1HEX    H1Q 2376  17.352   0.677  12.860
    1HEX    H1R 2377  17.066   0.068  12.652
    1HEX    H1S 2378  17.067  17.429  12.806
    1HEX    H1T 2379  17.088  17.100  12.494
    1HEX    H1U 2380  16.988  17.158  12.363
    1HEX    H1V 2381  16.782  17.131  12.506
    1HEX    H1W 2382  16.882  17.075  12.639
    1HEX    H1X 2383  16.854  16.943  12.335
    1HEX    H1Y 2384  17.293  17.209  12.710
    1HEX    H1Z 2385  17.237  17.264  12.858
    1HEX    H20 2386   0.075   0.019  12.895
    1HEX    H21 2387   0.172  17.324  12.915
    1HEX    H22 2388   0.015  17.126  13.061
    1HEX    H23 2389   0.027  17.182  13.224
    1HEX    H24 2390   0.436  17.086  13.117
    1HEX    H25 2391   0.466  17.079  13.289
    1HEX    H26 2392   0.461  17.345  13.133
    1HEX    H27 2393   0.607  17.251  13.157
    1HEX    H28 2394   0.420  17.420  13.363
    1HEX    H29 2395   0.103   0.107  13.116
    1HEX    H2A 2396   0.228  17.426  13.128
    1HEX    H2B 2397   0.130  17.373  13.533
    1HEX    H2C 2398   0.054   0.091  13.532
    1HEX    H2D 2399   0.286   0.193  13.588
    1HEX    H2E 2400   0.345   0.029  13.608
    1HEX    H2F 2401   0.092   0.179  13.763
    1HEX    H2G 2402  17.254  17.328  13.045
    1HEX    H2H 2403  17.308   0.046  13.089
    1HEX    H2I 2404  17.257  17.261  13.488
    1HEX    H2J 2405  17.111  17.173  13.448
    1HEX    H2K 2406  17.000  17.393  13.381
    1HEX    H2M 2407  17.146   0.039  13.426
    1HEX    H2N 2408  16.946  17.293  13.615
    1STR    S00 2409   0.461  17.295  12.406
    1STR    S0E 2410  17.225   0.701  12.895
    1STR    S0M 2411  16.870  16.910  12.464
    1STR    S0X 2412   0.534  17.350  13.362
    1STR    S14 2413   0.188   0.089  13.783
    1STR    S1B 2414  17.030  17.396  13.620
    1HEX    C01 2415   0.023   4.886  17.044
    1HEX    C02 2416   0.090   4.762  17.113
    1HEX    C03 2417   0.066   4.621  17.053
    1HEX    O04 2418   0.162   4.548  17.029
    1HEX    O05 2419  17.377   4.582  17.038
    1HEX    C06 2420  17.342   4.447  16.995
    1HEX    C07 2421  17.250   4.368  17.096
    1HEX    C08 2422  17.213   4.460  17.215
    1HEX    O09 2423  17.137   4.567  17.164
    1HEX    C0A 2424  17.121   4.677  17.235
    1HEX    O0B 2425  17.149   4.691  17.354
    1HEX    C0C 2426  17.066   4.789  17.148
    1HEX    C0D 2427  17.050   4.920  17.224
    1HEX    C0F 2428  17.112   4.335  17.030
    1HEX    O0G 2429  17.115   4.225  16.940
    1HEX    C0H 2430  17.009   4.204  16.860
    1HEX    O0I 2431  16.919   4.286  16.838
    1HEX    C0J 2432  17.003   4.064  16.803
    1HEX    C0K 2433  16.886   3.987  16.866
    1HEX    C0N 2434  17.312   4.231  17.142
    1HEX    O0O 2435   0.008   4.220  17.182
    1HEX    C0P 2436   0.068   4.303  17.282
    1HEX    C0Q 2437   0.041   4.272  17.433
    1HEX    C0R 2438   0.079   4.126   0.028
    1HEX    O0S 2439   0.220   4.105   0.029
    1HEX    C0T 2440   0.286   4.088   0.146
    1HEX    O0U 2441   0.236   4.087   0.258
    1HEX    C0V 2442   0.435   4.065   0.127
    1HEX    C0W 2443   0.516   4.196   0.119
    1HEX    C0Y 2444   0.130   4.371   0.071
    1HEX    O0Z 2445   0.109   4.360   0.210
    1HEX    C10 2446   0.193   4.420   0.294
    1HEX    O11 2447   0.292   4.485   0.262
    1HEX    C12 2448   0.151   4.400   0.439
    1HEX    C13 2449   0.257   4.451   0.537
    1HEX    C15 2450  17.333   4.299   0.031
    1HEX    O16 2451  17.299   4.271   0.166
    1HEX    C17 2452  17.216   4.171   0.198
    1HEX    O18 2453  17.173   4.086   0.120
    1HEX    C19 2454  17.171   4.178   0.343
    1HEX    C1A 2455  17.090   4.306   0.366
    1HEX    H1D 2456   0.097   4.938  16.983
    1HEX    H1E 2457  17.388   4.850  16.973
    1HEX    H1F 2458   0.067   4.758  17.219
    1HEX    H1G 2459   0.198   4.777  17.108
    1HEX    H1H 2460  17.430   4.387  16.971
    1HEX    H1I 2461  17.290   4.458  16.900
    1HEX    H1J 2462  17.302   4.500  17.263
    1HEX    H1K 2463  17.154   4.409  17.290
    1HEX    H1M 2464  16.972   4.757  17.102
    1HEX    H1N 2465  17.138   4.801  17.067
    1HEX    H1O 2466  17.140   4.939  17.283
    1HEX    H1P 2467  16.967   4.915  17.295
    1HEX    H1Q 2468  17.126   5.130  17.145
    1HEX    H1R 2469  17.071   4.423  16.980
    1HEX    H1S 2470  17.039   4.309  17.107
    1HEX    H1T 2471  17.098   4.013  16.821
    1HEX    H1U 2472  16.991   4.071  16.695
    1HEX    H1V 2473  16.791   4.037  16.845
    1HEX    H1W 2474  16.897   3.985  16.975
    1HEX    H1X 2475  16.850   3.847  16.676
    1HEX    H1Y 2476  17.311   4.164  17.056
    1HEX    H1Z 2477  17.246   4.180  17.211
    1HEX    H20 2478   0.054   4.407  17.257
    1HEX    H21 2479   0.175   4.287  17.266
    1HEX    H22 2480   0.033   4.057  17.397
    1HEX    H23 2481   0.036   4.098   0.124
    1HEX    H24 2482   0.448   4.008   0.035
    1HEX    H25 2483   0.472   4.003   0.208
    1HEX    H26 2484   0.468   4.268   0.051
    1HEX    H27 2485   0.615   4.176   0.078
    1HEX    H28 2486   0.422   4.342   0.282
    1HEX    H29 2487   0.109   4.475   0.043
    1HEX    H2A 2488   0.235   4.354   0.049
    1HEX    H2B 2489   0.132   4.294   0.454
    1HEX    H2C 2490   0.056   4.452   0.452
    1HEX    H2D 2491   0.287   4.553   0.512
    1HEX    H2E 2492   0.346   4.389   0.532
    1HEX    H2F 2493   0.091   4.539   0.684
    1HEX    H2G 2494  17.266   4.245  17.406
    1HEX    H2H 2495  17.312   4.405   0.019
    1HEX    H2I 2496  17.260   4.176   0.406
    1HEX    H2J 2497  17.113   4.089   0.365
    1HEX    H2K 2498  17.004   4.310   0.299
    1HEX    H2M 2499  17.151   4.394   0.344
    1HEX    H2N 2500  16.948   4.212   0.532
    1STR    S00 2501  17.381   5.014  17.153
    1STR    S0E 2502  17.024   5.054  17.104
    1STR    S0M 2503  16.882   3.817  16.803
    1STR    S0X 2504   0.537   4.272   0.282
    1STR    S14 2505   0.187   4.449   0.705
    1STR    S1B 2506  17.034   4.314   0.538
    1HEX    C01 2507   0.271   4.210   3.663
    1HEX    C02 2508   0.211   4.218   3.804
    1HEX    C03 2509   0.062   4.193   3.803
    1HEX    O04 2510   0.016   4.082   3.774
    1HEX    O05 2511  17.430   4.301   3.840
    1HEX    C06 2512  17.292   4.286   3.869
    1HEX    C07 2513  17.265   4.276   4.022
    1HEX    C08 2514  17.263   4.418   4.084
    1HEX    O09 2515  17.173   4.519   4.039
    1HEX    C0A 2516  17.143   4.616   4.129
    1HEX    O0B 2517  17.119   4.595   4.248
    1HEX    C0C 2518  17.152   4.758   4.074
    1HEX    C0D 2519  17.170   4.860   4.189
    1HEX    C0F 2520  17.132   4.197   4.043
    1HEX    O0G 2521  17.158   4.055   4.039
    1HEX    C0H 2522  17.134   3.980   3.928
    1HEX    O0I 2523  17.059   4.015   3.837
    1HEX    C0J 2524  17.216   3.850   3.917
    1HEX    C0K 2525  17.222   3.756   4.042
    1HEX    C0N 2526  17.374   4.197   4.102
    1HEX    O0O 2527   0.066   4.251   4.101
    1HEX    C0P 2528   0.112   4.343   4.200
    1HEX    C0Q 2529   0.173   4.286   4.332
    1HEX    C0R 2530   0.221   4.141   4.294
    1HEX    O0S 2531   0.314   4.066   4.374
    1HEX    C0T 2532   0.296   3.930   4.380
    1HEX    O0U 2533   0.191   3.871   4.352
    1HEX    C0V 2534   0.420   3.845   4.408
    1HEX    C0W 2535   0.530   3.903   4.498
    1HEX    C0Y 2536   0.288   4.389   4.370
    1HEX    O0Z 2537   0.286   4.437   4.505
    1HEX    C10 2538   0.248   4.562   4.536
    1HEX    O11 2539   0.248   4.658   4.460
    1HEX    C12 2540   0.197   4.575   4.680
    1HEX    C13 2541   0.308   4.570   4.786
    1HEX    C15 2542   0.062   4.279   4.443
    1HEX    O16 2543   0.116   4.273   4.574
    1HEX    C17 2544   0.177   4.164   4.621
    1HEX    O18 2545   0.136   4.050   4.605
    1HEX    C19 2546   0.301   4.196   4.706
    1HEX    C1A 2547   0.442   4.175   4.637
    1HEX    H1C 2548   0.478   4.208   3.547
    1HEX    H1D 2549   0.242   4.117   3.614
    1HEX    H1E 2550   0.234   4.293   3.601
    1HEX    H1F 2551   0.232   4.314   3.851
    1HEX    H1G 2552   0.255   4.141   3.868
    1HEX    H1H 2553  17.250   4.202   3.815
    1HEX    H1I 2554  17.240   4.373   3.828
    1HEX    H1J 2555  17.359   4.463   4.060
    1HEX    H1K 2556  17.258   4.408   4.193
    1HEX    H1M 2557  17.064   4.782   4.015
    1HEX    H1N 2558  17.238   4.763   4.007
    1HEX    H1O 2559  17.246   4.827   4.260
    1HEX    H1P 2560  17.078   4.870   4.246
    1HEX    H1Q 2561  17.350   5.001   4.119
    1HEX    H1R 2562  17.056   4.227   3.970
    1HEX    H1S 2563  17.088   4.221   4.140
    1HEX    H1T 2564  17.317   3.882   3.890
    1HEX    H1U 2565  17.179   3.795   3.832
    1HEX    H1V 2566  17.127   3.703   4.051
    1HEX    H1W 2567  17.234   3.814   4.133
    1HEX    H1Y 2568  17.386   4.098   4.056
    1HEX    H1Z 2569  17.342   4.176   4.204
    1HEX    H20 2570   0.044   4.425   4.222
    1HEX    H21 2571   0.191   4.390   4.142
    1HEX    H22 2572   0.264   4.140   4.194
    1HEX    H23 2573   0.129   4.083   4.283
    1HEX    H24 2574   0.463   3.825   4.310
    1HEX    H25 2575   0.388   3.748   4.447
    1HEX    H26 2576   0.540   4.010   4.480
    1HEX    H27 2577   0.626   3.859   4.474
    1HEX    H28 2578   0.538   3.980   4.724
    1HEX    H29 2579   0.287   4.477   4.305
    1HEX    H2A 2580   0.385   4.343   4.350
    1HEX    H2B 2581   0.125   4.494   4.694
    1HEX    H2C 2582   0.139   4.667   4.689
    1HEX    H2D 2583   0.346   4.670   4.808
    1HEX    H2E 2584   0.393   4.511   4.751
    1HEX    H2F 2585   0.150   4.585   4.968
    1HEX    H2G 2586  17.432   4.196   4.428
    1HEX    H2H 2587  17.440   4.369   4.440
    1HEX    H2I 2588   0.293   4.132   4.794
    1HEX    H2J 2589   0.289   4.298   4.741
    1HEX    H2K 2590   0.488   4.201   4.732
    1HEX    H2M 2591   0.408   4.230   4.549
    1STR    S00 2592   0.452   4.219   3.678
    1STR    S0E 2593  17.219   5.023   4.125
    1STR    S0M 2594  17.359   3.631   4.031
    1STR    S0X 2595   0.495   3.865   4.673
    1STR    S14 2596   0.244   4.493   4.939
    1STR    S1B 2597   0.575   4.299   4.604
    1HEX    C01 2598   0.304   4.195   8.020
    1HEX    C02 2599   0.248   4.188   8.162
    1HEX    C03 2600   0.098   4.211   8.159
    1HEX    O04 2601   0.020   4.123   8.123
    1HEX    O05 2602   0.067   4.336   8.193
    1HEX    C06 2603  17.372   4.374   8.208
    1HEX    C07 2604  17.330   4.372   8.357
    1HEX    C08 2605  17.397   4.495   8.431
    1HEX    O09 2606   0.099   4.518   8.404
    1HEX    C0A 2607   0.180   4.589   8.493
    1HEX    O0B 2608   0.141   4.631   8.601
    1HEX    C0C 2609   0.326   4.613   8.446
    1HEX    C0D 2610   0.442   4.586   8.551
    1HEX    C0F 2611  17.173   4.386   8.353
    1HEX    O0G 2612  17.116   4.264   8.303
    1HEX    C0H 2613  17.039   4.259   8.193
    1HEX    O0I 2614  16.989   4.356   8.137
    1HEX    C0J 2615  17.024   4.118   8.137
    1HEX    C0K 2616  16.898   4.047   8.188
    1HEX    C0N 2617  17.350   4.230   8.423
    1HEX    O0O 2618   0.035   4.182   8.473
    1HEX    C0P 2619   0.101   4.247   8.581
    1HEX    C0Q 2620   0.051   4.234   8.729
    1HEX    C0R 2621   0.085   4.093   8.782
    1HEX    O0S 2622   0.225   4.070   8.777
    1HEX    C0T 2623   0.299   4.072   8.890
    1HEX    O0U 2624   0.256   4.083   9.004
    1HEX    C0V 2625   0.448   4.060   8.861
    1HEX    C0W 2626   0.520   4.196   8.848
    1HEX    C0Y 2627   0.132   4.342   8.805
    1HEX    O0Z 2628   0.109   4.339   8.944
    1HEX    C10 2629   0.189   4.412   9.022
    1HEX    O11 2630   0.284   4.480   8.985
    1HEX    C12 2631   0.148   4.402   9.168
    1HEX    C13 2632   0.258   4.453   9.262
    1HEX    C15 2633  17.340   4.263   8.747
    1HEX    O16 2634  17.296   4.259   8.883
    1HEX    C17 2635  17.215   4.161   8.926
    1HEX    O18 2636  17.174   4.066   8.860
    1HEX    C19 2637  17.172   4.179   9.071
    1HEX    C1A 2638  17.091   4.308   9.086
    1HEX    H1C 2639   0.506   4.206   7.897
    1HEX    H1D 2640   0.270   4.109   7.962
    1HEX    H1E 2641   0.268   4.284   7.970
    1HEX    H1F 2642   0.292   4.264   8.226
    1HEX    H1G 2643   0.267   4.091   8.209
    1HEX    H1H 2644  17.308   4.311   8.146
    1HEX    H1I 2645  17.361   4.475   8.167
    1HEX    H1J 2646  17.378   4.489   8.538
    1HEX    H1K 2647  17.345   4.587   8.401
    1HEX    H1M 2648   0.330   4.718   8.415
    1HEX    H1N 2649   0.342   4.554   8.356
    1HEX    H1O 2650   0.432   4.485   8.590
    1HEX    H1P 2651   0.428   4.651   8.637
    1HEX    H1R 2652  17.141   4.473   8.295
    1HEX    H1S 2653  17.133   4.402   8.454
    1HEX    H1T 2654  17.113   4.060   8.163
    1HEX    H1U 2655  17.023   4.124   8.029
    1HEX    H1V 2656  16.808   4.101   8.157
    1HEX    H1W 2657  16.897   4.042   8.297
    1HEX    H1X 2658  16.876   3.908   7.992
    1HEX    H1Y 2659  17.327   4.156   8.347
    1HEX    H1Z 2660  17.271   4.210   8.494
    1HEX    H20 2661   0.116   4.350   8.557
    1HEX    H21 2662   0.202   4.207   8.577
    1HEX    H22 2663   0.034   4.017   8.721
    1HEX    H23 2664   0.046   4.080   8.883
    1HEX    H24 2665   0.459   4.003   8.769
    1HEX    H25 2666   0.494   4.001   8.940
    1HEX    H26 2667   0.467   4.263   8.780
    1HEX    H27 2668   0.619   4.182   8.804
    1HEX    H28 2669   0.423   4.343   9.007
    1HEX    H29 2670   0.108   4.442   8.770
    1HEX    H2A 2671   0.239   4.329   8.786
    1HEX    H2B 2672   0.125   4.298   9.190
    1HEX    H2C 2673   0.056   4.459   9.180
    1HEX    H2D 2674   0.290   4.553   9.234
    1HEX    H2E 2675   0.346   4.388   9.256
    1HEX    H2F 2676   0.096   4.545   9.411
    1HEX    H2G 2677  17.281   4.192   8.691
    1HEX    H2H 2678  17.315   4.362   8.710
    1HEX    H2I 2679  17.261   4.181   9.134
    1HEX    H2J 2680  17.114   4.092   9.100
    1HEX    H2K 2681  17.006   4.309   9.017
    1HEX    H2M 2682  17.153   4.395   9.062
    1HEX    H2N 2683  16.946   4.219   9.254
    1STR    S00 2684   0.485   4.198   8.029
    1STR    S0E 2685   0.618   4.610   8.488
    1STR    S0M 2686  16.893   3.877   8.121
    1STR    S0X 2687   0.541   4.278   9.008
    1STR    S14 2688   0.193   4.455   9.432
    1STR    S1B 2689  17.030   4.323   9.257
    1HEX    C01 2690   0.263   4.216  12.402
    1HEX    C02 2691   0.202   4.231  12.542
    1HEX    C03 2692   0.052   4.252  12.533
    1HEX    O04 2693  17.419   4.166  12.485
    1HEX    O05 2694   0.013   4.372  12.580
    1HEX    C06 2695  17.315   4.407  12.581
    1HEX    C07 2696  17.251   4.397  12.722
    1HEX    C08 2697  17.295   4.519  12.810
    1HEX    O09 2698  17.248   4.655  12.789
    1HEX    C0A 2699  17.270   4.744  12.893
    1HEX    O0B 2700  17.298   4.709  13.008
    1HEX    C0C 2701  17.260   4.896  12.860
    1HEX    C0D 2702  17.312   4.985  12.979
    1HEX    C0F 2703  17.096   4.393  12.706
    1HEX    O0G 2704  17.056   4.266  12.654
    1HEX    C0H 2705  17.012   4.251  12.528
    1HEX    O0I 2706  16.980   4.342  12.452
    1HEX    C0J 2707  17.008   4.105  12.484
    1HEX    C0K 2708  16.887   4.029  12.540
    1HEX    C0N 2709  17.289   4.258  12.789
    1HEX    O0O 2710  17.421   4.229  12.838
    1HEX    C0P 2711   0.047   4.300  12.943
    1HEX    C0Q 2712   0.005   4.284  13.094
    1HEX    C0R 2713   0.031   4.138  13.140
    1HEX    O0S 2714   0.171   4.105  13.129
    1HEX    C0T 2715   0.248   4.093  13.240
    1HEX    O0U 2716   0.209   4.102  13.356
    1HEX    C0V 2717   0.395   4.064  13.208
    1HEX    C0W 2718   0.484   4.190  13.199
    1HEX    C0Y 2719   0.101   4.379  13.169
    1HEX    O0Z 2720   0.080   4.373  13.308
    1HEX    C10 2721   0.176   4.420  13.388
    1HEX    O11 2722   0.281   4.473  13.352
    1HEX    C12 2723   0.142   4.400  13.535
    1HEX    C13 2724   0.252   4.452  13.628
    1HEX    C15 2725  17.298   4.333  13.120
    1HEX    O16 2726  17.224   4.289  13.235
    1HEX    C17 2727  17.115   4.211  13.216
    1HEX    O18 2728  17.102   4.130  13.124
    1HEX    C19 2729  16.998   4.236  13.314
    1HEX    C1A 2730  16.879   4.307  13.242
    1HEX    H1C 2731   0.470   4.202  12.285
    1HEX    H1D 2732   0.228   4.125  12.354
    1HEX    H1E 2733   0.233   4.300  12.338
    1HEX    H1F 2734   0.247   4.315  12.595
    1HEX    H1G 2735   0.221   4.142  12.602
    1HEX    H1H 2736  17.261   4.346  12.509
    1HEX    H1I 2737  17.305   4.509  12.543
    1HEX    H1J 2738  17.402   4.530  12.799
    1HEX    H1K 2739  17.274   4.493  12.912
    1HEX    H1M 2740  17.157   4.919  12.835
    1HEX    H1N 2741  17.320   4.914  12.771
    1HEX    H1O 2742  17.417   4.964  12.997
    1HEX    H1P 2743  17.261   4.956  13.071
    1HEX    H1R 2744  17.061   4.476  12.645
    1HEX    H1S 2745  17.048   4.406  12.803
    1HEX    H1T 2746  17.102   4.057  12.514
    1HEX    H1U 2747  17.007   4.103  12.375
    1HEX    H1V 2748  16.794   4.079  12.513
    1HEX    H1W 2749  16.892   4.025  12.649
    1HEX    H1X 2750  16.866   3.890  12.346
    1HEX    H1Y 2751  17.277   4.183  12.711
    1HEX    H1Z 2752  17.213   4.224  12.860
    1HEX    H20 2753   0.062   4.403  12.918
    1HEX    H21 2754   0.149   4.260  12.936
    1HEX    H22 2755  17.414   4.068  13.078
    1HEX    H23 2756  17.434   4.124  13.242
    1HEX    H24 2757   0.398   4.010  13.113
    1HEX    H25 2758   0.434   3.996  13.283
    1HEX    H26 2759   0.438   4.267  13.137
    1HEX    H27 2760   0.579   4.164  13.153
    1HEX    H28 2761   0.411   4.338  13.370
    1HEX    H29 2762   0.089   4.483  13.137
    1HEX    H2A 2763   0.204   4.354  13.146
    1HEX    H2B 2764   0.124   4.293  13.551
    1HEX    H2C 2765   0.048   4.452  13.553
    1HEX    H2D 2766   0.285   4.552  13.598
    1HEX    H2E 2767   0.340   4.387  13.622
    1HEX    H2F 2768   0.093   4.549  13.776
    1HEX    H2G 2769  17.236   4.315  13.035
    1HEX    H2H 2770  17.299   4.442  13.128
    1HEX    H2I 2771  17.034   4.291  13.401
    1HEX    H2J 2772  16.967   4.138  13.350
    1HEX    H2K 2773  16.870   4.269  13.140
    1HEX    H2M 2774  16.902   4.413  13.232
    1STR    S00 2775   0.444   4.213  12.416
    1STR    S0E 2776  17.290   5.170  12.967
    1STR    S0M 2777  16.887   3.859  12.474
    1STR    S0X 2778   0.520   4.260  13.363
    1STR    S14 2779   0.188   4.458  13.798
    1STR    S1B 2780  16.713   4.291  13.322
    1HEX    C01 2781   0.275   8.565  16.745
    1HEX    C02 2782   0.210   8.567  16.884
    1HEX    C03 2783   0.060   8.552  16.874
    1HEX    O04 2784   0.009   8.446  16.838
    1HEX    O05 2785  17.434   8.664  16.908
    1HEX    C06 2786  17.293   8.660  16.925
    1HEX    C07 2787  17.255   8.651  17.075
    1HEX    C08 2788  17.280   8.790  17.137
    1HEX    O09 2789  17.197   8.901  17.101
    1HEX    C0A 2790  17.163   8.987  17.200
    1HEX    O0B 2791  17.141   8.956  17.317
    1HEX    C0C 2792  17.162   9.134  17.156
    1HEX    C0D 2793  17.175   9.229  17.278
    1HEX    C0F 2794  17.106   8.607  17.088
    1HEX    O0G 2795  17.097   8.464  17.075
    1HEX    C0H 2796  17.064   8.404  16.959
    1HEX    O0I 2797  17.012   8.462  16.864
    1HEX    C0J 2798  17.103   8.256  16.949
    1HEX    C0K 2799  17.087   8.176  17.081
    1HEX    C0N 2800  17.339   8.543  17.153
    1HEX    O0O 2801   0.036   8.566  17.184
    1HEX    C0P 2802   0.081   8.654  17.288
    1HEX    C0Q 2803   0.042   8.632  17.438
    1HEX    C0R 2804   0.073   8.486   0.038
    1HEX    O0S 2805   0.214   8.460   0.037
    1HEX    C0T 2806   0.282   8.446   0.153
    1HEX    O0U 2807   0.234   8.450   0.266
    1HEX    C0V 2808   0.431   8.423   0.130
    1HEX    C0W 2809   0.513   8.553   0.120
    1HEX    C0Y 2810   0.131   8.730   0.078
    1HEX    O0Z 2811   0.107   8.720   0.217
    1HEX    C10 2812   0.190   8.780   0.301
    1HEX    O11 2813   0.289   8.845   0.269
    1HEX    C12 2814   0.149   8.759   0.446
    1HEX    C13 2815   0.255   8.810   0.544
    1HEX    C15 2816  17.333   8.670   0.028
    1HEX    O16 2817  17.293   8.645   0.162
    1HEX    C17 2818  17.215   8.540   0.192
    1HEX    O18 2819  17.179   8.452   0.114
    1HEX    C19 2820  17.169   8.543   0.337
    1HEX    C1A 2821  17.087   8.669   0.364
    1HEX    H1C 2822   0.486   8.573  16.635
    1HEX    H1D 2823   0.252   8.472  16.694
    1HEX    H1E 2824   0.237   8.647  16.684
    1HEX    H1F 2825   0.233   8.660  16.937
    1HEX    H1G 2826   0.247   8.485  16.945
    1HEX    H1H 2827  17.249   8.578  16.867
    1HEX    H1I 2828  17.250   8.750  16.881
    1HEX    H1J 2829  17.380   8.823  17.109
    1HEX    H1K 2830  17.280   8.779  17.244
    1HEX    H1M 2831  17.072   9.156  17.099
    1HEX    H1N 2832  17.247   9.148  17.089
    1HEX    H1O 2833  17.251   9.193  17.347
    1HEX    H1P 2834  17.081   9.231  17.333
    1HEX    H1Q 2835  17.350   9.375  17.206
    1HEX    H1R 2836  17.043   8.659  17.016
    1HEX    H1S 2837  17.067   8.634  17.186
    1HEX    H1T 2838  17.206   8.251  16.914
    1HEX    H1U 2839  17.042   8.212  16.871
    1HEX    H1V 2840  16.991   8.199  17.125
    1HEX    H1W 2841  17.163   8.207  17.154
    1HEX    H1Y 2842  17.342   8.454  17.088
    1HEX    H1Z 2843  17.287   8.504  17.240
    1HEX    H20 2844   0.068   8.759  17.261
    1HEX    H21 2845   0.189   8.642  17.282
    1HEX    H22 2846   0.024   8.416  17.411
    1HEX    H23 2847   0.032   8.464   0.137
    1HEX    H24 2848   0.441   8.365   0.038
    1HEX    H25 2849   0.469   8.360   0.211
    1HEX    H26 2850   0.465   8.624   0.052
    1HEX    H27 2851   0.611   8.531   0.079
    1HEX    H28 2852   0.420   8.700   0.283
    1HEX    H29 2853   0.113   8.833   0.048
    1HEX    H2A 2854   0.236   8.711   0.059
    1HEX    H2B 2855   0.131   8.653   0.461
    1HEX    H2C 2856   0.054   8.810   0.460
    1HEX    H2D 2857   0.286   8.912   0.519
    1HEX    H2E 2858   0.344   8.748   0.539
    1HEX    H2F 2859   0.090   8.900   0.691
    1HEX    H2G 2860  17.262   8.624  17.402
    1HEX    H2H 2861  17.320   8.777   0.016
    1HEX    H2I 2862  17.258   8.539   0.401
    1HEX    H2J 2863  17.111   8.453   0.357
    1HEX    H2K 2864  17.000   8.674   0.298
    1HEX    H2M 2865  17.147   8.758   0.344
    1HEX    H2N 2866  16.948   8.570   0.530
    1STR    S00 2867   0.455   8.583  16.765
    1STR    S0E 2868  17.219   9.396  17.224
    1STR    S0M 2869  17.094   7.993  17.058
    1STR    S0X 2870   0.536   8.632   0.282
    1STR    S14 2871   0.186   8.809   0.712
    1STR    S1B 2872  17.033   8.672   0.538
    1HEX    C01 2873   0.280   8.566   3.669
    1HEX    C02 2874   0.218   8.569   3.809
    1HEX    C03 2875   0.066   8.570   3.799
    1HEX    O04 2876   0.004   8.471   3.762
    1HEX    O05 2877   0.013   8.689   3.833
    1HEX    C06 2878  17.312   8.705   3.839
    1HEX    C07 2879  17.262   8.702   3.985
    1HEX    C08 2880  17.311   8.831   4.055
    1HEX    O09 2881  17.244   8.951   4.019
    1HEX    C0A 2882  17.176   9.019   4.114
    1HEX    O0B 2883  17.131   8.970   4.217
    1HEX    C0C 2884  17.166   9.168   4.084
    1HEX    C0D 2885  17.179   9.250   4.214
    1HEX    C0F 2886  17.106   8.701   3.985
    1HEX    O0G 2887  17.060   8.578   3.929
    1HEX    C0H 2888  17.006   8.575   3.806
    1HEX    O0I 2889  16.973   8.672   3.739
    1HEX    C0J 2890  16.995   8.433   3.751
    1HEX    C0K 2891  16.874   8.360   3.810
    1HEX    C0N 2892  17.307   8.572   4.061
    1HEX    O0O 2893   0.004   8.555   4.104
    1HEX    C0P 2894   0.069   8.636   4.204
    1HEX    C0Q 2895   0.033   8.623   4.356
    1HEX    C0R 2896   0.066   8.479   4.403
    1HEX    O0S 2897   0.207   8.455   4.399
    1HEX    C0T 2898   0.278   8.446   4.514
    1HEX    O0U 2899   0.233   8.454   4.628
    1HEX    C0V 2900   0.427   8.423   4.489
    1HEX    C0W 2901   0.509   8.553   4.479
    1HEX    C0Y 2902   0.123   8.725   4.430
    1HEX    O0Z 2903   0.101   8.720   4.569
    1HEX    C10 2904   0.187   8.778   4.651
    1HEX    O11 2905   0.288   8.841   4.617
    1HEX    C12 2906   0.148   8.760   4.797
    1HEX    C13 2907   0.255   8.811   4.894
    1HEX    C15 2908  17.325   8.661   4.387
    1HEX    O16 2909  17.287   8.642   4.523
    1HEX    C17 2910  17.213   8.536   4.559
    1HEX    O18 2911  17.179   8.443   4.486
    1HEX    C19 2912  17.168   8.543   4.704
    1HEX    C1A 2913  17.086   8.670   4.728
    1HEX    H1C 2914   0.488   8.569   3.555
    1HEX    H1D 2915   0.251   8.474   3.617
    1HEX    H1E 2916   0.244   8.650   3.610
    1HEX    H1F 2917   0.250   8.656   3.865
    1HEX    H1G 2918   0.247   8.481   3.867
    1HEX    H1H 2919  17.263   8.629   3.778
    1HEX    H1I 2920  17.286   8.800   3.792
    1HEX    H1J 2921  17.415   8.848   4.028
    1HEX    H1K 2922  17.308   8.817   4.162
    1HEX    H1M 2923  17.073   9.189   4.032
    1HEX    H1N 2924  17.247   9.193   4.016
    1HEX    H1O 2925  17.254   9.208   4.280
    1HEX    H1P 2926  17.085   9.249   4.269
    1HEX    H1Q 2927  17.352   9.397   4.140
    1HEX    H1R 2928  17.066   8.788   3.932
    1HEX    H1S 2929  17.067   8.710   4.086
    1HEX    H1T 2930  17.088   8.380   3.774
    1HEX    H1U 2931  16.988   8.439   3.643
    1HEX    H1V 2932  16.782   8.412   3.786
    1HEX    H1W 2933  16.882   8.355   3.919
    1HEX    H1X 2934  16.854   8.224   3.615
    1HEX    H1Y 2935  17.293   8.490   3.990
    1HEX    H1Z 2936  17.237   8.544   4.138
    1HEX    H20 2937   0.075   8.740   4.175
    1HEX    H21 2938   0.173   8.604   4.195
    1HEX    H22 2939   0.015   8.406   4.341
    1HEX    H23 2940   0.027   8.462   4.504
    1HEX    H24 2941   0.436   8.366   4.397
    1HEX    H25 2942   0.466   8.359   4.569
    1HEX    H26 2943   0.461   8.625   4.413
    1HEX    H27 2944   0.607   8.531   4.438
    1HEX    H28 2945   0.419   8.700   4.643
    1HEX    H29 2946   0.104   8.827   4.396
    1HEX    H2A 2947   0.228   8.706   4.408
    1HEX    H2B 2948   0.129   8.654   4.813
    1HEX    H2C 2949   0.054   8.812   4.812
    1HEX    H2D 2950   0.287   8.912   4.868
    1HEX    H2E 2951   0.344   8.748   4.888
    1HEX    H2F 2952   0.092   8.900   5.043
    1HEX    H2G 2953  17.254   8.609   4.325
    1HEX    H2H 2954  17.308   8.767   4.369
    1HEX    H2I 2955  17.257   8.542   4.768
    1HEX    H2J 2956  17.111   8.454   4.728
    1HEX    H2K 2957  17.000   8.673   4.661
    1HEX    H2M 2958  17.146   8.759   4.706
    1HEX    H2N 2959  16.946   8.573   4.895
    1STR    S00 2960   0.460   8.575   3.686
    1STR    S0E 2961  17.225   9.421   4.174
    1STR    S0M 2962  16.870   8.191   3.743
    1STR    S0X 2963   0.534   8.630   4.642
    1STR    S14 2964   0.188   8.809   5.063
    1STR    S1B 2965  17.030   8.677   4.900
    1HEX    C01 2966   0.280   8.566   8.029
    1HEX    C02 2967   0.218   8.569   8.169
    1HEX    C03 2968   0.066   8.570   8.159
    1HEX    O04 2969   0.004   8.471   8.122
    1HEX    O05 2970   0.013   8.689   8.193
    1HEX    C06 2971  17.312   8.705   8.199
    1HEX    C07 2972  17.262   8.702   8.345
    1HEX    C08 2973  17.311   8.831   8.415
    1HEX    O09 2974  17.244   8.951   8.379
    1HEX    C0A 2975  17.176   9.019   8.474
    1HEX    O0B 2976  17.131   8.970   8.577
    1HEX    C0C 2977  17.166   9.168   8.444
    1HEX    C0D 2978  17.179   9.250   8.573
    1HEX    C0F 2979  17.106   8.701   8.345
    1HEX    O0G 2980  17.060   8.578   8.289
    1HEX    C0H 2981  17.006   8.575   8.166
    1HEX    O0I 2982  16.973   8.672   8.099
    1HEX    C0J 2983  16.995   8.433   8.111
    1HEX    C0K 2984  16.874   8.360   8.170
    1HEX    C0N 2985  17.307   8.572   8.421
    1HEX    O0O 2986   0.004   8.555   8.464
    1HEX    C0P 2987   0.069   8.636   8.564
    1HEX    C0Q 2988   0.033   8.623   8.716
    1HEX    C0R 2989   0.066   8.479   8.763
    1HEX    O0S 2990   0.207   8.455   8.759
    1HEX    C0T 2991   0.278   8.446   8.874
    1HEX    O0U 2992   0.233   8.454   8.988
    1HEX    C0V 2993   0.427   8.423   8.849
    1HEX    C0W 2994   0.509   8.553   8.839
    1HEX    C0Y 2995   0.123   8.725   8.789
    1HEX    O0Z 2996   0.101   8.720   8.929
    1HEX    C10 2997   0.187   8.778   9.011
    1HEX    O11 2998   0.288   8.841   8.977
    1HEX    C12 2999   0.148   8.760   9.157
    1HEX    C13 3000   0.255   8.811   9.254
    1HEX    C15 3001  17.325   8.661   8.747
    1HEX    O16 3002  17.287   8.642   8.883
    1HEX    C17 3003  17.213   8.536   8.919
    1HEX    O18 3004  17.179   8.443   8.846
    1HEX    C19 3005  17.168   8.543   9.064
    1HEX    C1A 3006  17.086   8.670   9.088
    1HEX    H1C 3007   0.488   8.569   7.915
    1HEX    H1D 3008   0.251   8.474   7.977
    1HEX    H1E 3009   0.244   8.650   7.970
    1HEX    H1F 3010   0.250   8.656   8.225
    1HEX    H1G 3011   0.247   8.481   8.227
    1HEX    H1H 3012  17.263   8.629   8.138
    1HEX    H1I 3013  17.286   8.800   8.152
    1HEX    H1J 3014  17.415   8.848   8.388
    1HEX    H1K 3015  17.308   8.817   8.522
    1HEX    H1M 3016  17.073   9.189   8.392
    1HEX    H1N 3017  17.247   9.193   8.376
    1HEX    H1O 3018  17.254   9.208   8.640
    1HEX    H1P 3019  17.085   9.249   8.629
    1HEX    H1Q 3020  17.352   9.397   8.500
    1HEX    H1R 3021  17.066   8.788   8.292
    1HEX    H1S 3022  17.067   8.710   8.446
    1HEX    H1T 3023  17.088   8.380   8.134
    1HEX    H1U 3024  16.988   8.439   8.003
    1HEX    H1V 3025  16.782   8.412   8.146
    1HEX    H1W 3026  16.882   8.355   8.279
    1HEX    H1X 3027  16.854   8.224   7.975
    1HEX    H1Y 3028  17.293   8.490   8.350
    1HEX    H1Z 3029  17.237   8.544   8.498
    1HEX    H20 3030   0.075   8.740   8.535
    1HEX    H21 3031   0.173   8.604   8.555
    1HEX    H22 3032   0.015   8.406   8.701
    1HEX    H23 3033   0.027   8.463   8.864
    1HEX    H24 3034   0.436   8.366   8.757
    1HEX    H25 3035   0.466   8.359   8.929
    1HEX    H26 3036   0.461   8.625   8.773
    1HEX    H27 3037   0.607   8.531   8.797
    1HEX    H28 3038   0.420   8.700   9.003
    1HEX    H29 3039   0.104   8.827   8.756
    1HEX    H2A 3040   0.228   8.706   8.768
    1HEX    H2B 3041   0.129   8.654   9.173
    1HEX    H2C 3042   0.054   8.812   9.172
    1HEX    H2D 3043   0.287   8.912   9.228
    1HEX    H2E 3044   0.344   8.748   9.248
    1HEX    H2F 3045   0.092   8.900   9.403
    1HEX    H2G 3046  17.254   8.609   8.685
    1HEX    H2H 3047  17.308   8.767   8.729
    1HEX    H2I 3048  17.257   8.542   9.128
    1HEX    H2J 3049  17.111   8.454   9.088
    1HEX    H2K 3050  17.000   8.673   9.021
    1HEX    H2M 3051  17.146   8.759   9.066
    1HEX    H2N 3052  16.946   8.573   9.255
    1STR    S00 3053   0.461   8.575   8.046
    1STR    S0E 3054  17.225   9.421   8.534
    1STR    S0M 3055  16.870   8.191   8.103
    1STR    S0X 3056   0.534   8.630   9.002
    1STR    S14 3057   0.188   8.809   9.423
    1STR    S1B 3058  17.030   8.677   9.260
    1HEX    C01 3059   0.269   8.569  12.389
    1HEX    C02 3060   0.211   8.571  12.531
    1HEX    C03 3061   0.064   8.536  12.531
    1HEX    O04 3062   0.026   8.421  12.509
    1HEX    O05 3063  17.425   8.640  12.562
    1HEX    C06 3064  17.288   8.618  12.594
    1HEX    C07 3065  17.267   8.629  12.748
    1HEX    C08 3066  17.277   8.779  12.786
    1HEX    O09 3067  17.177   8.874  12.751
    1HEX    C0A 3068  17.147   8.967  12.844
    1HEX    O0B 3069  17.131   8.944  12.964
    1HEX    C0C 3070  17.146   9.111  12.792
    1HEX    C0D 3071  17.172   9.212  12.905
    1HEX    C0F 3072  17.130   8.564  12.784
    1HEX    O0G 3073  17.145   8.421  12.805
    1HEX    C0H 3074  17.112   8.331  12.710
    1HEX    O0I 3075  17.047   8.357  12.610
    1HEX    C0J 3076  17.171   8.190  12.731
    1HEX    C0K 3077  17.175   8.131  12.875
    1HEX    C0N 3078  17.375   8.550  12.830
    1HEX    O0O 3079   0.066   8.607  12.849
    1HEX    C0P 3080   0.097   8.711  12.944
    1HEX    C0Q 3081   0.063   8.697  13.096
    1HEX    C0R 3082   0.103   8.555  13.143
    1HEX    O0S 3083   0.244   8.533  13.136
    1HEX    C0T 3084   0.306   8.467  13.236
    1HEX    O0U 3085   0.255   8.432  13.342
    1HEX    C0V 3086   0.452   8.439  13.206
    1HEX    C0W 3087   0.533   8.569  13.194
    1HEX    C0Y 3088   0.144   8.809  13.172
    1HEX    O0Z 3089   0.084   8.941  13.167
    1HEX    C10 3090   0.156   9.057  13.188
    1HEX    O11 3091   0.277   9.071  13.168
    1HEX    C12 3092   0.071   9.164  13.260
    1HEX    C13 3093   0.086   9.323  13.256
    1HEX    C15 3094  17.351   8.717  13.128
    1HEX    O16 3095  17.312   8.680  13.260
    1HEX    C17 3096  17.237   8.570  13.279
    1HEX    O18 3097  17.210   8.484  13.195
    1HEX    C19 3098  17.181   8.561  13.421
    1HEX    C1A 3099  17.086   8.679  13.447
    1HEX    H1C 3100   0.474   8.574  12.269
    1HEX    H1D 3101   0.243   8.475  12.339
    1HEX    H1E 3102   0.227   8.649  12.329
    1HEX    H1F 3103   0.226   8.668  12.578
    1HEX    H1G 3104   0.261   8.498  12.594
    1HEX    H1H 3105  17.252   8.523  12.555
    1HEX    H1I 3106  17.229   8.694  12.543
    1HEX    H1J 3107  17.369   8.818  12.742
    1HEX    H1K 3108  17.292   8.785  12.892
    1HEX    H1M 3109  17.052   9.131  12.741
    1HEX    H1N 3110  17.225   9.119  12.717
    1HEX    H1O 3111  17.262   9.186  12.961
    1HEX    H1P 3112  17.090   9.213  12.976
    1HEX    H1Q 3113  17.237   9.439  12.946
    1HEX    H1R 3114  17.053   8.586  12.710
    1HEX    H1S 3115  17.091   8.606  12.877
    1HEX    H1T 3116  17.272   8.193  12.690
    1HEX    H1U 3117  17.115   8.122  12.665
    1HEX    H1V 3118  17.074   8.126  12.917
    1HEX    H1W 3119  17.233   8.195  12.941
    1HEX    H1Y 3120  17.392   8.457  12.776
    1HEX    H1Z 3121  17.336   8.515  12.925
    1HEX    H20 3122   0.069   8.810  12.908
    1HEX    H21 3123   0.206   8.714  12.937
    1HEX    H22 3124   0.054   8.478  13.084
    1HEX    H23 3125   0.067   8.538  13.245
    1HEX    H24 3126   0.455   8.384  13.112
    1HEX    H25 3127   0.492   8.374  13.283
    1HEX    H26 3128   0.483   8.641  13.129
    1HEX    H27 3129   0.631   8.549  13.150
    1HEX    H28 3130   0.429   8.650  13.392
    1HEX    H29 3131   0.247   8.812  13.137
    1HEX    H2A 3132   0.151   8.781  13.277
    1HEX    H2B 3133   0.084   9.136  13.365
    1HEX    H2C 3134  17.407   9.138  13.239
    1HEX    H2D 3135   0.130   9.353  13.351
    1HEX    H2E 3136  17.425   9.363  13.260
    1HEX    H2G 3137  17.287   8.663  13.059
    1HEX    H2H 3138  17.322   8.821  13.114
    1HEX    H2I 3139  17.264   8.560  13.491
    1HEX    H2J 3140  17.129   8.466  13.432
    1HEX    H2K 3141  17.001   8.677  13.379
    1HEX    H2M 3142  17.139   8.773  13.430
    1HEX    H2N 3143  16.952   8.565  13.608
    1STR    S00 3144   0.449   8.585  12.400
    1STR    S0E 3145  17.194   9.378  12.834
    1STR    S0M 3146  17.247   7.961  12.872
    1STR    S0X 3147   0.558   8.643  13.358
    1STR    S14 3148   0.173   9.429  13.130
    1STR    S1B 3149  17.028   8.674  13.619
    1HEX    C01 3150   0.280  12.926  16.749
    1HEX    C02 3151   0.218  12.929  16.889
    1HEX    C03 3152   0.066  12.930  16.879
    1HEX    O04 3153   0.004  12.831  16.842
    1HEX    O05 3154   0.013  13.049  16.913
    1HEX    C06 3155  17.312  13.065  16.919
    1HEX    C07 3156  17.262  13.062  17.065
    1HEX    C08 3157  17.311  13.191  17.135
    1HEX    O09 3158  17.244  13.311  17.099
    1HEX    C0A 3159  17.176  13.379  17.194
    1HEX    O0B 3160  17.131  13.330  17.298
    1HEX    C0C 3161  17.166  13.528  17.164
    1HEX    C0D 3162  17.179  13.610  17.294
    1HEX    C0F 3163  17.106  13.061  17.065
    1HEX    O0G 3164  17.060  12.938  17.009
    1HEX    C0H 3165  17.006  12.935  16.886
    1HEX    O0I 3166  16.973  13.032  16.819
    1HEX    C0J 3167  16.995  12.793  16.831
    1HEX    C0K 3168  16.875  12.720  16.890
    1HEX    C0N 3169  17.307  12.932  17.141
    1HEX    O0O 3170   0.004  12.915  17.184
    1HEX    C0P 3171   0.069  12.996  17.284
    1HEX    C0Q 3172   0.033  12.983  17.436
    1HEX    C0R 3173   0.066  12.839   0.043
    1HEX    O0S 3174   0.207  12.815   0.039
    1HEX    C0T 3175   0.278  12.806   0.154
    1HEX    O0U 3176   0.233  12.814   0.268
    1HEX    C0V 3177   0.427  12.783   0.129
    1HEX    C0W 3178   0.509  12.913   0.119
    1HEX    C0Y 3179   0.123  13.085   0.069
    1HEX    O0Z 3180   0.101  13.080   0.209
    1HEX    C10 3181   0.187  13.139   0.291
    1HEX    O11 3182   0.288  13.201   0.257
    1HEX    C12 3183   0.148  13.120   0.437
    1HEX    C13 3184   0.255  13.171   0.534
    1HEX    C15 3185  17.325  13.021   0.027
    1HEX    O16 3186  17.287  13.002   0.163
    1HEX    C17 3187  17.213  12.896   0.199
    1HEX    O18 3188  17.179  12.803   0.126
    1HEX    C19 3189  17.168  12.903   0.344
    1HEX    C1A 3190  17.086  13.031   0.368
    1HEX    H1C 3191   0.488  12.929  16.635
    1HEX    H1D 3192   0.251  12.835  16.697
    1HEX    H1E 3193   0.244  13.010  16.690
    1HEX    H1F 3194   0.250  13.016  16.945
    1HEX    H1G 3195   0.247  12.841  16.947
    1HEX    H1H 3196  17.263  12.989  16.858
    1HEX    H1I 3197  17.286  13.160  16.872
    1HEX    H1J 3198  17.415  13.208  17.108
    1HEX    H1K 3199  17.308  13.177  17.242
    1HEX    H1M 3200  17.073  13.549  17.112
    1HEX    H1N 3201  17.247  13.553  17.096
    1HEX    H1O 3202  17.254  13.568  17.360
    1HEX    H1P 3203  17.085  13.609  17.349
    1HEX    H1Q 3204  17.352  13.758  17.220
    1HEX    H1R 3205  17.066  13.148  17.012
    1HEX    H1S 3206  17.067  13.070  17.166
    1HEX    H1T 3207  17.088  12.740  16.854
    1HEX    H1U 3208  16.988  12.799  16.723
    1HEX    H1V 3209  16.782  12.772  16.866
    1HEX    H1W 3210  16.882  12.715  16.999
    1HEX    H1X 3211  16.854  12.584  16.695
    1HEX    H1Y 3212  17.293  12.850  17.070
    1HEX    H1Z 3213  17.237  12.904  17.218
    1HEX    H20 3214   0.075  13.100  17.255
    1HEX    H21 3215   0.173  12.964  17.275
    1HEX    H22 3216   0.015  12.766  17.421
    1HEX    H23 3217   0.027  12.823   0.144
    1HEX    H24 3218   0.436  12.726   0.037
    1HEX    H25 3219   0.466  12.720   0.209
    1HEX    H26 3220   0.461  12.985   0.053
    1HEX    H27 3221   0.607  12.892   0.077
    1HEX    H28 3222   0.420  13.061   0.283
    1HEX    H29 3223   0.104  13.188   0.036
    1HEX    H2A 3224   0.228  13.066   0.048
    1HEX    H2B 3225   0.129  13.014   0.453
    1HEX    H2C 3226   0.054  13.173   0.452
    1HEX    H2D 3227   0.286  13.273   0.508
    1HEX    H2E 3228   0.345  13.108   0.528
    1HEX    H2F 3229   0.092  13.260   0.683
    1HEX    H2G 3230  17.254  12.969  17.405
    1HEX    H2H 3231  17.308  13.127   0.009
    1HEX    H2I 3232  17.257  12.902   0.408
    1HEX    H2J 3233  17.111  12.814   0.368
    1HEX    H2K 3234  17.000  13.034   0.301
    1HEX    H2M 3235  17.146  13.119   0.346
    1HEX    H2N 3236  16.946  12.933   0.535
    1STR    S00 3237   0.461  12.935  16.766
    1STR    S0E 3238  17.225  13.782  17.254
    1STR    S0M 3239  16.870  12.551  16.824
    1STR    S0X 3240   0.534  12.991   0.282
    1STR    S14 3241   0.188  13.169   0.703
    1STR    S1B 3242  17.030  13.037   0.540
    1HEX    C01 3243   0.269  12.932   3.682
    1HEX    C02 3244   0.215  12.940   3.825
    1HEX    C03 3245   0.063  12.941   3.825
    1HEX    O04 3246  17.439  12.842   3.789
    1HEX    O05 3247   0.011  13.060   3.862
    1HEX    C06 3248  17.311  13.080   3.861
    1HEX    C07 3249  17.248  13.091   4.003
    1HEX    C08 3250  17.283  13.226   4.065
    1HEX    O09 3251  17.213  13.341   4.019
    1HEX    C0A 3252  17.146  13.413   4.111
    1HEX    O0B 3253  17.091  13.368   4.211
    1HEX    C0C 3254  17.154  13.563   4.085
    1HEX    C0D 3255  17.183  13.638   4.216
    1HEX    C0F 3256  17.094  13.077   3.989
    1HEX    O0G 3257  17.062  12.948   3.935
    1HEX    C0H 3258  17.006  12.938   3.813
    1HEX    O0I 3259  16.964  13.030   3.744
    1HEX    C0J 3260  17.001  12.794   3.761
    1HEX    C0K 3261  16.878  12.720   3.814
    1HEX    C0N 3262  17.297  12.980   4.102
    1HEX    O0O 3263  17.433  12.984   4.151
    1HEX    C0P 3264   0.045  13.079   4.248
    1HEX    C0Q 3265   0.027  13.058   4.404
    1HEX    C0R 3266   0.170  13.083   4.463
    1HEX    O0S 3267   0.212  13.213   4.416
    1HEX    C0T 3268   0.260  13.311   4.497
    1HEX    O0U 3269   0.291  13.296   4.615
    1HEX    C0V 3270   0.279  13.447   4.425
    1HEX    C0W 3271   0.232  13.576   4.503
    1HEX    C0Y 3272  17.378  13.166   4.475
    1HEX    O0Z 3273  17.371  13.134   4.615
    1HEX    C10 3274  17.415  13.213   4.716
    1HEX    O11 3275   0.009  13.331   4.705
    1HEX    C12 3276  17.418  13.139   4.851
    1HEX    C13 3277   0.094  13.181   4.945
    1HEX    C15 3278  17.406  12.915   4.426
    1HEX    O16 3279  17.356  12.888   4.557
    1HEX    C17 3280  17.228  12.846   4.573
    1HEX    O18 3281  17.155  12.801   4.486
    1HEX    C19 3282  17.174  12.868   4.714
    1HEX    C1A 3283  17.091  12.997   4.720
    1HEX    H1C 3284   0.471  12.930   3.556
    1HEX    H1D 3285   0.238  12.839   3.633
    1HEX    H1E 3286   0.231  13.014   3.621
    1HEX    H1F 3287   0.251  13.029   3.876
    1HEX    H1G 3288   0.248  12.854   3.883
    1HEX    H1H 3289  17.262  13.001   3.802
    1HEX    H1I 3290  17.289  13.171   3.805
    1HEX    H1J 3291  17.388  13.247   4.044
    1HEX    H1K 3292  17.273  13.218   4.173
    1HEX    H1M 3293  17.062  13.597   4.038
    1HEX    H1N 3294  17.234  13.579   4.013
    1HEX    H1O 3295  17.255  13.584   4.277
    1HEX    H1P 3296  17.092  13.646   4.276
    1HEX    H1Q 3297  17.368  13.763   4.134
    1HEX    H1R 3298  17.054  13.158   3.929
    1HEX    H1S 3299  17.045  13.087   4.086
    1HEX    H1T 3300  17.094  12.743   3.790
    1HEX    H1U 3301  17.000  12.798   3.652
    1HEX    H1V 3302  16.787  12.773   3.787
    1HEX    H1W 3303  16.881  12.714   3.923
    1HEX    H1X 3304  16.859  12.587   3.616
    1HEX    H1Y 3305  17.289  12.884   4.049
    1HEX    H1Z 3306  17.226  12.971   4.184
    1HEX    H20 3307   0.036  13.183   4.223
    1HEX    H21 3308   0.150  13.063   4.226
    1HEX    H22 3309   0.240  13.007   4.430
    1HEX    H23 3310   0.170  13.077   4.572
    1HEX    H24 3311   0.228  13.440   4.330
    1HEX    H25 3312   0.386  13.455   4.401
    1HEX    H26 3313   0.318  13.620   4.553
    1HEX    H27 3314   0.163  13.548   4.582
    1HEX    H29 3315  17.277  13.166   4.434
    1HEX    H2A 3316  17.416  13.267   4.461
    1HEX    H2B 3317  17.428  13.033   4.829
    1HEX    H2C 3318  17.322  13.153   4.901
    1HEX    H2D 3319   0.082  13.285   4.975
    1HEX    H2E 3320   0.188  13.177   4.890
    1HEX    H2G 3321   0.034  12.836   4.394
    1HEX    H2H 3322  17.322  12.907   4.358
    1HEX    H2I 3323  17.257  12.871   4.784
    1HEX    H2J 3324  17.112  12.782   4.741
    1HEX    H2K 3325  17.003  12.990   4.655
    1HEX    H2M 3326  17.148  13.082   4.682
    1HEX    H2N 3327  16.945  12.940   4.899
    1STR    S00 3328   0.451  12.940   3.688
    1STR    S0E 3329  17.249  13.803   4.180
    1STR    S0M 3330  16.875  12.552   3.744
    1STR    S0X 3331   0.156  13.710   4.397
    1STR    S14 3332   0.109  13.076   5.096
    1STR    S1B 3333  17.041  13.032   4.890
    1HEX    C01 3334   0.288  12.934   8.024
    1HEX    C02 3335   0.250  12.929   8.172
    1HEX    C03 3336   0.099  12.937   8.185
    1HEX    O04 3337   0.028  12.842   8.155
    1HEX    O05 3338   0.057  13.059   8.225
    1HEX    C06 3339  17.360  13.091   8.213
    1HEX    C07 3340  17.279  13.072   8.344
    1HEX    C08 3341  17.306  13.195   8.433
    1HEX    O09 3342  17.244  13.316   8.394
    1HEX    C0A 3343  17.176  13.387   8.484
    1HEX    O0B 3344  17.129  13.343   8.590
    1HEX    C0C 3345  17.167  13.535   8.449
    1HEX    C0D 3346  17.179  13.621   8.576
    1HEX    C0F 3347  17.128  13.069   8.306
    1HEX    O0G 3348  17.105  12.979   8.198
    1HEX    C0H 3349  16.999  12.997   8.119
    1HEX    O0I 3350  16.902  13.067   8.148
    1HEX    C0J 3351  17.004  12.924   7.984
    1HEX    C0K 3352  17.144  12.877   7.935
    1HEX    C0N 3353  17.309  12.938   8.419
    1HEX    O0O 3354  17.440  12.909   8.474
    1HEX    C0P 3355   0.069  12.989   8.570
    1HEX    C0Q 3356   0.036  12.979   8.723
    1HEX    C0R 3357   0.070  12.836   8.772
    1HEX    O0S 3358   0.211  12.811   8.767
    1HEX    C0T 3359   0.284  12.805   8.881
    1HEX    O0U 3360   0.240  12.815   8.995
    1HEX    C0V 3361   0.432  12.782   8.854
    1HEX    C0W 3362   0.513  12.913   8.841
    1HEX    C0Y 3363   0.126  13.082   8.794
    1HEX    O0Z 3364   0.104  13.079   8.934
    1HEX    C10 3365   0.190  13.139   9.016
    1HEX    O11 3366   0.291  13.201   8.981
    1HEX    C12 3367   0.150  13.122   9.162
    1HEX    C13 3368   0.258  13.173   9.259
    1HEX    C15 3369  17.328  13.015   8.754
    1HEX    O16 3370  17.289  12.996   8.890
    1HEX    C17 3371  17.213  12.891   8.925
    1HEX    O18 3372  17.179  12.798   8.852
    1HEX    C19 3373  17.167  12.900   9.070
    1HEX    C1A 3374  17.085  13.028   9.091
    1HEX    H1C 3375   0.473  12.939   7.877
    1HEX    H1D 3376   0.249  12.846   7.972
    1HEX    H1E 3377   0.243  13.021   7.975
    1HEX    H1F 3378   0.294  13.012   8.227
    1HEX    H1G 3379   0.284  12.837   8.219
    1HEX    H1H 3380  17.319  13.034   8.130
    1HEX    H1I 3381  17.351  13.194   8.178
    1HEX    H1J 3382  17.412  13.220   8.429
    1HEX    H1K 3383  17.282  13.170   8.536
    1HEX    H1M 3384  17.074  13.555   8.396
    1HEX    H1N 3385  17.248  13.557   8.381
    1HEX    H1O 3386  17.253  13.579   8.645
    1HEX    H1P 3387  17.084  13.623   8.630
    1HEX    H1Q 3388  17.356  13.763   8.501
    1HEX    H1R 3389  17.094  13.168   8.276
    1HEX    H1S 3390  17.064  13.042   8.391
    1HEX    H1T 3391  16.934  12.841   7.988
    1HEX    H1U 3392  16.962  12.994   7.912
    1HEX    H1V 3393  17.142  12.769   7.919
    1HEX    H1W 3394  17.224  12.892   8.007
    1HEX    H1Y 3395  17.292  12.857   8.348
    1HEX    H1Z 3396  17.233  12.918   8.494
    1HEX    H20 3397   0.079  13.092   8.539
    1HEX    H21 3398   0.172  12.954   8.560
    1HEX    H22 3399   0.018  12.762   8.711
    1HEX    H23 3400   0.032  12.821   8.874
    1HEX    H24 3401   0.440  12.724   8.763
    1HEX    H25 3402   0.472  12.720   8.934
    1HEX    H26 3403   0.463  12.983   8.774
    1HEX    H27 3404   0.611  12.891   8.798
    1HEX    H28 3405   0.424  13.059   9.006
    1HEX    H29 3406   0.107  13.184   8.759
    1HEX    H2A 3407   0.231  13.063   8.774
    1HEX    H2B 3408   0.130  13.017   9.179
    1HEX    H2C 3409   0.056  13.176   9.176
    1HEX    H2D 3410   0.289  13.274   9.232
    1HEX    H2E 3411   0.347  13.110   9.253
    1HEX    H2F 3412   0.094  13.262   9.408
    1HEX    H2G 3413  17.259  12.962   8.690
    1HEX    H2H 3414  17.311  13.121   8.736
    1HEX    H2I 3415  17.255  12.899   9.134
    1HEX    H2J 3416  17.108  12.812   9.093
    1HEX    H2K 3417  16.999  13.031   9.023
    1HEX    H2M 3418  17.145  13.116   9.069
    1HEX    H2N 3419  16.943  12.933   9.257
    1STR    S00 3420   0.469  12.940   8.011
    1STR    S0E 3421  17.229  13.790   8.533
    1STR    S0M 3422  17.187  12.956   7.776
    1STR    S0X 3423   0.540  12.992   9.002
    1STR    S14 3424   0.191  13.172   9.427
    1STR    S1B 3425  17.027  13.037   9.263
    1HEX    C01 3426   0.355  12.943  12.338
    1HEX    C02 3427   0.280  12.953  12.471
    1HEX    C03 3428   0.129  12.955  12.452
    1HEX    O04 3429   0.075  12.876  12.376
    1HEX    O05 3430   0.067  13.044  12.533
    1HEX    C06 3431  17.366  13.040  12.549
    1HEX    C07 3432  17.315  12.964  12.678
    1HEX    C08 3433  17.270  13.064  12.791
    1HEX    O09 3434  17.133  13.054  12.837
    1HEX    C0A 3435  17.069  12.948  12.899
    1HEX    O0B 3436  16.947  12.938  12.902
    1HEX    C0C 3437  17.155  12.843  12.971
    1HEX    C0D 3438  17.124  12.689  12.965
    1HEX    C0F 3439  17.183  12.894  12.631
    1HEX    O0G 3440  17.174  12.820  12.510
    1HEX    C0H 3441  17.062  12.835  12.436
    1HEX    O0I 3442  17.000  12.940  12.420
    1HEX    C0J 3443  17.006  12.705  12.383
    1HEX    C0K 3444  16.889  12.659  12.471
    1HEX    C0N 3445  17.426  12.862  12.732
    1HEX    O0O 3446   0.016  12.855  12.873
    1HEX    C0P 3447   0.120  12.936  12.932
    1HEX    C0Q 3448   0.123  12.926  13.090
    1HEX    C0R 3449   0.210  12.805  13.134
    1HEX    O0S 3450   0.350  12.827  13.112
    1HEX    C0T 3451   0.435  12.837  13.218
    1HEX    O0U 3452   0.403  12.829  13.337
    1HEX    C0V 3453   0.581  12.862  13.179
    1HEX    C0W 3454   0.597  12.997  13.106
    1HEX    C0Y 3455   0.184  13.057  13.149
    1HEX    O0Z 3456   0.177  13.050  13.290
    1HEX    C10 3457   0.223  13.148  13.367
    1HEX    O11 3458   0.293  13.241  13.329
    1HEX    C12 3459   0.171  13.135  13.509
    1HEX    C13 3460   0.273  13.180  13.614
    1HEX    C15 3461  17.418  12.907  13.144
    1HEX    O16 3462  17.396  12.916  13.285
    1HEX    C17 3463  17.281  12.867  13.338
    1HEX    O18 3464  17.203  12.791  13.281
    1HEX    C19 3465  17.249  12.920  13.477
    1HEX    C1A 3466  17.143  13.032  13.467
    1HEX    H1C 3467   0.575  12.933  12.247
    1HEX    H1D 3468   0.328  12.852  12.285
    1HEX    H1E 3469   0.329  13.027  12.273
    1HEX    H1F 3470   0.311  13.042  12.526
    1HEX    H1G 3471   0.305  12.867  12.533
    1HEX    H1H 3472  17.323  12.996  12.458
    1HEX    H1I 3473  17.327  13.141  12.543
    1HEX    H1J 3474  17.277  13.166  12.753
    1HEX    H1K 3475  17.336  13.067  12.877
    1HEX    H1M 3476  17.142  12.877  13.073
    1HEX    H1N 3477  17.255  12.862  12.946
    1HEX    H1O 3478  17.126  12.654  13.068
    1HEX    H1P 3479  17.022  12.674  12.932
    1HEX    H1R 3480  17.105  12.971  12.627
    1HEX    H1S 3481  17.150  12.822  12.705
    1HEX    H1T 3482  17.086  12.631  12.381
    1HEX    H1U 3483  16.973  12.721  12.280
    1HEX    H1V 3484  16.802  12.725  12.459
    1HEX    H1W 3485  16.916  12.663  12.577
    1HEX    H1X 3486  16.802  12.513  12.304
    1HEX    H1Y 3487   0.083  12.872  12.684
    1HEX    H1Z 3488  17.395  12.763  12.701
    1HEX    H20 3489   0.108  13.040  12.901
    1HEX    H21 3490   0.217  12.905  12.891
    1HEX    H22 3491   0.179  12.716  13.079
    1HEX    H23 3492   0.189  12.783  13.239
    1HEX    H24 3493   0.618  12.779  13.119
    1HEX    H25 3494   0.639  12.861  13.271
    1HEX    H26 3495   0.530  13.068  13.154
    1HEX    H27 3496   0.562  12.986  13.004
    1HEX    H29 3497   0.128  13.145  13.116
    1HEX    H2A 3498   0.287  13.071  13.118
    1HEX    H2B 3499   0.144  13.031  13.527
    1HEX    H2C 3500   0.080  13.194  13.516
    1HEX    H2D 3501   0.306  13.282  13.595
    1HEX    H2E 3502   0.362  13.116  13.611
    1HEX    H2F 3503   0.101  13.263  13.759
    1HEX    H2G 3504  17.384  12.809  13.111
    1HEX    H2H 3505  17.354  12.983  13.100
    1HEX    H2I 3506  17.338  12.954  13.528
    1HEX    H2J 3507  17.209  12.836  13.534
    1HEX    H2K 3508  17.064  13.005  13.396
    1HEX    H2M 3509  17.188  13.124  13.431
    1HEX    H2N 3510  16.984  12.955  13.628
    1STR    S00 3511   0.533  12.944  12.373
    1STR    S0E 3512  17.237  12.572  12.869
    1STR    S0M 3513  16.844  12.488  12.429
    1STR    S0X 3514   0.763  13.079  13.104
    1STR    S14 3515   0.196  13.170  13.778
    1STR    S1B 3516  17.066  13.061  13.629
    1HEX    C01 3517   4.647  17.293  16.741
    1HEX    C02 3518   4.578  17.303  16.877
    1HEX    C03 3519   4.428  17.313  16.860
    1HEX    O04 3520   4.363  17.217  16.818
    1HEX    O05 3521   4.379  17.432  16.896
    1HEX    C06 3522   4.239   0.011  16.909
    1HEX    C07 3523   4.194   0.001  17.057
    1HEX    C08 3524   4.235   0.128  17.133
    1HEX    O09 3525   4.172   0.249  17.093
    1HEX    C0A 3526   4.089   0.311  17.179
    1HEX    O0B 3527   4.029   0.257  17.272
    1HEX    C0C 3528   4.083   0.461  17.157
    1HEX    C0D 3529   4.097   0.536  17.291
    1HEX    C0F 3530   4.039  17.426  17.061
    1HEX    O0G 3531   4.002  17.300  17.004
    1HEX    C0H 3532   3.933  17.294  16.889
    1HEX    O0I 3533   3.885  17.389  16.828
    1HEX    C0J 3534   3.923  17.152  16.835
    1HEX    C0K 3535   3.800  17.079  16.890
    1HEX    C0N 3536   4.257  17.317  17.128
    1HEX    O0O 3537   4.393  17.330  17.175
    1HEX    C0P 3538   4.429  17.382  17.306
    1HEX    C0Q 3539   4.394  17.291  17.428
    1HEX    C0R 3540   4.457  17.151  17.396
    1HEX    O0S 3541   4.595  17.155  17.353
    1HEX    C0T 3542   4.697  17.137   0.000
    1HEX    O0U 3543   4.688  17.131   0.121
    1HEX    C0V 3544   4.835  17.121  17.376
    1HEX    C0W 3545   4.936  17.230  17.417
    1HEX    C0Y 3546   4.453  17.340   0.124
    1HEX    O0Z 3547   4.412  17.238   0.215
    1HEX    C10 3548   4.490  17.184   0.309
    1HEX    O11 3549   4.580  17.242   0.369
    1HEX    C12 3550   4.448  17.039   0.339
    1HEX    C13 3551   4.554  16.928   0.309
    1HEX    C15 3552   4.238  17.289   0.002
    1HEX    O16 3553   4.181  17.307   0.131
    1HEX    C17 3554   4.120  17.204   0.194
    1HEX    O18 3555   4.105  17.091   0.148
    1HEX    C19 3556   4.071  17.239   0.333
    1HEX    C1A 3557   4.009  17.380   0.341
    1HEX    H1C 3558   4.861  17.284  16.637
    1HEX    H1D 3559   4.615  17.202  16.689
    1HEX    H1E 3560   4.620  17.378  16.678
    1HEX    H1F 3561   4.613  17.390  16.933
    1HEX    H1G 3562   4.600  17.216  16.939
    1HEX    H1H 3563   4.186  17.380  16.846
    1HEX    H1I 3564   4.212   0.109  16.868
    1HEX    H1J 3565   4.342   0.143  17.120
    1HEX    H1K 3566   4.218   0.113  17.239
    1HEX    H1M 3567   3.989   0.488  17.107
    1HEX    H1N 3568   4.164   0.488  17.089
    1HEX    H1O 3569   4.172   0.488  17.354
    1HEX    H1P 3570   4.004   0.532  17.346
    1HEX    H1Q 3571   4.272   0.683  17.223
    1HEX    H1R 3572   3.991   0.070  17.010
    1HEX    H1S 3573   4.002  17.430  17.163
    1HEX    H1T 3574   4.015  17.098  16.859
    1HEX    H1U 3575   3.918  17.158  16.726
    1HEX    H1V 3576   3.709  17.133  16.865
    1HEX    H1W 3577   3.805  17.074  16.999
    1HEX    H1X 3578   3.776  16.945  16.694
    1HEX    H1Y 3579   4.258  17.236  17.055
    1HEX    H1Z 3580   4.188  17.276  17.200
    1HEX    H20 3581   4.397   0.044  17.323
    1HEX    H21 3582   4.538  17.391  17.302
    1HEX    H22 3583   4.401  17.104  17.316
    1HEX    H23 3584   4.446  17.082   0.040
    1HEX    H24 3585   4.822  17.119  17.268
    1HEX    H25 3586   4.872  17.023  17.406
    1HEX    H26 3587   4.895  17.330  17.399
    1HEX    H27 3588   5.026  17.221  17.356
    1HEX    H28 3589   4.867  17.233   0.205
    1HEX    H29 3590   4.412  -0.004   0.154
    1HEX    H2A 3591   4.561  17.352   0.122
    1HEX    H2B 3592   4.354  17.017   0.289
    1HEX    H2C 3593   4.426  17.040   0.445
    1HEX    H2D 3594   4.558  16.861   0.395
    1HEX    H2E 3595   4.653  16.974   0.308
    1HEX    H2G 3596   4.196  17.200  17.394
    1HEX    H2H 3597   4.195  17.375  17.389
    1HEX    H2I 3598   4.155  17.231   0.402
    1HEX    H2J 3599   3.998  17.164   0.362
    1HEX    H2K 3600   3.928  17.391   0.268
    1HEX    H2M 3601   4.084   0.016   0.318
    1HEX    H2N 3602   3.851  17.311   0.507
    1STR    S00 3603   4.827  17.290  16.767
    1STR    S0E 3604   4.147   0.708  17.262
    1STR    S0M 3605   3.794  16.911  16.822
    1STR    S0X 3606   4.989  17.219   0.151
    1STR    S14 3607   4.538  16.822   0.157
    1STR    S1B 3608   3.944  17.407   0.508
    1HEX    C01 3609   4.640  17.286   3.669
    1HEX    C02 3610   4.578  17.288   3.809
    1HEX    C03 3611   4.426  17.289   3.799
    1HEX    O04 3612   4.364  17.190   3.762
    1HEX    O05 3613   4.373  17.408   3.833
    1HEX    C06 3614   4.232  17.424   3.839
    1HEX    C07 3615   4.182  17.422   3.985
    1HEX    C08 3616   4.231   0.110   4.055
    1HEX    O09 3617   4.164   0.231   4.019
    1HEX    C0A 3618   4.096   0.298   4.114
    1HEX    O0B 3619   4.051   0.250   4.217
    1HEX    C0C 3620   4.086   0.447   4.084
    1HEX    C0D 3621   4.099   0.530   4.214
    1HEX    C0F 3622   4.026  17.421   3.985
    1HEX    O0G 3623   3.980  17.298   3.929
    1HEX    C0H 3624   3.926  17.294   3.806
    1HEX    O0I 3625   3.893  17.391   3.739
    1HEX    C0J 3626   3.915  17.153   3.751
    1HEX    C0K 3627   3.794  17.079   3.810
    1HEX    C0N 3628   4.227  17.292   4.061
    1HEX    O0O 3629   4.364  17.275   4.104
    1HEX    C0P 3630   4.428  17.356   4.204
    1HEX    C0Q 3631   4.393  17.343   4.356
    1HEX    C0R 3632   4.426  17.199   4.403
    1HEX    O0S 3633   4.567  17.174   4.399
    1HEX    C0T 3634   4.638  17.166   4.514
    1HEX    O0U 3635   4.593  17.174   4.628
    1HEX    C0V 3636   4.787  17.143   4.489
    1HEX    C0W 3637   4.869  17.273   4.479
    1HEX    C0Y 3638   4.483   0.005   4.429
    1HEX    O0Z 3639   4.461  17.439   4.569
    1HEX    C10 3640   4.547   0.058   4.651
    1HEX    O11 3641   4.648   0.121   4.617
    1HEX    C12 3642   4.508   0.040   4.797
    1HEX    C13 3643   4.615   0.091   4.894
    1HEX    C15 3644   4.245  17.380   4.387
    1HEX    O16 3645   4.207  17.361   4.523
    1HEX    C17 3646   4.133  17.255   4.559
    1HEX    O18 3647   4.099  17.162   4.486
    1HEX    C19 3648   4.088  17.263   4.704
    1HEX    C1A 3649   4.006  17.390   4.728
    1HEX    H1C 3650   4.848  17.289   3.555
    1HEX    H1D 3651   4.612  17.194   3.617
    1HEX    H1E 3652   4.604  17.370   3.610
    1HEX    H1F 3653   4.610  17.376   3.865
    1HEX    H1G 3654   4.607  17.201   3.867
    1HEX    H1H 3655   4.183  17.349   3.778
    1HEX    H1I 3656   4.206   0.079   3.792
    1HEX    H1J 3657   4.335   0.127   4.028
    1HEX    H1K 3658   4.228   0.096   4.162
    1HEX    H1M 3659   3.993   0.469   4.032
    1HEX    H1N 3660   4.167   0.472   4.016
    1HEX    H1O 3661   4.175   0.487   4.280
    1HEX    H1P 3662   4.005   0.528   4.269
    1HEX    H1Q 3663   4.272   0.677   4.140
    1HEX    H1R 3664   3.986   0.068   3.932
    1HEX    H1S 3665   3.987  17.429   4.086
    1HEX    H1T 3666   4.008  17.100   3.774
    1HEX    H1U 3667   3.908  17.158   3.643
    1HEX    H1V 3668   3.702  17.131   3.786
    1HEX    H1W 3669   3.802  17.075   3.919
    1HEX    H1X 3670   3.774  16.943   3.615
    1HEX    H1Y 3671   4.213  17.209   3.990
    1HEX    H1Z 3672   4.157  17.264   4.138
    1HEX    H20 3673   4.435   0.019   4.175
    1HEX    H21 3674   4.532  17.324   4.195
    1HEX    H22 3675   4.375  17.126   4.341
    1HEX    H23 3676   4.388  17.182   4.504
    1HEX    H24 3677   4.796  17.086   4.397
    1HEX    H25 3678   4.826  17.079   4.569
    1HEX    H26 3679   4.821  17.345   4.413
    1HEX    H27 3680   4.967  17.251   4.437
    1HEX    H28 3681   4.779  17.420   4.643
    1HEX    H29 3682   4.463   0.107   4.396
    1HEX    H2A 3683   4.588  17.426   4.408
    1HEX    H2B 3684   4.490  17.373   4.813
    1HEX    H2C 3685   4.414   0.091   4.812
    1HEX    H2D 3686   4.646   0.193   4.868
    1HEX    H2E 3687   4.705   0.029   4.888
    1HEX    H2F 3688   4.452   0.179   5.043
    1HEX    H2G 3689   4.174  17.328   4.325
    1HEX    H2H 3690   4.228   0.046   4.369
    1HEX    H2I 3691   4.177  17.261   4.768
    1HEX    H2J 3692   4.031  17.173   4.728
    1HEX    H2K 3693   3.920  17.393   4.661
    1HEX    H2M 3694   4.066   0.038   4.706
    1HEX    H2N 3695   3.866  17.293   4.895
    1STR    S00 3696   4.821  17.295   3.686
    1STR    S0E 3697   4.145   0.701   4.175
    1STR    S0M 3698   3.790  16.910   3.744
    1STR    S0X 3699   4.894  17.350   4.642
    1STR    S14 3700   4.548   0.089   5.063
    1STR    S1B 3701   3.950  17.397   4.900
    1HEX    C01 3702   4.640  17.286   8.029
    1HEX    C02 3703   4.578  17.288   8.169
    1HEX    C03 3704   4.426  17.289   8.159
    1HEX    O04 3705   4.364  17.190   8.122
    1HEX    O05 3706   4.373  17.408   8.193
    1HEX    C06 3707   4.232  17.424   8.199
    1HEX    C07 3708   4.182  17.422   8.345
    1HEX    C08 3709   4.231   0.110   8.415
    1HEX    O09 3710   4.164   0.231   8.379
    1HEX    C0A 3711   4.096   0.298   8.474
    1HEX    O0B 3712   4.051   0.250   8.577
    1HEX    C0C 3713   4.086   0.447   8.444
    1HEX    C0D 3714   4.099   0.530   8.573
    1HEX    C0F 3715   4.026  17.421   8.345
    1HEX    O0G 3716   3.980  17.298   8.289
    1HEX    C0H 3717   3.926  17.294   8.166
    1HEX    O0I 3718   3.893  17.391   8.098
    1HEX    C0J 3719   3.915  17.153   8.111
    1HEX    C0K 3720   3.795  17.079   8.170
    1HEX    C0N 3721   4.227  17.292   8.421
    1HEX    O0O 3722   4.364  17.275   8.464
    1HEX    C0P 3723   4.428  17.356   8.564
    1HEX    C0Q 3724   4.393  17.343   8.716
    1HEX    C0R 3725   4.426  17.199   8.763
    1HEX    O0S 3726   4.567  17.174   8.759
    1HEX    C0T 3727   4.638  17.166   8.874
    1HEX    O0U 3728   4.593  17.174   8.988
    1HEX    C0V 3729   4.787  17.143   8.849
    1HEX    C0W 3730   4.869  17.273   8.839
    1HEX    C0Y 3731   4.483   0.005   8.789
    1HEX    O0Z 3732   4.461  17.439   8.929
    1HEX    C10 3733   4.547   0.058   9.011
    1HEX    O11 3734   4.648   0.120   8.977
    1HEX    C12 3735   4.508   0.040   9.157
    1HEX    C13 3736   4.615   0.091   9.254
    1HEX    C15 3737   4.245  17.381   8.747
    1HEX    O16 3738   4.207  17.361   8.883
    1HEX    C17 3739   4.133  17.255   8.919
    1HEX    O18 3740   4.099  17.162   8.846
    1HEX    C19 3741   4.088  17.263   9.064
    1HEX    C1A 3742   4.006  17.390   9.088
    1HEX    H1C 3743   4.848  17.289   7.915
    1HEX    H1D 3744   4.612  17.194   7.977
    1HEX    H1E 3745   4.604  17.370   7.970
    1HEX    H1F 3746   4.610  17.376   8.225
    1HEX    H1G 3747   4.607  17.201   8.227
    1HEX    H1H 3748   4.183  17.349   8.138
    1HEX    H1I 3749   4.206   0.079   8.152
    1HEX    H1J 3750   4.335   0.127   8.388
    1HEX    H1K 3751   4.228   0.096   8.522
    1HEX    H1M 3752   3.993   0.469   8.392
    1HEX    H1N 3753   4.167   0.472   8.376
    1HEX    H1O 3754   4.174   0.487   8.640
    1HEX    H1P 3755   4.005   0.528   8.629
    1HEX    H1Q 3756   4.272   0.677   8.500
    1HEX    H1R 3757   3.986   0.068   8.292
    1HEX    H1S 3758   3.987  17.429   8.446
    1HEX    H1T 3759   4.008  17.100   8.134
    1HEX    H1U 3760   3.908  17.158   8.003
    1HEX    H1V 3761   3.702  17.131   8.146
    1HEX    H1W 3762   3.802  17.075   8.279
    1HEX    H1X 3763   3.774  16.943   7.975
    1HEX    H1Y 3764   4.213  17.209   8.350
    1HEX    H1Z 3765   4.157  17.264   8.498
    1HEX    H20 3766   4.435   0.019   8.535
    1HEX    H21 3767   4.532  17.324   8.555
    1HEX    H22 3768   4.375  17.126   8.701
    1HEX    H23 3769   4.387  17.182   8.864
    1HEX    H24 3770   4.796  17.086   8.757
    1HEX    H25 3771   4.826  17.079   8.929
    1HEX    H26 3772   4.821  17.345   8.773
    1HEX    H27 3773   4.967  17.251   8.797
    1HEX    H28 3774   4.780  17.420   9.003
    1HEX    H29 3775   4.463   0.107   8.756
    1HEX    H2A 3776   4.588  17.426   8.768
    1HEX    H2B 3777   4.490  17.373   9.173
    1HEX    H2C 3778   4.414   0.091   9.172
    1HEX    H2D 3779   4.646   0.193   9.228
    1HEX    H2E 3780   4.705   0.029   9.248
    1HEX    H2F 3781   4.452   0.179   9.403
    1HEX    H2G 3782   4.174  17.328   8.685
    1HEX    H2H 3783   4.228   0.046   8.729
    1HEX    H2I 3784   4.177  17.261   9.128
    1HEX    H2J 3785   4.031  17.173   9.088
    1HEX    H2K 3786   3.920  17.393   9.021
    1HEX    H2M 3787   4.066   0.039   9.066
    1HEX    H2N 3788   3.866  17.293   9.255
    1STR    S00 3789   4.821  17.295   8.046
    1STR    S0E 3790   4.145   0.701   8.534
    1STR    S0M 3791   3.790  16.910   8.104
    1STR    S0X 3792   4.894  17.350   9.002
    1STR    S14 3793   4.548   0.089   9.423
    1STR    S1B 3794   3.950  17.396   9.260
    1HEX    C01 3795   4.640  17.286  12.389
    1HEX    C02 3796   4.578  17.288  12.529
    1HEX    C03 3797   4.426  17.290  12.519
    1HEX    O04 3798   4.364  17.190  12.482
    1HEX    O05 3799   4.373  17.408  12.553
    1HEX    C06 3800   4.232  17.424  12.559
    1HEX    C07 3801   4.182  17.422  12.705
    1HEX    C08 3802   4.231   0.110  12.775
    1HEX    O09 3803   4.164   0.231  12.739
    1HEX    C0A 3804   4.096   0.298  12.834
    1HEX    O0B 3805   4.051   0.250  12.937
    1HEX    C0C 3806   4.086   0.447  12.804
    1HEX    C0D 3807   4.099   0.530  12.934
    1HEX    C0F 3808   4.026  17.421  12.705
    1HEX    O0G 3809   3.980  17.298  12.649
    1HEX    C0H 3810   3.926  17.294  12.526
    1HEX    O0I 3811   3.893  17.391  12.458
    1HEX    C0J 3812   3.915  17.153  12.471
    1HEX    C0K 3813   3.794  17.079  12.530
    1HEX    C0N 3814   4.227  17.292  12.781
    1HEX    O0O 3815   4.364  17.275  12.824
    1HEX    C0P 3816   4.428  17.356  12.924
    1HEX    C0Q 3817   4.393  17.343  13.076
    1HEX    C0R 3818   4.426  17.199  13.123
    1HEX    O0S 3819   4.567  17.174  13.119
    1HEX    C0T 3820   4.638  17.166  13.234
    1HEX    O0U 3821   4.593  17.174  13.348
    1HEX    C0V 3822   4.787  17.143  13.209
    1HEX    C0W 3823   4.869  17.273  13.199
    1HEX    C0Y 3824   4.483   0.005  13.149
    1HEX    O0Z 3825   4.461  17.439  13.289
    1HEX    C10 3826   4.547   0.058  13.371
    1HEX    O11 3827   4.648   0.120  13.337
    1HEX    C12 3828   4.508   0.040  13.517
    1HEX    C13 3829   4.615   0.091  13.614
    1HEX    C15 3830   4.245  17.381  13.107
    1HEX    O16 3831   4.207  17.361  13.243
    1HEX    C17 3832   4.133  17.255  13.279
    1HEX    O18 3833   4.099  17.162  13.206
    1HEX    C19 3834   4.088  17.263  13.424
    1HEX    C1A 3835   4.006  17.390  13.448
    1HEX    H1C 3836   4.848  17.289  12.275
    1HEX    H1D 3837   4.612  17.194  12.337
    1HEX    H1E 3838   4.604  17.370  12.330
    1HEX    H1F 3839   4.610  17.376  12.585
    1HEX    H1G 3840   4.607  17.201  12.587
    1HEX    H1H 3841   4.183  17.349  12.498
    1HEX    H1I 3842   4.206   0.079  12.512
    1HEX    H1J 3843   4.335   0.127  12.748
    1HEX    H1K 3844   4.228   0.096  12.882
    1HEX    H1M 3845   3.993   0.469  12.752
    1HEX    H1N 3846   4.167   0.472  12.736
    1HEX    H1O 3847   4.174   0.487  13.000
    1HEX    H1P 3848   4.005   0.528  12.989
    1HEX    H1Q 3849   4.272   0.677  12.860
    1HEX    H1R 3850   3.986   0.068  12.652
    1HEX    H1S 3851   3.987  17.429  12.806
    1HEX    H1T 3852   4.008  17.100  12.494
    1HEX    H1U 3853   3.908  17.158  12.363
    1HEX    H1V 3854   3.702  17.131  12.506
    1HEX    H1W 3855   3.802  17.075  12.639
    1HEX    H1X 3856   3.774  16.943  12.335
    1HEX    H1Y 3857   4.213  17.209  12.710
    1HEX    H1Z 3858   4.157  17.264  12.858
    1HEX    H20 3859   4.435   0.019  12.895
    1HEX    H21 3860   4.532  17.324  12.915
    1HEX    H22 3861   4.375  17.126  13.061
    1HEX    H23 3862   4.387  17.182  13.224
    1HEX    H24 3863   4.796  17.086  13.117
    1HEX    H25 3864   4.826  17.079  13.289
    1HEX    H26 3865   4.821  17.345  13.133
    1HEX    H27 3866   4.967  17.251  13.157
    1HEX    H28 3867   4.780  17.420  13.363
    1HEX    H29 3868   4.463   0.107  13.116
    1HEX    H2A 3869   4.588  17.426  13.128
    1HEX    H2B 3870   4.489  17.373  13.533
    1HEX    H2C 3871   4.413   0.092  13.532
    1HEX    H2D 3872   4.646   0.192  13.588
    1HEX    H2E 3873   4.705   0.028  13.608
    1HEX    H2F 3874   4.452   0.179  13.763
    1HEX    H2G 3875   4.174  17.328  13.045
    1HEX    H2H 3876   4.228   0.046  13.089
    1HEX    H2I 3877   4.177  17.261  13.488
    1HEX    H2J 3878   4.031  17.173  13.448
    1HEX    H2K 3879   3.920  17.393  13.381
    1HEX    H2M 3880   4.066   0.039  13.426
    1HEX    H2N 3881   3.866  17.293  13.615
    1STR    S00 3882   4.821  17.295  12.406
    1STR    S0E 3883   4.145   0.701  12.894
    1STR    S0M 3884   3.790  16.910  12.464
    1STR    S0X 3885   4.894  17.350  13.362
    1STR    S14 3886   4.548   0.089  13.783
    1STR    S1B 3887   3.950  17.396  13.620
    1HEX    C01 3888   4.638   4.214  16.753
    1HEX    C02 3889   4.579   4.210  16.894
    1HEX    C03 3890   4.429   4.192  16.888
    1HEX    O04 3891   4.379   4.093  16.835
    1HEX    O05 3892   4.362   4.295  16.942
    1HEX    C06 3893   4.219   4.293  16.944
    1HEX    C07 3894   4.163   4.295  17.088
    1HEX    C08 3895   4.184   4.437  17.147
    1HEX    O09 3896   4.123   4.531  17.059
    1HEX    C0A 3897   4.121   4.660  17.090
    1HEX    O0B 3898   4.149   4.707  17.200
    1HEX    C0C 3899   4.084   4.747  16.970
    1HEX    C0D 3900   4.171   4.717  16.846
    1HEX    C0F 3901   4.009   4.275  17.083
    1HEX    O0G 3902   3.977   4.157  17.011
    1HEX    C0H 3903   3.894   4.162  16.906
    1HEX    O0I 3904   3.829   4.259  16.868
    1HEX    C0J 3905   3.887   4.030  16.832
    1HEX    C0K 3906   3.774   3.944  16.889
    1HEX    C0N 3907   4.223   4.176  17.170
    1HEX    O0O 3908   4.363   4.172  17.202
    1HEX    C0P 3909   4.429   4.264  17.290
    1HEX    C0Q 3910   4.397   4.262   0.002
    1HEX    C0R 3911   4.426   4.120   0.057
    1HEX    O0S 3912   4.566   4.090   0.050
    1HEX    C0T 3913   4.641   4.084   0.163
    1HEX    O0U 3914   4.599   4.095   0.278
    1HEX    C0V 3915   4.789   4.060   0.134
    1HEX    C0W 3916   4.872   4.190   0.122
    1HEX    C0Y 3917   4.493   4.363   0.070
    1HEX    O0Z 3918   4.469   4.364   0.209
    1HEX    C10 3919   4.555   4.420   0.292
    1HEX    O11 3920   4.659   4.478   0.259
    1HEX    C12 3921   4.513   4.405   0.437
    1HEX    C13 3922   4.619   4.454   0.536
    1HEX    C15 3923   4.253   4.312   0.033
    1HEX    O16 3924   4.210   4.289   0.167
    1HEX    C17 3925   4.133   4.184   0.197
    1HEX    O18 3926   4.098   4.095   0.119
    1HEX    C19 3927   4.088   4.185   0.342
    1HEX    C1A 3928   4.005   4.311   0.370
    1HEX    H1C 3929   4.843   4.218  16.633
    1HEX    H1D 3930   4.610   4.124  16.698
    1HEX    H1E 3931   4.600   4.299  16.698
    1HEX    H1F 3932   4.603   4.302  16.949
    1HEX    H1G 3933   4.620   4.127  16.952
    1HEX    H1H 3934   4.181   4.206  16.891
    1HEX    H1I 3935   4.184   4.378  16.887
    1HEX    H1J 3936   4.289   4.466  17.149
    1HEX    H1K 3937   4.143   4.447  17.247
    1HEX    H1M 3938   3.978   4.738  16.949
    1HEX    H1N 3939   4.101   4.850  17.002
    1HEX    H1O 3940   4.267   4.674  16.877
    1HEX    H1P 3941   4.196   4.810  16.794
    1HEX    H1R 3942   3.960   4.362  17.038
    1HEX    H1S 3943   3.967   4.269  17.183
    1HEX    H1T 3944   3.983   3.979  16.841
    1HEX    H1U 3945   3.870   4.051  16.727
    1HEX    H1V 3946   3.678   3.995  16.879
    1HEX    H1W 3947   3.790   3.927  16.996
    1HEX    H1X 3948   3.743   3.834  16.680
    1HEX    H1Y 3949   4.211   4.088  17.106
    1HEX    H1Z 3950   4.161   4.146  17.254
    1HEX    H20 3951   4.429   4.365  17.250
    1HEX    H21 3952   4.533   4.236  17.279
    1HEX    H22 3953   4.371   4.045  17.439
    1HEX    H23 3954   4.390   4.110   0.159
    1HEX    H24 3955   4.796   4.003   0.042
    1HEX    H25 3956   4.829   3.997   0.213
    1HEX    H26 3957   4.823   4.262   0.056
    1HEX    H27 3958   4.969   4.167   0.078
    1HEX    H28 3959   4.788   4.340   0.286
    1HEX    H29 3960   4.479   4.465   0.032
    1HEX    H2A 3961   4.597   4.338   0.051
    1HEX    H2B 3962   4.491   4.299   0.454
    1HEX    H2C 3963   4.419   4.459   0.449
    1HEX    H2D 3964   4.651   4.556   0.511
    1HEX    H2E 3965   4.708   4.391   0.530
    1HEX    H2F 3966   4.453   4.542   0.683
    1HEX    H2G 3967   4.177   4.271  17.407
    1HEX    H2H 3968   4.247   4.419   0.016
    1HEX    H2I 3969   4.176   4.181   0.406
    1HEX    H2J 3970   4.030   4.095   0.362
    1HEX    H2K 3971   3.919   4.316   0.303
    1HEX    H2M 3972   4.065   4.401   0.351
    1HEX    H2N 3973   3.865   4.209   0.533
    1STR    S00 3974   4.819   4.223  16.765
    1STR    S0E 3975   4.096   4.604  16.722
    1STR    S0M 3976   3.771   3.785  16.802
    1STR    S0X 3977   4.901   4.267   0.284
    1STR    S14 3978   4.550   4.452   0.704
    1STR    S1B 3979   3.949   4.312   0.543
    1HEX    C01 3980   4.516   4.874   3.985
    1HEX    C02 3981   4.541   4.729   4.039
    1HEX    C03 3982   4.482   4.610   3.959
    1HEX    O04 3983   4.553   4.544   3.884
    1HEX    O05 3984   4.353   4.580   3.988
    1HEX    C06 3985   4.285   4.466   3.930
    1HEX    C07 3986   4.180   4.401   4.028
    1HEX    C08 3987   4.163   4.493   4.152
    1HEX    O09 3988   4.118   4.620   4.108
    1HEX    C0A 3989   4.076   4.709   4.196
    1HEX    O0B 3990   4.048   4.685   4.314
    1HEX    C0C 3991   4.073   4.850   4.139
    1HEX    C0D 3992   4.094   4.954   4.249
    1HEX    C0F 3993   4.033   4.396   3.966
    1HEX    O0G 3994   3.974   4.270   3.931
    1HEX    C0H 3995   3.852   4.274   3.869
    1HEX    O0I 3996   3.804   4.373   3.816
    1HEX    C0J 3997   3.773   4.142   3.870
    1HEX    C0K 3998   3.697   4.118   4.004
    1HEX    C0N 3999   4.222   4.256   4.070
    1HEX    O0O 4000   4.360   4.223   4.104
    1HEX    C0P 4001   4.443   4.299   4.193
    1HEX    C0Q 4002   4.435   4.271   4.347
    1HEX    C0R 4003   4.510   4.141   4.387
    1HEX    O0S 4004   4.652   4.141   4.363
    1HEX    C0T 4005   4.740   4.149   4.467
    1HEX    O0U 4006   4.711   4.180   4.583
    1HEX    C0V 4007   4.883   4.105   4.432
    1HEX    C0W 4008   4.983   4.219   4.402
    1HEX    C0Y 4009   4.500   4.391   4.420
    1HEX    O0Z 4010   4.481   4.378   4.560
    1HEX    C10 4011   4.553   4.450   4.645
    1HEX    O11 4012   4.639   4.533   4.615
    1HEX    C12 4013   4.513   4.422   4.789
    1HEX    C13 4014   4.621   4.464   4.890
    1HEX    C15 4015   4.286   4.257   4.387
    1HEX    O16 4016   4.260   4.228   4.524
    1HEX    C17 4017   4.147   4.162   4.557
    1HEX    O18 4018   4.075   4.099   4.479
    1HEX    C19 4019   4.109   4.178   4.703
    1HEX    C1A 4020   4.022   4.304   4.718
    1HEX    H1D 4021   4.607   4.912   3.940
    1HEX    H1E 4022   4.442   4.871   3.905
    1HEX    H1F 4023   4.509   4.719   4.143
    1HEX    H1G 4024   4.649   4.712   4.040
    1HEX    H1H 4025   4.357   4.390   3.897
    1HEX    H1I 4026   4.237   4.499   3.838
    1HEX    H1J 4027   4.255   4.509   4.206
    1HEX    H1K 4028   4.091   4.450   4.223
    1HEX    H1M 4029   3.980   4.866   4.085
    1HEX    H1N 4030   4.154   4.856   4.065
    1HEX    H1O 4031   4.176   4.923   4.315
    1HEX    H1P 4032   4.005   4.961   4.311
    1HEX    H1Q 4033   4.251   5.079   4.123
    1HEX    H1R 4034   4.024   4.467   3.884
    1HEX    H1S 4035   3.961   4.435   4.039
    1HEX    H1T 4036   3.843   4.061   3.849
    1HEX    H1U 4037   3.703   4.143   3.786
    1HEX    H1V 4038   3.724   4.019   4.042
    1HEX    H1W 4039   3.731   4.189   4.079
    1HEX    H1Y 4040   4.204   4.192   3.984
    1HEX    H1Z 4041   4.152   4.218   4.144
    1HEX    H20 4042   4.435   4.405   4.169
    1HEX    H21 4043   4.545   4.275   4.163
    1HEX    H22 4044   4.467   4.057   4.333
    1HEX    H23 4045   4.490   4.119   4.492
    1HEX    H24 4046   4.880   4.032   4.352
    1HEX    H25 4047   4.917   4.050   4.521
    1HEX    H26 4048   4.959   4.310   4.458
    1HEX    H27 4049   4.978   4.246   4.297
    1HEX    H29 4050   4.458   4.487   4.389
    1HEX    H2A 4051   4.607   4.395   4.398
    1HEX    H2B 4052   4.493   4.315   4.798
    1HEX    H2C 4053   4.420   4.474   4.807
    1HEX    H2D 4054   4.651   4.567   4.874
    1HEX    H2E 4055   4.710   4.402   4.877
    1HEX    H2F 4056   4.457   4.535   5.047
    1HEX    H2G 4057   4.243   4.177   4.328
    1HEX    H2H 4058   4.231   4.348   4.365
    1HEX    H2I 4059   4.198   4.183   4.765
    1HEX    H2J 4060   4.053   4.090   4.733
    1HEX    H2K 4061   3.937   4.301   4.650
    1HEX    H2M 4062   4.080   4.393   4.691
    1HEX    H2N 4063   3.877   4.218   4.885
    1STR    S00 4064   4.457   4.997   4.113
    1STR    S0E 4065   4.133   5.116   4.177
    1STR    S0M 4066   3.513   4.123   3.998
    1STR    S0X 4067   5.156   4.168   4.442
    1STR    S14 4068   4.554   4.444   5.058
    1STR    S1B 4069   3.964   4.320   4.889
    1HEX    C01 4070   4.638   4.207   8.029
    1HEX    C02 4071   4.572   4.212   8.167
    1HEX    C03 4072   4.421   4.218   8.155
    1HEX    O04 4073   4.357   4.122   8.111
    1HEX    O05 4074   4.370   4.336   8.193
    1HEX    C06 4075   4.230   4.356   8.195
    1HEX    C07 4076   4.173   4.347   8.339
    1HEX    C08 4077   4.223   4.469   8.420
    1HEX    O09 4078   4.167   4.594   8.381
    1HEX    C0A 4079   4.095   4.664   8.470
    1HEX    O0B 4080   4.037   4.618   8.568
    1HEX    C0C 4081   4.095   4.814   8.442
    1HEX    C0D 4082   4.105   4.893   8.573
    1HEX    C0F 4083   4.018   4.352   8.334
    1HEX    O0G 4084   3.969   4.229   8.280
    1HEX    C0H 4085   3.925   4.223   8.154
    1HEX    O0I 4086   3.900   4.319   8.081
    1HEX    C0J 4087   3.913   4.080   8.104
    1HEX    C0K 4088   3.795   4.006   8.169
    1HEX    C0N 4089   4.211   4.211   8.408
    1HEX    O0O 4090   4.343   4.187   8.461
    1HEX    C0P 4091   4.400   4.261   8.571
    1HEX    C0Q 4092   4.344   4.245   8.717
    1HEX    C0R 4093   4.434   4.145   8.796
    1HEX    O0S 4094   4.574   4.168   8.793
    1HEX    C0T 4095   4.650   4.095   8.878
    1HEX    O0U 4096   4.607   4.033   8.975
    1HEX    C0V 4097   4.798   4.090   8.841
    1HEX    C0W 4098   4.865   4.227   8.831
    1HEX    C0Y 4099   4.339   4.385   8.788
    1HEX    O0Z 4100   4.205   4.438   8.779
    1HEX    C10 4101   4.157   4.520   8.873
    1HEX    O11 4102   4.222   4.610   8.927
    1HEX    C12 4103   4.016   4.482   8.921
    1HEX    C13 4104   3.896   4.571   8.879
    1HEX    C15 4105   4.203   4.182   8.724
    1HEX    O16 4106   4.163   4.174   8.860
    1HEX    C17 4107   4.092   4.070   8.905
    1HEX    O18 4108   4.061   3.970   8.842
    1HEX    C19 4109   4.049   4.091   9.050
    1HEX    C1A 4110   3.907   4.148   9.056
    1HEX    H1C 4111   4.848   4.207   7.918
    1HEX    H1D 4112   4.608   4.116   7.976
    1HEX    H1E 4113   4.605   4.292   7.968
    1HEX    H1F 4114   4.606   4.299   8.223
    1HEX    H1G 4115   4.598   4.124   8.225
    1HEX    H1H 4116   4.180   4.286   8.129
    1HEX    H1I 4117   4.208   4.454   8.153
    1HEX    H1J 4118   4.329   4.482   8.402
    1HEX    H1K 4119   4.209   4.452   8.526
    1HEX    H1M 4120   4.005   4.840   8.386
    1HEX    H1N 4121   4.180   4.835   8.378
    1HEX    H1O 4122   4.181   4.851   8.638
    1HEX    H1P 4123   4.010   4.887   8.628
    1HEX    H1Q 4124   4.272   5.048   8.503
    1HEX    H1R 4125   3.982   4.439   8.279
    1HEX    H1S 4126   3.977   4.363   8.435
    1HEX    H1T 4127   4.007   4.028   8.126
    1HEX    H1U 4128   3.903   4.082   7.995
    1HEX    H1V 4129   3.701   4.057   8.146
    1HEX    H1W 4130   3.806   4.005   8.277
    1HEX    H1X 4131   3.771   3.865   7.977
    1HEX    H1Y 4132   4.200   4.134   8.332
    1HEX    H1Z 4133   4.135   4.182   8.478
    1HEX    H20 4134   4.415   4.364   8.546
    1HEX    H21 4135   4.503   4.226   8.571
    1HEX    H22 4136   4.418   4.044   8.758
    1HEX    H23 4137   4.401   4.142   8.900
    1HEX    H24 4138   4.804   4.038   8.745
    1HEX    H25 4139   4.849   4.026   8.913
    1HEX    H26 4140   4.805   4.296   8.772
    1HEX    H27 4141   4.962   4.218   8.782
    1HEX    H28 4142   4.764   4.299   9.035
    1HEX    H29 4143   4.411   4.457   8.748
    1HEX    H2A 4144   4.365   4.375   8.893
    1HEX    H2B 4145   4.025   4.486   9.030
    1HEX    H2C 4146   3.999   4.377   8.897
    1HEX    H2D 4147   3.934   4.667   8.844
    1HEX    H2E 4148   3.837   4.593   8.968
    1HEX    H2G 4149   4.202   4.084   8.675
    1HEX    H2H 4150   4.128   4.244   8.674
    1HEX    H2I 4151   4.121   4.158   9.095
    1HEX    H2J 4152   4.056   3.996   9.103
    1HEX    H2K 4153   3.833   4.069   9.063
    1HEX    H2M 4154   3.882   4.202   8.964
    1HEX    H2N 4155   3.897   4.170   9.292
    1STR    S00 4156   4.818   4.212   8.049
    1STR    S0E 4157   4.144   5.067   8.537
    1STR    S0M 4158   3.791   3.836   8.106
    1STR    S0X 4159   4.893   4.297   8.997
    1STR    S14 4160   3.778   4.504   8.751
    1STR    S1B 4161   3.893   4.263   9.196
    1HEX    C01 4162   4.464   4.882  12.619
    1HEX    C02 4163   4.482   4.754  12.706
    1HEX    C03 4164   4.444   4.621  12.637
    1HEX    O04 4165   4.523   4.561  12.565
    1HEX    O05 4166   4.322   4.578  12.671
    1HEX    C06 4167   4.270   4.452  12.629
    1HEX    C07 4168   4.187   4.385  12.744
    1HEX    C08 4169   4.157   4.486  12.857
    1HEX    O09 4170   4.097   4.605  12.809
    1HEX    C0A 4171   4.018   4.673  12.889
    1HEX    O0B 4172   3.939   4.624  12.970
    1HEX    C0C 4173   4.040   4.824  12.880
    1HEX    C0D 4174   4.071   4.882  13.020
    1HEX    C0F 4175   4.046   4.346  12.692
    1HEX    O0G 4176   4.046   4.234  12.604
    1HEX    C0H 4177   3.941   4.215  12.523
    1HEX    O0I 4178   3.852   4.297  12.499
    1HEX    C0J 4179   3.934   4.075  12.463
    1HEX    C0K 4180   3.812   4.000  12.519
    1HEX    C0N 4181   4.257   4.256  12.799
    1HEX    O0O 4182   4.392   4.259  12.849
    1HEX    C0P 4183   4.438   4.329  12.967
    1HEX    C0Q 4184   4.393   4.284  13.110
    1HEX    C0R 4185   4.425   4.134  13.130
    1HEX    O0S 4186   4.566   4.110  13.125
    1HEX    C0T 4187   4.635   4.082  13.238
    1HEX    O0U 4188   4.587   4.072  13.351
    1HEX    C0V 4189   4.783   4.063  13.213
    1HEX    C0W 4190   4.860   4.196  13.198
    1HEX    C0Y 4191   4.471   4.368  13.217
    1HEX    O0Z 4192   4.429   4.339  13.351
    1HEX    C10 4193   4.496   4.390  13.457
    1HEX    O11 4194   4.601   4.453  13.449
    1HEX    C12 4195   4.425   4.365  13.592
    1HEX    C13 4196   4.511   4.392  13.719
    1HEX    C15 4197   4.242   4.315  13.129
    1HEX    O16 4198   4.191   4.288  13.258
    1HEX    C17 4199   4.125   4.175  13.285
    1HEX    O18 4200   4.104   4.083  13.207
    1HEX    C19 4201   4.074   4.173  13.428
    1HEX    C1A 4202   3.999   4.303  13.459
    1HEX    H1D 4203   4.560   4.929  12.604
    1HEX    H1E 4204   4.431   4.851  12.519
    1HEX    H1F 4205   4.431   4.761  12.802
    1HEX    H1G 4206   4.588   4.743  12.729
    1HEX    H1H 4207   4.348   4.385  12.593
    1HEX    H1I 4208   4.206   4.470  12.542
    1HEX    H1J 4209   4.248   4.519  12.905
    1HEX    H1K 4210   4.095   4.440  12.933
    1HEX    H1M 4211   3.951   4.869  12.836
    1HEX    H1N 4212   4.122   4.842  12.810
    1HEX    H1O 4213   4.062   4.805  13.097
    1HEX    H1P 4214   3.999   4.959  13.047
    1HEX    H1Q 4215   4.226   5.043  12.937
    1HEX    H1R 4216   3.998   4.432  12.645
    1HEX    H1S 4217   3.980   4.319  12.775
    1HEX    H1T 4218   4.026   4.021  12.486
    1HEX    H1U 4219   3.928   4.084  12.355
    1HEX    H1V 4220   3.720   4.053  12.495
    1HEX    H1W 4221   3.817   3.995  12.628
    1HEX    H1X 4222   3.781   3.865  12.325
    1HEX    H1Y 4223   4.265   4.188  12.714
    1HEX    H1Z 4224   4.191   4.199  12.864
    1HEX    H20 4225   4.430   4.436  12.953
    1HEX    H21 4226   4.546   4.312  12.962
    1HEX    H22 4227   4.377   4.074  13.052
    1HEX    H23 4228   4.383   4.098  13.224
    1HEX    H24 4229   4.793   4.004  13.122
    1HEX    H25 4230   4.826   4.003  13.294
    1HEX    H26 4231   4.806   4.264  13.131
    1HEX    H27 4232   4.957   4.178  13.153
    1HEX    H28 4233   4.759   4.312  13.384
    1HEX    H29 4234   4.458   4.475  13.200
    1HEX    H2A 4235   4.579   4.350  13.209
    1HEX    H2B 4236   4.389   4.262  13.593
    1HEX    H2C 4237   4.336   4.429  13.592
    1HEX    H2D 4238   4.589   4.464  13.694
    1HEX    H2E 4239   4.562   4.302  13.751
    1HEX    H2G 4240   4.181   4.262  13.057
    1HEX    H2H 4241   4.226   4.421  13.114
    1HEX    H2I 4242   4.161   4.162  13.493
    1HEX    H2J 4243   4.011   4.086  13.442
    1HEX    H2K 4244   3.911   4.314  13.395
    1HEX    H2M 4245   4.062   4.390  13.440
    1HEX    H2N 4246   3.860   4.207  13.626
    1STR    S00 4247   4.344   5.011  12.678
    1STR    S0E 4248   4.240   4.946  13.029
    1STR    S0M 4249   3.807   3.832  12.452
    1STR    S0X 4250   4.886   4.277  13.359
    1STR    S14 4251   4.419   4.467  13.860
    1STR    S1B 4252   3.949   4.305  13.634
    1HEX    C01 4253   4.640   8.566  16.749
    1HEX    C02 4254   4.578   8.569  16.889
    1HEX    C03 4255   4.426   8.570  16.879
    1HEX    O04 4256   4.364   8.471  16.842
    1HEX    O05 4257   4.373   8.689  16.913
    1HEX    C06 4258   4.232   8.705  16.919
    1HEX    C07 4259   4.182   8.702  17.065
    1HEX    C08 4260   4.231   8.831  17.135
    1HEX    O09 4261   4.164   8.951  17.100
    1HEX    C0A 4262   4.096   9.019  17.194
    1HEX    O0B 4263   4.051   8.970  17.297
    1HEX    C0C 4264   4.086   9.168  17.164
    1HEX    C0D 4265   4.099   9.250  17.293
    1HEX    C0F 4266   4.026   8.701  17.065
    1HEX    O0G 4267   3.980   8.578  17.009
    1HEX    C0H 4268   3.926   8.575  16.886
    1HEX    O0I 4269   3.893   8.672  16.819
    1HEX    C0J 4270   3.915   8.433  16.831
    1HEX    C0K 4271   3.794   8.360  16.890
    1HEX    C0N 4272   4.227   8.572  17.141
    1HEX    O0O 4273   4.364   8.555  17.184
    1HEX    C0P 4274   4.429   8.636  17.284
    1HEX    C0Q 4275   4.393   8.623  17.436
    1HEX    C0R 4276   4.426   8.479   0.043
    1HEX    O0S 4277   4.567   8.455   0.039
    1HEX    C0T 4278   4.638   8.446   0.154
    1HEX    O0U 4279   4.593   8.454   0.268
    1HEX    C0V 4280   4.787   8.423   0.129
    1HEX    C0W 4281   4.869   8.553   0.119
    1HEX    C0Y 4282   4.483   8.725   0.070
    1HEX    O0Z 4283   4.461   8.720   0.209
    1HEX    C10 4284   4.547   8.778   0.291
    1HEX    O11 4285   4.648   8.841   0.257
    1HEX    C12 4286   4.508   8.760   0.437
    1HEX    C13 4287   4.615   8.811   0.534
    1HEX    C15 4288   4.245   8.661   0.027
    1HEX    O16 4289   4.207   8.642   0.163
    1HEX    C17 4290   4.133   8.536   0.199
    1HEX    O18 4291   4.099   8.443   0.126
    1HEX    C19 4292   4.088   8.543   0.344
    1HEX    C1A 4293   4.006   8.670   0.368
    1HEX    H1C 4294   4.848   8.569  16.635
    1HEX    H1D 4295   4.611   8.474  16.697
    1HEX    H1E 4296   4.604   8.650  16.690
    1HEX    H1F 4297   4.610   8.656  16.945
    1HEX    H1G 4298   4.607   8.481  16.947
    1HEX    H1H 4299   4.183   8.629  16.858
    1HEX    H1I 4300   4.206   8.800  16.872
    1HEX    H1J 4301   4.335   8.848  17.108
    1HEX    H1K 4302   4.228   8.817  17.242
    1HEX    H1M 4303   3.993   9.189  17.112
    1HEX    H1N 4304   4.167   9.193  17.096
    1HEX    H1O 4305   4.174   9.208  17.360
    1HEX    H1P 4306   4.005   9.249  17.349
    1HEX    H1Q 4307   4.272   9.397  17.220
    1HEX    H1R 4308   3.986   8.788  17.012
    1HEX    H1S 4309   3.987   8.710  17.166
    1HEX    H1T 4310   4.008   8.380  16.854
    1HEX    H1U 4311   3.908   8.439  16.723
    1HEX    H1V 4312   3.702   8.412  16.866
    1HEX    H1W 4313   3.802   8.355  16.999
    1HEX    H1X 4314   3.774   8.224  16.695
    1HEX    H1Y 4315   4.213   8.490  17.070
    1HEX    H1Z 4316   4.157   8.544  17.218
    1HEX    H20 4317   4.435   8.740  17.255
    1HEX    H21 4318   4.533   8.604  17.275
    1HEX    H22 4319   4.375   8.406  17.421
    1HEX    H23 4320   4.387   8.463   0.144
    1HEX    H24 4321   4.796   8.366   0.037
    1HEX    H25 4322   4.826   8.359   0.209
    1HEX    H26 4323   4.821   8.625   0.053
    1HEX    H27 4324   4.967   8.531   0.077
    1HEX    H28 4325   4.779   8.700   0.283
    1HEX    H29 4326   4.464   8.827   0.036
    1HEX    H2A 4327   4.588   8.706   0.048
    1HEX    H2B 4328   4.489   8.654   0.453
    1HEX    H2C 4329   4.414   8.812   0.452
    1HEX    H2D 4330   4.647   8.912   0.508
    1HEX    H2E 4331   4.704   8.748   0.528
    1HEX    H2F 4332   4.452   8.900   0.683
    1HEX    H2G 4333   4.174   8.609  17.405
    1HEX    H2H 4334   4.228   8.767   0.009
    1HEX    H2I 4335   4.177   8.542   0.408
    1HEX    H2J 4336   4.031   8.454   0.368
    1HEX    H2K 4337   3.919   8.673   0.301
    1HEX    H2M 4338   4.066   8.759   0.346
    1HEX    H2N 4339   3.866   8.573   0.535
    1STR    S00 4340   4.821   8.575  16.766
    1STR    S0E 4341   4.145   9.421  17.254
    1STR    S0M 4342   3.790   8.191  16.823
    1STR    S0X 4343   4.894   8.630   0.282
    1STR    S14 4344   4.548   8.809   0.703
    1STR    S1B 4345   3.950   8.677   0.540
    1HEX    C01 4346   4.642   8.568   3.669
    1HEX    C02 4347   4.581   8.573   3.809
    1HEX    C03 4348   4.429   8.577   3.800
    1HEX    O04 4349   4.366   8.480   3.759
    1HEX    O05 4350   4.378   8.694   3.839
    1HEX    C06 4351   4.237   8.710   3.847
    1HEX    C07 4352   4.188   8.701   3.994
    1HEX    C08 4353   4.230   8.830   4.068
    1HEX    O09 4354   4.160   8.948   4.030
    1HEX    C0A 4355   4.094   9.019   4.124
    1HEX    O0B 4356   4.051   8.974   4.230
    1HEX    C0C 4357   4.084   9.167   4.089
    1HEX    C0D 4358   4.097   9.253   4.216
    1HEX    C0F 4359   4.033   8.694   3.995
    1HEX    O0G 4360   3.990   8.572   3.935
    1HEX    C0H 4361   3.931   8.571   3.814
    1HEX    O0I 4362   3.894   8.670   3.752
    1HEX    C0J 4363   3.919   8.432   3.756
    1HEX    C0K 4364   3.798   8.358   3.812
    1HEX    C0N 4365   4.241   8.572   4.066
    1HEX    O0O 4366   4.380   8.556   4.104
    1HEX    C0P 4367   4.451   8.642   4.196
    1HEX    C0Q 4368   4.444   8.619   4.351
    1HEX    C0R 4369   4.534   8.498   4.391
    1HEX    O0S 4370   4.674   8.511   4.359
    1HEX    C0T 4371   4.769   8.524   4.457
    1HEX    O0U 4372   4.746   8.544   4.576
    1HEX    C0V 4373   4.913   8.506   4.407
    1HEX    C0W 4374   5.015   8.608   4.465
    1HEX    C0Y 4375   4.504   8.744   4.419
    1HEX    O0Z 4376   4.486   8.732   4.559
    1HEX    C10 4377   4.554   8.808   4.643
    1HEX    O11 4378   4.638   8.893   4.612
    1HEX    C12 4379   4.514   8.781   4.787
    1HEX    C13 4380   4.622   8.822   4.888
    1HEX    C15 4381   4.298   8.603   4.404
    1HEX    O16 4382   4.291   8.507   4.510
    1HEX    C17 4383   4.233   8.387   4.491
    1HEX    O18 4384   4.155   8.357   4.401
    1HEX    C19 4385   4.279   8.287   4.598
    1HEX    C1A 4386   4.234   8.139   4.581
    1HEX    H1C 4387   4.849   8.568   3.553
    1HEX    H1D 4388   4.612   8.477   3.618
    1HEX    H1E 4389   4.607   8.652   3.609
    1HEX    H1F 4390   4.615   8.661   3.864
    1HEX    H1G 4391   4.609   8.485   3.868
    1HEX    H1H 4392   4.186   8.637   3.784
    1HEX    H1I 4393   4.210   8.807   3.805
    1HEX    H1J 4394   4.332   8.854   4.042
    1HEX    H1K 4395   4.226   8.814   4.176
    1HEX    H1M 4396   3.990   9.187   4.037
    1HEX    H1N 4397   4.164   9.189   4.020
    1HEX    H1O 4398   4.172   9.212   4.284
    1HEX    H1P 4399   4.003   9.254   4.271
    1HEX    H1Q 4400   4.272   9.397   4.139
    1HEX    H1R 4401   3.989   8.781   3.946
    1HEX    H1S 4402   3.995   8.697   4.097
    1HEX    H1T 4403   4.011   8.377   3.777
    1HEX    H1U 4404   3.912   8.440   3.647
    1HEX    H1V 4405   3.706   8.412   3.790
    1HEX    H1W 4406   3.805   8.350   3.921
    1HEX    H1X 4407   3.774   8.229   3.613
    1HEX    H1Y 4408   4.227   8.490   3.994
    1HEX    H1Z 4409   4.173   8.540   4.143
    1HEX    H20 4410   4.441   8.747   4.173
    1HEX    H21 4411   4.555   8.625   4.168
    1HEX    H22 4412   4.496   8.408   4.343
    1HEX    H23 4413   4.525   8.479   4.498
    1HEX    H24 4414   4.911   8.510   4.298
    1HEX    H25 4415   4.943   8.405   4.433
    1HEX    H26 4416   4.969   8.707   4.473
    1HEX    H27 4417   5.042   8.580   4.567
    1HEX    H29 4418   4.456   8.837   4.387
    1HEX    H2A 4419   4.610   8.756   4.396
    1HEX    H2B 4420   4.492   8.674   4.797
    1HEX    H2C 4421   4.421   8.834   4.805
    1HEX    H2D 4422   4.654   8.924   4.871
    1HEX    H2E 4423   4.710   8.758   4.876
    1HEX    H2F 4424   4.459   8.898   5.044
    1HEX    H2G 4425   4.226   8.578   4.328
    1HEX    H2H 4426   4.260   8.698   4.443
    1HEX    H2I 4427   4.245   8.327   4.694
    1HEX    H2J 4428   4.388   8.293   4.600
    1HEX    H2K 4429   4.162   8.127   4.500
    1HEX    H2M 4430   4.182   8.106   4.671
    1STR    S00 4431   4.823   8.574   3.684
    1STR    S0E 4432   4.145   9.423   4.172
    1STR    S0M 4433   3.790   8.191   3.741
    1STR    S0X 4434   5.169   8.624   4.364
    1STR    S14 4435   4.554   8.805   5.055
    1STR    S1B 4436   4.376   8.026   4.555
    1HEX    C01 4437   4.640   8.566   8.029
    1HEX    C02 4438   4.578   8.569   8.169
    1HEX    C03 4439   4.426   8.570   8.159
    1HEX    O04 4440   4.364   8.471   8.122
    1HEX    O05 4441   4.373   8.689   8.193
    1HEX    C06 4442   4.232   8.705   8.199
    1HEX    C07 4443   4.182   8.702   8.345
    1HEX    C08 4444   4.231   8.831   8.415
    1HEX    O09 4445   4.164   8.951   8.380
    1HEX    C0A 4446   4.096   9.019   8.474
    1HEX    O0B 4447   4.051   8.970   8.577
    1HEX    C0C 4448   4.086   9.168   8.444
    1HEX    C0D 4449   4.099   9.250   8.574
    1HEX    C0F 4450   4.026   8.701   8.345
    1HEX    O0G 4451   3.980   8.578   8.289
    1HEX    C0H 4452   3.926   8.575   8.166
    1HEX    O0I 4453   3.893   8.672   8.099
    1HEX    C0J 4454   3.915   8.433   8.111
    1HEX    C0K 4455   3.794   8.360   8.170
    1HEX    C0N 4456   4.227   8.572   8.421
    1HEX    O0O 4457   4.364   8.555   8.464
    1HEX    C0P 4458   4.429   8.636   8.564
    1HEX    C0Q 4459   4.393   8.623   8.716
    1HEX    C0R 4460   4.426   8.479   8.763
    1HEX    O0S 4461   4.567   8.455   8.759
    1HEX    C0T 4462   4.638   8.446   8.874
    1HEX    O0U 4463   4.593   8.454   8.988
    1HEX    C0V 4464   4.787   8.423   8.849
    1HEX    C0W 4465   4.869   8.553   8.839
    1HEX    C0Y 4466   4.483   8.725   8.790
    1HEX    O0Z 4467   4.461   8.720   8.929
    1HEX    C10 4468   4.547   8.778   9.011
    1HEX    O11 4469   4.648   8.841   8.977
    1HEX    C12 4470   4.508   8.760   9.157
    1HEX    C13 4471   4.615   8.811   9.254
    1HEX    C15 4472   4.245   8.661   8.747
    1HEX    O16 4473   4.207   8.642   8.883
    1HEX    C17 4474   4.133   8.536   8.919
    1HEX    O18 4475   4.099   8.443   8.846
    1HEX    C19 4476   4.088   8.543   9.064
    1HEX    C1A 4477   4.006   8.670   9.088
    1HEX    H1C 4478   4.848   8.569   7.915
    1HEX    H1D 4479   4.611   8.475   7.977
    1HEX    H1E 4480   4.604   8.650   7.970
    1HEX    H1F 4481   4.610   8.656   8.225
    1HEX    H1G 4482   4.607   8.481   8.227
    1HEX    H1H 4483   4.183   8.629   8.138
    1HEX    H1I 4484   4.206   8.800   8.152
    1HEX    H1J 4485   4.335   8.848   8.388
    1HEX    H1K 4486   4.228   8.817   8.522
    1HEX    H1M 4487   3.993   9.189   8.392
    1HEX    H1N 4488   4.167   9.193   8.376
    1HEX    H1O 4489   4.174   9.208   8.640
    1HEX    H1P 4490   4.005   9.249   8.629
    1HEX    H1Q 4491   4.272   9.397   8.500
    1HEX    H1R 4492   3.986   8.788   8.292
    1HEX    H1S 4493   3.987   8.710   8.446
    1HEX    H1T 4494   4.008   8.380   8.134
    1HEX    H1U 4495   3.908   8.439   8.003
    1HEX    H1V 4496   3.702   8.412   8.146
    1HEX    H1W 4497   3.802   8.355   8.279
    1HEX    H1X 4498   3.774   8.224   7.975
    1HEX    H1Y 4499   4.213   8.490   8.350
    1HEX    H1Z 4500   4.157   8.544   8.498
    1HEX    H20 4501   4.435   8.740   8.535
    1HEX    H21 4502   4.533   8.604   8.555
    1HEX    H22 4503   4.375   8.406   8.701
    1HEX    H23 4504   4.387   8.463   8.864
    1HEX    H24 4505   4.796   8.366   8.757
    1HEX    H25 4506   4.826   8.359   8.929
    1HEX    H26 4507   4.821   8.625   8.773
    1HEX    H27 4508   4.967   8.531   8.797
    1HEX    H28 4509   4.780   8.700   9.003
    1HEX    H29 4510   4.464   8.827   8.756
    1HEX    H2A 4511   4.588   8.706   8.768
    1HEX    H2B 4512   4.489   8.654   9.173
    1HEX    H2C 4513   4.414   8.812   9.172
    1HEX    H2D 4514   4.647   8.912   9.228
    1HEX    H2E 4515   4.704   8.748   9.248
    1HEX    H2F 4516   4.452   8.900   9.403
    1HEX    H2G 4517   4.174   8.609   8.685
    1HEX    H2H 4518   4.228   8.767   8.729
    1HEX    H2I 4519   4.177   8.542   9.128
    1HEX    H2J 4520   4.031   8.454   9.088
    1HEX    H2K 4521   3.919   8.673   9.021
    1HEX    H2M 4522   4.065   8.759   9.066
    1HEX    H2N 4523   3.866   8.573   9.255
    1STR    S00 4524   4.821   8.575   8.046
    1STR    S0E 4525   4.145   9.421   8.534
    1STR    S0M 4526   3.790   8.191   8.103
    1STR    S0X 4527   4.894   8.630   9.002
    1STR    S14 4528   4.548   8.809   9.423
    1STR    S1B 4529   3.950   8.677   9.260
    1HEX    C01 4530   4.635   8.563  12.395
    1HEX    C02 4531   4.575   8.562  12.536
    1HEX    C03 4532   4.423   8.557  12.528
    1HEX    O04 4533   4.364   8.456  12.491
    1HEX    O05 4534   4.366   8.674  12.563
    1HEX    C06 4535   4.225   8.688  12.563
    1HEX    C07 4536   4.170   8.720  12.704
    1HEX    C08 4537   4.227   8.857  12.749
    1HEX    O09 4538   4.159   8.974  12.704
    1HEX    C0A 4539   4.087   9.045  12.793
    1HEX    O0B 4540   4.040   9.001  12.897
    1HEX    C0C 4541   4.078   9.192  12.758
    1HEX    C0D 4542   4.097   9.281  12.882
    1HEX    C0F 4543   4.015   8.724  12.695
    1HEX    O0G 4544   3.967   8.596  12.650
    1HEX    C0H 4545   3.915   8.581  12.527
    1HEX    O0I 4546   3.878   8.672  12.453
    1HEX    C0J 4547   3.913   8.436  12.480
    1HEX    C0K 4548   3.792   8.361  12.536
    1HEX    C0N 4549   4.206   8.610  12.810
    1HEX    O0O 4550   4.343   8.588  12.841
    1HEX    C0P 4551   4.416   8.671  12.933
    1HEX    C0Q 4552   4.387   8.660  13.086
    1HEX    C0R 4553   4.371   8.510  13.126
    1HEX    O0S 4554   4.476   8.425  13.077
    1HEX    C0T 4555   4.523   8.322  13.152
    1HEX    O0U 4556   4.506   8.307  13.273
    1HEX    C0V 4557   4.608   8.223  13.070
    1HEX    C0W 4558   4.645   8.089  13.139
    1HEX    C0Y 4559   4.511   8.715  13.159
    1HEX    O0Z 4560   4.494   8.704  13.299
    1HEX    C10 4561   4.567   8.779  13.380
    1HEX    O11 4562   4.656   8.857  13.347
    1HEX    C12 4563   4.525   8.760  13.525
    1HEX    C13 4564   4.627   8.820  13.623
    1HEX    C15 4565   4.261   8.746  13.131
    1HEX    O16 4566   4.287   8.865  13.209
    1HEX    C17 4567   4.183   8.944  13.249
    1HEX    O18 4568   4.065   8.924  13.219
    1HEX    C19 4569   4.220   9.064  13.339
    1HEX    C1A 4570   4.189   9.202  13.272
    1HEX    H1C 4571   4.841   8.572  12.277
    1HEX    H1D 4572   4.608   8.471  12.342
    1HEX    H1E 4573   4.595   8.646  12.336
    1HEX    H1F 4574   4.604   8.651  12.591
    1HEX    H1G 4575   4.609   8.476  12.592
    1HEX    H1H 4576   4.178   8.599  12.522
    1HEX    H1I 4577   4.198   8.768  12.494
    1HEX    H1J 4578   4.330   8.866  12.715
    1HEX    H1K 4579   4.233   8.862  12.857
    1HEX    H1M 4580   3.982   9.213  12.709
    1HEX    H1N 4581   4.156   9.213  12.685
    1HEX    H1O 4582   4.174   9.239  12.948
    1HEX    H1P 4583   4.006   9.285  12.941
    1HEX    H1Q 4584   4.279   9.422  12.823
    1HEX    H1R 4585   3.981   8.804  12.630
    1HEX    H1S 4586   3.970   8.746  12.792
    1HEX    H1T 4587   4.006   8.388  12.510
    1HEX    H1U 4588   3.911   8.436  12.371
    1HEX    H1V 4589   3.699   8.410  12.507
    1HEX    H1W 4590   3.795   8.359  12.645
    1HEX    H1X 4591   3.778   8.220  12.343
    1HEX    H1Y 4592   4.171   8.515  12.770
    1HEX    H1Z 4593   4.148   8.623  12.902
    1HEX    H20 4594   4.423   8.774  12.901
    1HEX    H21 4595   4.518   8.634  12.918
    1HEX    H22 4596   4.278   8.470  13.086
    1HEX    H23 4597   4.362   8.502  13.235
    1HEX    H24 4598   4.701   8.277  13.049
    1HEX    H25 4599   4.561   8.206  12.974
    1HEX    H26 4600   4.683   8.110  13.239
    1HEX    H27 4601   4.727   8.041  13.084
    1HEX    H29 4602   4.527   8.820  13.131
    1HEX    H2A 4603   4.602   8.662  13.131
    1HEX    H2B 4604   4.512   8.654  13.544
    1HEX    H2C 4605   4.428   8.807  13.536
    1HEX    H2D 4606   4.651   8.923  13.596
    1HEX    H2E 4607   4.720   8.764  13.621
    1HEX    H2F 4608   4.455   8.902  13.767
    1HEX    H2G 4609   4.191   8.683  13.186
    1HEX    H2H 4610   4.203   8.779  13.045
    1HEX    H2I 4611   4.325   9.056  13.368
    1HEX    H2J 4612   4.162   9.055  13.431
    1HEX    H2K 4613   4.082   9.209  13.253
    1HEX    H2M 4614   4.237   9.204  13.174
    1STR    S00 4615   4.815   8.578  12.408
    1STR    S0E 4616   4.148   9.447  12.831
    1STR    S0M 4617   3.794   8.190  12.472
    1STR    S0X 4618   4.514   7.961  13.160
    1STR    S14 4619   4.556   8.817  13.790
    1STR    S1B 4620   4.243   9.356  13.362
    1HEX    C01 4621   4.504  13.572  17.040
    1HEX    C02 4622   4.540  13.426  17.085
    1HEX    C03 4623   4.474  13.310  17.008
    1HEX    O04 4624   4.535  13.252  16.919
    1HEX    O05 4625   4.352  13.276  17.053
    1HEX    C06 4626   4.276  13.170  16.991
    1HEX    C07 4627   4.178  13.102  17.092
    1HEX    C08 4628   4.148  13.198  17.209
    1HEX    O09 4629   4.098  13.323  17.164
    1HEX    C0A 4630   4.066  13.414  17.256
    1HEX    O0B 4631   4.046  13.390  17.375
    1HEX    C0C 4632   4.064  13.556  17.200
    1HEX    C0D 4633   4.083  13.660  17.312
    1HEX    C0F 4634   4.039  13.077  17.026
    1HEX    O0G 4635   4.038  12.963  16.941
    1HEX    C0H 4636   3.935  12.943  16.859
    1HEX    O0I 4637   3.849  13.026  16.830
    1HEX    C0J 4638   3.928  12.800  16.806
    1HEX    C0K 4639   3.810  12.726  16.872
    1HEX    C0N 4640   4.232  12.963  17.141
    1HEX    O0O 4641   4.367  12.946  17.183
    1HEX    C0P 4642   4.430  13.026  17.283
    1HEX    C0Q 4643   4.399  12.999  17.433
    1HEX    C0R 4644   4.434  12.852   0.029
    1HEX    O0S 4645   4.575  12.828   0.029
    1HEX    C0T 4646   4.641  12.810   0.146
    1HEX    O0U 4647   4.592  12.811   0.258
    1HEX    C0V 4648   4.790  12.786   0.126
    1HEX    C0W 4649   4.873  12.915   0.118
    1HEX    C0Y 4650   4.489  13.097   0.072
    1HEX    O0Z 4651   4.467  13.084   0.211
    1HEX    C10 4652   4.552  13.141   0.295
    1HEX    O11 4653   4.653  13.204   0.264
    1HEX    C12 4654   4.511  13.120   0.440
    1HEX    C13 4655   4.616  13.171   0.539
    1HEX    C15 4656   4.251  13.029   0.030
    1HEX    O16 4657   4.215  13.001   0.164
    1HEX    C17 4658   4.136  12.898   0.195
    1HEX    O18 4659   4.097  12.811   0.117
    1HEX    C19 4660   4.091  12.902   0.340
    1HEX    C1A 4661   4.009  13.029   0.366
    1HEX    H1D 4662   4.592  13.619  16.995
    1HEX    H1E 4663   4.428  13.569  16.962
    1HEX    H1F 4664   4.520  13.411  17.191
    1HEX    H1G 4665   4.648  13.411  17.074
    1HEX    H1H 4666   4.341  13.095  16.946
    1HEX    H1I 4667   4.221  13.214  16.908
    1HEX    H1J 4668   4.238  13.223  17.264
    1HEX    H1K 4669   4.077  13.154  17.280
    1HEX    H1M 4670   3.971  13.572  17.146
    1HEX    H1N 4671   4.146  13.565  17.128
    1HEX    H1O 4672   4.174  13.640  17.369
    1HEX    H1P 4673   4.000  13.653  17.383
    1HEX    H1Q 4674   4.221  13.825  17.216
    1HEX    H1R 4675   4.003  13.166  16.974
    1HEX    H1S 4676   3.963  13.058  17.103
    1HEX    H1T 4677   4.022  12.749  16.827
    1HEX    H1U 4678   3.916  12.804  16.698
    1HEX    H1V 4679   3.716  12.776  16.850
    1HEX    H1W 4680   3.821  12.726  16.981
    1HEX    H1X 4681   3.775  12.581  16.686
    1HEX    H1Y 4682   4.229  12.895  17.057
    1HEX    H1Z 4683   4.162  12.915  17.210
    1HEX    H20 4684   4.424  13.131  17.257
    1HEX    H21 4685   4.536  13.003  17.269
    1HEX    H22 4686   4.387  12.783  17.399
    1HEX    H23 4687   4.392  12.826   0.126
    1HEX    H24 4688   4.801  12.728   0.034
    1HEX    H25 4689   4.826  12.722   0.207
    1HEX    H26 4690   4.826  12.987   0.051
    1HEX    H27 4691   4.972  12.893   0.077
    1HEX    H28 4692   4.782  13.061   0.283
    1HEX    H29 4693   4.470  13.200   0.044
    1HEX    H2A 4694   4.594  13.078   0.050
    1HEX    H2B 4695   4.492  13.014   0.455
    1HEX    H2C 4696   4.416  13.172   0.454
    1HEX    H2D 4697   4.647  13.273   0.514
    1HEX    H2E 4698   4.706  13.109   0.534
    1HEX    H2F 4699   4.450  13.259   0.686
    1HEX    H2G 4700   4.182  12.978  17.404
    1HEX    H2H 4701   4.232  13.136   0.019
    1HEX    H2I 4702   4.180  12.899   0.403
    1HEX    H2J 4703   4.033  12.812   0.361
    1HEX    H2K 4704   3.922  13.033   0.299
    1HEX    H2M 4705   4.069  13.118   0.345
    1HEX    H2N 4706   3.868  12.931   0.531
    1STR    S00 4707   4.445  13.678  17.180
    1STR    S0E 4708   4.089  13.826  17.241
    1STR    S0M 4709   3.806  12.555  16.813
    1STR    S0X 4710   4.896  12.991   0.282
    1STR    S14 4711   4.546  13.168   0.707
    1STR    S1B 4712   3.954  13.034   0.538
    1HEX    C01 4713   4.640  12.926   3.669
    1HEX    C02 4714   4.578  12.929   3.809
    1HEX    C03 4715   4.426  12.930   3.799
    1HEX    O04 4716   4.364  12.831   3.762
    1HEX    O05 4717   4.373  13.049   3.833
    1HEX    C06 4718   4.232  13.065   3.839
    1HEX    C07 4719   4.182  13.062   3.985
    1HEX    C08 4720   4.231  13.191   4.055
    1HEX    O09 4721   4.164  13.311   4.019
    1HEX    C0A 4722   4.096  13.379   4.114
    1HEX    O0B 4723   4.051  13.330   4.218
    1HEX    C0C 4724   4.086  13.528   4.084
    1HEX    C0D 4725   4.099  13.610   4.214
    1HEX    C0F 4726   4.026  13.061   3.985
    1HEX    O0G 4727   3.980  12.938   3.929
    1HEX    C0H 4728   3.926  12.935   3.806
    1HEX    O0I 4729   3.893  13.032   3.739
    1HEX    C0J 4730   3.915  12.793   3.751
    1HEX    C0K 4731   3.794  12.720   3.810
    1HEX    C0N 4732   4.227  12.932   4.061
    1HEX    O0O 4733   4.364  12.915   4.104
    1HEX    C0P 4734   4.429  12.996   4.204
    1HEX    C0Q 4735   4.393  12.983   4.356
    1HEX    C0R 4736   4.426  12.839   4.403
    1HEX    O0S 4737   4.567  12.815   4.399
    1HEX    C0T 4738   4.638  12.806   4.514
    1HEX    O0U 4739   4.593  12.814   4.628
    1HEX    C0V 4740   4.787  12.783   4.489
    1HEX    C0W 4741   4.869  12.913   4.479
    1HEX    C0Y 4742   4.483  13.085   4.429
    1HEX    O0Z 4743   4.461  13.080   4.569
    1HEX    C10 4744   4.547  13.139   4.651
    1HEX    O11 4745   4.648  13.201   4.617
    1HEX    C12 4746   4.508  13.120   4.797
    1HEX    C13 4747   4.615  13.171   4.894
    1HEX    C15 4748   4.245  13.021   4.387
    1HEX    O16 4749   4.207  13.002   4.523
    1HEX    C17 4750   4.133  12.896   4.559
    1HEX    O18 4751   4.099  12.803   4.486
    1HEX    C19 4752   4.088  12.903   4.704
    1HEX    C1A 4753   4.006  13.031   4.728
    1HEX    H1C 4754   4.848  12.929   3.555
    1HEX    H1D 4755   4.611  12.835   3.617
    1HEX    H1E 4756   4.604  13.010   3.610
    1HEX    H1F 4757   4.610  13.016   3.865
    1HEX    H1G 4758   4.607  12.841   3.867
    1HEX    H1H 4759   4.183  12.989   3.778
    1HEX    H1I 4760   4.206  13.160   3.792
    1HEX    H1J 4761   4.335  13.208   4.028
    1HEX    H1K 4762   4.228  13.177   4.162
    1HEX    H1M 4763   3.993  13.549   4.032
    1HEX    H1N 4764   4.167  13.553   4.016
    1HEX    H1O 4765   4.174  13.568   4.280
    1HEX    H1P 4766   4.005  13.609   4.269
    1HEX    H1Q 4767   4.272  13.758   4.140
    1HEX    H1R 4768   3.986  13.148   3.932
    1HEX    H1S 4769   3.987  13.070   4.086
    1HEX    H1T 4770   4.008  12.740   3.774
    1HEX    H1U 4771   3.908  12.799   3.643
    1HEX    H1V 4772   3.702  12.772   3.786
    1HEX    H1W 4773   3.802  12.715   3.919
    1HEX    H1X 4774   3.774  12.584   3.615
    1HEX    H1Y 4775   4.213  12.850   3.990
    1HEX    H1Z 4776   4.157  12.904   4.138
    1HEX    H20 4777   4.435  13.100   4.175
    1HEX    H21 4778   4.533  12.964   4.195
    1HEX    H22 4779   4.375  12.766   4.341
    1HEX    H23 4780   4.387  12.823   4.504
    1HEX    H24 4781   4.796  12.726   4.397
    1HEX    H25 4782   4.826  12.720   4.569
    1HEX    H26 4783   4.821  12.985   4.413
    1HEX    H27 4784   4.967  12.892   4.437
    1HEX    H28 4785   4.779  13.061   4.643
    1HEX    H29 4786   4.464  13.188   4.396
    1HEX    H2A 4787   4.588  13.066   4.408
    1HEX    H2B 4788   4.489  13.014   4.813
    1HEX    H2C 4789   4.414  13.173   4.812
    1HEX    H2D 4790   4.646  13.273   4.868
    1HEX    H2E 4791   4.704  13.108   4.888
    1HEX    H2F 4792   4.452  13.260   5.043
    1HEX    H2G 4793   4.174  12.969   4.325
    1HEX    H2H 4794   4.228  13.127   4.369
    1HEX    H2I 4795   4.177  12.902   4.768
    1HEX    H2J 4796   4.031  12.814   4.728
    1HEX    H2K 4797   3.920  13.034   4.661
    1HEX    H2M 4798   4.066  13.119   4.706
    1HEX    H2N 4799   3.866  12.933   4.895
    1STR    S00 4800   4.821  12.935   3.686
    1STR    S0E 4801   4.145  13.782   4.174
    1STR    S0M 4802   3.790  12.551   3.744
    1STR    S0X 4803   4.894  12.991   4.642
    1STR    S14 4804   4.548  13.169   5.063
    1STR    S1B 4805   3.950  13.037   4.900
    1HEX    C01 4806   4.640  12.926   8.029
    1HEX    C02 4807   4.578  12.929   8.169
    1HEX    C03 4808   4.426  12.930   8.159
    1HEX    O04 4809   4.364  12.831   8.122
    1HEX    O05 4810   4.373  13.049   8.193
    1HEX    C06 4811   4.232  13.065   8.199
    1HEX    C07 4812   4.182  13.062   8.345
    1HEX    C08 4813   4.231  13.191   8.415
    1HEX    O09 4814   4.164  13.311   8.379
    1HEX    C0A 4815   4.096  13.379   8.474
    1HEX    O0B 4816   4.051  13.330   8.577
    1HEX    C0C 4817   4.086  13.528   8.444
    1HEX    C0D 4818   4.099  13.610   8.574
    1HEX    C0F 4819   4.026  13.061   8.345
    1HEX    O0G 4820   3.980  12.938   8.289
    1HEX    C0H 4821   3.926  12.935   8.166
    1HEX    O0I 4822   3.893  13.032   8.099
    1HEX    C0J 4823   3.915  12.793   8.111
    1HEX    C0K 4824   3.794  12.720   8.170
    1HEX    C0N 4825   4.227  12.932   8.421
    1HEX    O0O 4826   4.364  12.915   8.464
    1HEX    C0P 4827   4.429  12.996   8.564
    1HEX    C0Q 4828   4.393  12.983   8.716
    1HEX    C0R 4829   4.426  12.839   8.763
    1HEX    O0S 4830   4.567  12.815   8.759
    1HEX    C0T 4831   4.638  12.806   8.874
    1HEX    O0U 4832   4.593  12.814   8.988
    1HEX    C0V 4833   4.787  12.783   8.849
    1HEX    C0W 4834   4.869  12.913   8.839
    1HEX    C0Y 4835   4.483  13.085   8.789
    1HEX    O0Z 4836   4.461  13.080   8.929
    1HEX    C10 4837   4.547  13.139   9.011
    1HEX    O11 4838   4.648  13.201   8.977
    1HEX    C12 4839   4.508  13.120   9.157
    1HEX    C13 4840   4.615  13.171   9.254
    1HEX    C15 4841   4.245  13.021   8.747
    1HEX    O16 4842   4.207  13.002   8.883
    1HEX    C17 4843   4.133  12.896   8.919
    1HEX    O18 4844   4.099  12.803   8.846
    1HEX    C19 4845   4.088  12.903   9.064
    1HEX    C1A 4846   4.006  13.031   9.088
    1HEX    H1C 4847   4.848  12.929   7.915
    1HEX    H1D 4848   4.611  12.835   7.977
    1HEX    H1E 4849   4.604  13.010   7.970
    1HEX    H1F 4850   4.610  13.016   8.225
    1HEX    H1G 4851   4.607  12.841   8.227
    1HEX    H1H 4852   4.183  12.989   8.138
    1HEX    H1I 4853   4.206  13.160   8.152
    1HEX    H1J 4854   4.335  13.208   8.388
    1HEX    H1K 4855   4.228  13.177   8.522
    1HEX    H1M 4856   3.993  13.549   8.392
    1HEX    H1N 4857   4.167  13.553   8.376
    1HEX    H1O 4858   4.174  13.568   8.640
    1HEX    H1P 4859   4.005  13.608   8.629
    1HEX    H1Q 4860   4.272  13.758   8.500
    1HEX    H1R 4861   3.986  13.148   8.292
    1HEX    H1S 4862   3.987  13.070   8.446
    1HEX    H1T 4863   4.008  12.740   8.134
    1HEX    H1U 4864   3.908  12.799   8.003
    1HEX    H1V 4865   3.702  12.772   8.146
    1HEX    H1W 4866   3.802  12.715   8.279
    1HEX    H1X 4867   3.774  12.584   7.975
    1HEX    H1Y 4868   4.213  12.850   8.350
    1HEX    H1Z 4869   4.157  12.904   8.498
    1HEX    H20 4870   4.435  13.100   8.535
    1HEX    H21 4871   4.533  12.964   8.555
    1HEX    H22 4872   4.375  12.766   8.701
    1HEX    H23 4873   4.387  12.823   8.864
    1HEX    H24 4874   4.796  12.726   8.757
    1HEX    H25 4875   4.826  12.720   8.929
    1HEX    H26 4876   4.821  12.985   8.773
    1HEX    H27 4877   4.967  12.892   8.797
    1HEX    H28 4878   4.779  13.061   9.003
    1HEX    H29 4879   4.464  13.188   8.756
    1HEX    H2A 4880   4.588  13.066   8.768
    1HEX    H2B 4881   4.489  13.014   9.173
    1HEX    H2C 4882   4.414  13.173   9.172
    1HEX    H2D 4883   4.646  13.273   9.228
    1HEX    H2E 4884   4.704  13.108   9.248
    1HEX    H2F 4885   4.452  13.260   9.403
    1HEX    H2G 4886   4.174  12.969   8.685
    1HEX    H2H 4887   4.228  13.127   8.729
    1HEX    H2I 4888   4.177  12.902   9.128
    1HEX    H2J 4889   4.031  12.814   9.088
    1HEX    H2K 4890   3.920  13.034   9.021
    1HEX    H2M 4891   4.066  13.119   9.066
    1HEX    H2N 4892   3.866  12.933   9.255
    1STR    S00 4893   4.821  12.935   8.046
    1STR    S0E 4894   4.145  13.781   8.534
    1STR    S0M 4895   3.790  12.551   8.103
    1STR    S0X 4896   4.894  12.991   9.002
    1STR    S14 4897   4.548  13.169   9.423
    1STR    S1B 4898   3.950  13.037   9.260
    1HEX    C01 4899   4.623  12.932  12.383
    1HEX    C02 4900   4.553  12.941  12.519
    1HEX    C03 4901   4.402  12.941  12.504
    1HEX    O04 4902   4.342  12.841  12.465
    1HEX    O05 4903   4.346  13.058  12.539
    1HEX    C06 4904   4.206  13.068  12.562
    1HEX    C07 4905   4.177  13.071  12.714
    1HEX    C08 4906   4.240  13.199  12.775
    1HEX    O09 4907   4.179  13.322  12.739
    1HEX    C0A 4908   4.108  13.390  12.831
    1HEX    O0B 4909   4.060  13.341  12.934
    1HEX    C0C 4910   4.095  13.538  12.801
    1HEX    C0D 4911   4.102  13.620  12.931
    1HEX    C0F 4912   4.024  13.077  12.740
    1HEX    O0G 4913   3.950  12.954  12.725
    1HEX    C0H 4914   3.842  12.950  12.643
    1HEX    O0I 4915   3.825  13.023  12.545
    1HEX    C0J 4916   3.732  12.852  12.687
    1HEX    C0K 4917   3.632  12.931  12.775
    1HEX    C0N 4918   4.237  12.945  12.784
    1HEX    O0O 4919   4.377  12.946  12.824
    1HEX    C0P 4920   4.431  13.008  12.944
    1HEX    C0Q 4921   4.401  12.942  13.082
    1HEX    C0R 4922   4.460  12.799  13.077
    1HEX    O0S 4923   4.601  12.809  13.058
    1HEX    C0T 4924   4.687  12.730  13.125
    1HEX    O0U 4925   4.656  12.639  13.202
    1HEX    C0V 4926   4.833  12.762  13.094
    1HEX    C0W 4927   4.876  12.906  13.125
    1HEX    C0Y 4928   4.471  13.018  13.199
    1HEX    O0Z 4929   4.430  12.961  13.323
    1HEX    C10 4930   4.500  12.866  13.387
    1HEX    O11 4931   4.622  12.861  13.396
    1HEX    C12 4932   4.408  12.766  13.459
    1HEX    C13 4933   4.440  12.613  13.451
    1HEX    C15 4934   4.247  12.942  13.104
    1HEX    O16 4935   4.196  12.924  13.236
    1HEX    C17 4936   4.086  12.848  13.256
    1HEX    O18 4937   4.033  12.775  13.174
    1HEX    C19 4938   4.028  12.864  13.396
    1HEX    C1A 4939   3.993  13.010  13.426
    1HEX    H1C 4940   4.839  12.928  12.282
    1HEX    H1D 4941   4.597  12.838  12.333
    1HEX    H1E 4942   4.592  13.014  12.318
    1HEX    H1F 4943   4.583  13.031  12.572
    1HEX    H1G 4944   4.580  12.857  12.582
    1HEX    H1H 4945   4.151  12.987  12.514
    1HEX    H1I 4946   4.170  13.159  12.514
    1HEX    H1J 4947   4.345  13.205  12.747
    1HEX    H1K 4948   4.237  13.190  12.883
    1HEX    H1M 4949   4.002  13.557  12.747
    1HEX    H1N 4950   4.177  13.565  12.734
    1HEX    H1O 4951   4.176  13.578  13.000
    1HEX    H1P 4952   4.006  13.617  12.983
    1HEX    H1Q 4953   4.276  13.768  12.862
    1HEX    H1R 4954   3.979  13.158  12.682
    1HEX    H1S 4955   4.006  13.106  12.844
    1HEX    H1T 4956   3.778  12.768  12.740
    1HEX    H1U 4957   3.685  12.811  12.598
    1HEX    H1V 4958   3.581  13.006  12.715
    1HEX    H1W 4959   3.691  12.984  12.850
    1HEX    H1Y 4960   4.230  12.864  12.712
    1HEX    H1Z 4961   4.168  12.911  12.859
    1HEX    H20 4962   4.415  13.115  12.949
    1HEX    H21 4963   4.539  13.004  12.928
    1HEX    H22 4964   4.416  12.741  12.995
    1HEX    H23 4965   4.434  12.744  13.167
    1HEX    H24 4966   4.846  12.742  12.988
    1HEX    H25 4967   4.896  12.691  13.147
    1HEX    H26 4968   4.800  12.978  13.094
    1HEX    H27 4969   4.966  12.930  13.070
    1HEX    H28 4970   4.789  12.904  13.349
    1HEX    H29 4971   4.442  13.123  13.200
    1HEX    H2A 4972   4.580  13.017  13.191
    1HEX    H2B 4973   4.307  12.784  13.425
    1HEX    H2C 4974   4.412  12.798  13.563
    1HEX    H2D 4975   4.398  12.568  13.540
    1HEX    H2E 4976   4.548  12.599  13.458
    1HEX    H2G 4977   4.208  12.861  13.044
    1HEX    H2H 4978   4.204  13.036  13.067
    1HEX    H2I 4979   4.099  12.826  13.469
    1HEX    H2J 4980   3.940  12.800  13.403
    1HEX    H2K 4981   3.913  13.044  13.360
    1HEX    H2M 4982   4.079  13.075  13.408
    1HEX    H2N 4983   3.838  12.942  13.593
    1STR    S00 4984   4.803  12.939  12.410
    1STR    S0E 4985   4.148  13.792  12.895
    1STR    S0M 4986   3.499  12.845  12.869
    1STR    S0X 4987   4.913  12.931  13.302
    1STR    S14 4988   4.378  12.511  13.309
    1STR    S1B 4989   3.942  13.025  13.599
    1HEX    C01 4990   9.168  17.225  16.815
    1HEX    C02 4991   9.131  17.145  16.941
    1HEX    C03 4992   8.981  17.121  16.939
    1HEX    O04 4993   8.933  17.008  16.951
    1HEX    O05 4994   8.916  17.234  16.913
    1HEX    C06 4995   8.778  17.231  16.885
    1HEX    C07 4996   8.696  17.275  17.007
    1HEX    C08 4997   8.739  17.421  17.049
    1HEX    O09 4998   8.690   0.108  17.006
    1HEX    C0A 4999   8.730   0.218  17.083
    1HEX    O0B 5000   8.811   0.212  17.175
    1HEX    C0C 5001   8.650   0.348  17.061
    1HEX    C0D 5002   8.594   0.407  17.194
    1HEX    C0F 5003   8.551  17.262  16.957
    1HEX    O0G 5004   8.499  17.134  16.923
    1HEX    C0H 5005   8.368  17.130  16.885
    1HEX    O0I 5006   8.288  17.223  16.896
    1HEX    C0J 5007   8.323  16.999  16.823
    1HEX    C0K 5008   8.179  16.965  16.866
    1HEX    C0N 5009   8.711  17.177  17.128
    1HEX    O0O 5010   8.827  17.189  17.211
    1HEX    C0P 5011   8.853  17.302  17.296
    1HEX    C0Q 5012   8.758  17.339  17.417
    1HEX    C0R 5013   8.753  17.213   0.069
    1HEX    O0S 5014   8.885  17.156   0.084
    1HEX    C0T 5015   8.962  17.174   0.194
    1HEX    O0U 5016   8.923  17.216   0.302
    1HEX    C0V 5017   9.108  17.133   0.171
    1HEX    C0W 5018   9.204  17.251   0.142
    1HEX    C0Y 5019   8.840   0.008   0.053
    1HEX    O0Z 5020   8.799   0.028   0.188
    1HEX    C10 5021   8.890   0.076   0.276
    1HEX    O11 5022   9.001   0.120   0.246
    1HEX    C12 5023   8.845   0.066   0.422
    1HEX    C13 5024   8.960   0.096   0.521
    1HEX    C15 5025   8.614  17.405  17.383
    1HEX    O16 5026   8.535  17.359  17.269
    1HEX    C17 5027   8.413  17.413  17.225
    1HEX    O18 5028   8.305  17.367  17.260
    1HEX    C19 5029   8.419   0.092  17.122
    1HEX    C1A 5030   8.356   0.103  16.971
    1HEX    H1C 5031   9.346  17.293  16.676
    1HEX    H1D 5032   9.120  17.181  16.728
    1HEX    H1E 5033   9.130  17.328  16.823
    1HEX    H1F 5034   9.157  17.198  17.032
    1HEX    H1G 5035   9.180  17.048  16.943
    1HEX    H1H 5036   8.746  17.132  16.850
    1HEX    H1I 5037   8.760  17.298  16.801
    1HEX    H1J 5038   8.848  17.428  17.044
    1HEX    H1K 5039   8.711  17.429  17.151
    1HEX    H1M 5040   8.571   0.331  16.988
    1HEX    H1N 5041   8.719   0.419  17.016
    1HEX    H1O 5042   8.668   0.402  17.274
    1HEX    H1P 5043   8.507   0.352  17.230
    1HEX    H1Q 5044   8.665   0.635  17.192
    1HEX    H1R 5045   8.551  17.314  16.864
    1HEX    H1S 5046   8.481  17.309  17.023
    1HEX    H1T 5047   8.392  16.919  16.852
    1HEX    H1U 5048   8.329  17.010  16.715
    1HEX    H1V 5049   8.111  17.048  16.844
    1HEX    H1W 5050   8.175  16.950  16.974
    1HEX    H1X 5051   8.109  16.874  16.658
    1HEX    H1Y 5052   8.715  17.076  17.087
    1HEX    H1Z 5053   8.622  17.170  17.190
    1HEX    H20 5054   8.888  17.391  17.245
    1HEX    H21 5055   8.949  17.271  17.336
    1HEX    H22 5056   8.690  17.136   0.024
    1HEX    H23 5057   8.710  17.235   0.167
    1HEX    H24 5058   9.109  17.065   0.086
    1HEX    H25 5059   9.143  17.076   0.257
    1HEX    H26 5060   9.162  17.320   0.069
    1HEX    H27 5061   9.297  17.213   0.100
    1HEX    H28 5062   9.139  17.423   0.293
    1HEX    H29 5063   8.841   0.104   0.001
    1HEX    H2A 5064   8.945  17.418   0.056
    1HEX    H2B 5065   8.808  17.405   0.438
    1HEX    H2C 5066   8.762   0.135   0.436
    1HEX    H2D 5067   9.005   0.193   0.500
    1HEX    H2E 5068   9.039   0.021   0.510
    1HEX    H2F 5069   8.811   0.196   0.678
    1HEX    H2G 5070   8.629   0.072  17.365
    1HEX    H2H 5071   8.552  17.401   0.033
    1HEX    H2I 5072   8.510   0.143  17.139
    1HEX    H2J 5073   8.351   0.157  17.177
    1HEX    H2K 5074   8.261   0.050  16.982
    1HEX    H2M 5075   8.328   0.208  16.961
    1STR    S00 5076   9.347  17.226  16.792
    1STR    S0E 5077   8.544   0.580  17.173
    1STR    S0M 5078   8.121  16.817  16.779
    1STR    S0X 5079   9.247  17.343   0.293
    1STR    S14 5080   8.895   0.093   0.690
    1STR    S1B 5081   8.405   0.054  16.789
    1HEX    C01 5082   9.000  17.286   3.669
    1HEX    C02 5083   8.938  17.288   3.809
    1HEX    C03 5084   8.786  17.289   3.799
    1HEX    O04 5085   8.724  17.190   3.762
    1HEX    O05 5086   8.733  17.408   3.833
    1HEX    C06 5087   8.592  17.424   3.839
    1HEX    C07 5088   8.542  17.422   3.985
    1HEX    C08 5089   8.591   0.110   4.055
    1HEX    O09 5090   8.524   0.231   4.019
    1HEX    C0A 5091   8.456   0.298   4.114
    1HEX    O0B 5092   8.411   0.250   4.217
    1HEX    C0C 5093   8.446   0.447   4.084
    1HEX    C0D 5094   8.459   0.530   4.214
    1HEX    C0F 5095   8.386  17.421   3.985
    1HEX    O0G 5096   8.340  17.298   3.929
    1HEX    C0H 5097   8.286  17.294   3.806
    1HEX    O0I 5098   8.253  17.391   3.738
    1HEX    C0J 5099   8.275  17.153   3.751
    1HEX    C0K 5100   8.155  17.079   3.810
    1HEX    C0N 5101   8.587  17.292   4.061
    1HEX    O0O 5102   8.724  17.275   4.104
    1HEX    C0P 5103   8.788  17.356   4.204
    1HEX    C0Q 5104   8.753  17.343   4.356
    1HEX    C0R 5105   8.786  17.199   4.403
    1HEX    O0S 5106   8.927  17.174   4.399
    1HEX    C0T 5107   8.998  17.166   4.514
    1HEX    O0U 5108   8.953  17.174   4.628
    1HEX    C0V 5109   9.147  17.143   4.489
    1HEX    C0W 5110   9.229  17.273   4.479
    1HEX    C0Y 5111   8.843   0.005   4.429
    1HEX    O0Z 5112   8.821  17.439   4.569
    1HEX    C10 5113   8.907   0.058   4.651
    1HEX    O11 5114   9.008   0.120   4.617
    1HEX    C12 5115   8.868   0.040   4.797
    1HEX    C13 5116   8.975   0.091   4.894
    1HEX    C15 5117   8.605  17.381   4.387
    1HEX    O16 5118   8.567  17.361   4.523
    1HEX    C17 5119   8.493  17.255   4.559
    1HEX    O18 5120   8.459  17.162   4.486
    1HEX    C19 5121   8.448  17.263   4.704
    1HEX    C1A 5122   8.366  17.390   4.728
    1HEX    H1C 5123   9.208  17.289   3.555
    1HEX    H1D 5124   8.972  17.194   3.617
    1HEX    H1E 5125   8.964  17.370   3.610
    1HEX    H1F 5126   8.970  17.376   3.865
    1HEX    H1G 5127   8.967  17.201   3.867
    1HEX    H1H 5128   8.543  17.349   3.778
    1HEX    H1I 5129   8.566   0.079   3.792
    1HEX    H1J 5130   8.695   0.127   4.028
    1HEX    H1K 5131   8.588   0.096   4.162
    1HEX    H1M 5132   8.353   0.469   4.032
    1HEX    H1N 5133   8.527   0.472   4.016
    1HEX    H1O 5134   8.535   0.487   4.280
    1HEX    H1P 5135   8.365   0.528   4.269
    1HEX    H1Q 5136   8.632   0.677   4.140
    1HEX    H1R 5137   8.346   0.068   3.932
    1HEX    H1S 5138   8.347  17.429   4.086
    1HEX    H1T 5139   8.368  17.100   3.774
    1HEX    H1U 5140   8.268  17.158   3.643
    1HEX    H1V 5141   8.062  17.131   3.786
    1HEX    H1W 5142   8.162  17.075   3.919
    1HEX    H1X 5143   8.134  16.943   3.615
    1HEX    H1Y 5144   8.573  17.209   3.990
    1HEX    H1Z 5145   8.517  17.264   4.138
    1HEX    H20 5146   8.795   0.019   4.175
    1HEX    H21 5147   8.892  17.324   4.195
    1HEX    H22 5148   8.735  17.126   4.341
    1HEX    H23 5149   8.748  17.182   4.504
    1HEX    H24 5150   9.156  17.086   4.397
    1HEX    H25 5151   9.186  17.079   4.569
    1HEX    H26 5152   9.181  17.345   4.413
    1HEX    H27 5153   9.327  17.251   4.437
    1HEX    H28 5154   9.140  17.420   4.643
    1HEX    H29 5155   8.823   0.107   4.396
    1HEX    H2A 5156   8.948  17.426   4.408
    1HEX    H2B 5157   8.850  17.373   4.813
    1HEX    H2C 5158   8.774   0.091   4.812
    1HEX    H2D 5159   9.006   0.193   4.868
    1HEX    H2E 5160   9.065   0.029   4.888
    1HEX    H2F 5161   8.812   0.179   5.043
    1HEX    H2G 5162   8.534  17.328   4.325
    1HEX    H2H 5163   8.588   0.046   4.369
    1HEX    H2I 5164   8.537  17.261   4.768
    1HEX    H2J 5165   8.391  17.173   4.728
    1HEX    H2K 5166   8.280  17.393   4.661
    1HEX    H2M 5167   8.426   0.039   4.706
    1HEX    H2N 5168   8.226  17.293   4.895
    1STR    S00 5169   9.181  17.295   3.686
    1STR    S0E 5170   8.505   0.701   4.175
    1STR    S0M 5171   8.150  16.910   3.744
    1STR    S0X 5172   9.254  17.350   4.642
    1STR    S14 5173   8.908   0.089   5.063
    1STR    S1B 5174   8.310  17.396   4.900
    1HEX    C01 5175   9.000  17.286   8.029
    1HEX    C02 5176   8.938  17.288   8.169
    1HEX    C03 5177   8.786  17.290   8.159
    1HEX    O04 5178   8.724  17.190   8.122
    1HEX    O05 5179   8.733  17.408   8.193
    1HEX    C06 5180   8.592  17.424   8.199
    1HEX    C07 5181   8.542  17.422   8.345
    1HEX    C08 5182   8.591   0.110   8.415
    1HEX    O09 5183   8.524   0.231   8.379
    1HEX    C0A 5184   8.456   0.298   8.474
    1HEX    O0B 5185   8.411   0.250   8.577
    1HEX    C0C 5186   8.446   0.447   8.444
    1HEX    C0D 5187   8.459   0.530   8.574
    1HEX    C0F 5188   8.386  17.421   8.345
    1HEX    O0G 5189   8.340  17.298   8.289
    1HEX    C0H 5190   8.286  17.294   8.166
    1HEX    O0I 5191   8.253  17.391   8.098
    1HEX    C0J 5192   8.275  17.153   8.111
    1HEX    C0K 5193   8.155  17.079   8.170
    1HEX    C0N 5194   8.587  17.292   8.421
    1HEX    O0O 5195   8.724  17.275   8.464
    1HEX    C0P 5196   8.788  17.356   8.564
    1HEX    C0Q 5197   8.753  17.343   8.716
    1HEX    C0R 5198   8.786  17.199   8.763
    1HEX    O0S 5199   8.927  17.174   8.759
    1HEX    C0T 5200   8.998  17.166   8.874
    1HEX    O0U 5201   8.953  17.174   8.988
    1HEX    C0V 5202   9.147  17.143   8.849
    1HEX    C0W 5203   9.229  17.273   8.839
    1HEX    C0Y 5204   8.843   0.005   8.789
    1HEX    O0Z 5205   8.821  17.439   8.929
    1HEX    C10 5206   8.907   0.058   9.011
    1HEX    O11 5207   9.008   0.120   8.977
    1HEX    C12 5208   8.868   0.040   9.157
    1HEX    C13 5209   8.975   0.091   9.254
    1HEX    C15 5210   8.605  17.381   8.747
    1HEX    O16 5211   8.567  17.361   8.883
    1HEX    C17 5212   8.493  17.255   8.919
    1HEX    O18 5213   8.459  17.162   8.846
    1HEX    C19 5214   8.448  17.263   9.064
    1HEX    C1A 5215   8.366  17.390   9.088
    1HEX    H1C 5216   9.208  17.289   7.915
    1HEX    H1D 5217   8.972  17.194   7.977
    1HEX    H1E 5218   8.964  17.370   7.970
    1HEX    H1F 5219   8.970  17.376   8.225
    1HEX    H1G 5220   8.967  17.201   8.227
    1HEX    H1H 5221   8.543  17.349   8.138
    1HEX    H1I 5222   8.566   0.079   8.152
    1HEX    H1J 5223   8.695   0.127   8.388
    1HEX    H1K 5224   8.588   0.096   8.522
    1HEX    H1M 5225   8.353   0.469   8.392
    1HEX    H1N 5226   8.527   0.472   8.376
    1HEX    H1O 5227   8.534   0.487   8.640
    1HEX    H1P 5228   8.365   0.528   8.629
    1HEX    H1Q 5229   8.632   0.677   8.500
    1HEX    H1R 5230   8.346   0.068   8.292
    1HEX    H1S 5231   8.347  17.429   8.446
    1HEX    H1T 5232   8.368  17.100   8.134
    1HEX    H1U 5233   8.268  17.158   8.003
    1HEX    H1V 5234   8.062  17.131   8.146
    1HEX    H1W 5235   8.162  17.075   8.279
    1HEX    H1X 5236   8.134  16.943   7.975
    1HEX    H1Y 5237   8.573  17.209   8.350
    1HEX    H1Z 5238   8.517  17.264   8.498
    1HEX    H20 5239   8.795   0.019   8.535
    1HEX    H21 5240   8.892  17.324   8.555
    1HEX    H22 5241   8.735  17.126   8.701
    1HEX    H23 5242   8.747  17.182   8.864
    1HEX    H24 5243   9.156  17.086   8.757
    1HEX    H25 5244   9.186  17.079   8.929
    1HEX    H26 5245   9.181  17.345   8.773
    1HEX    H27 5246   9.327  17.251   8.797
    1HEX    H28 5247   9.140  17.420   9.003
    1HEX    H29 5248   8.823   0.107   8.756
    1HEX    H2A 5249   8.948  17.426   8.768
    1HEX    H2B 5250   8.850  17.373   9.173
    1HEX    H2C 5251   8.774   0.091   9.172
    1HEX    H2D 5252   9.006   0.193   9.228
    1HEX    H2E 5253   9.065   0.029   9.248
    1HEX    H2F 5254   8.812   0.179   9.403
    1HEX    H2G 5255   8.534  17.328   8.685
    1HEX    H2H 5256   8.588   0.046   8.729
    1HEX    H2I 5257   8.537  17.261   9.128
    1HEX    H2J 5258   8.391  17.173   9.088
    1HEX    H2K 5259   8.280  17.393   9.021
    1HEX    H2M 5260   8.426   0.039   9.066
    1HEX    H2N 5261   8.226  17.293   9.255
    1STR    S00 5262   9.181  17.295   8.046
    1STR    S0E 5263   8.505   0.701   8.535
    1STR    S0M 5264   8.150  16.910   8.104
    1STR    S0X 5265   9.254  17.350   9.002
    1STR    S14 5266   8.908   0.089   9.423
    1STR    S1B 5267   8.310  17.397   9.260
    1HEX    C01 5268   8.902  17.293  12.407
    1HEX    C02 5269   8.842  17.310  12.548
    1HEX    C03 5270   8.694  17.273  12.560
    1HEX    O04 5271   8.652  17.164  12.522
    1HEX    O05 5272   8.623  17.367  12.624
    1HEX    C06 5273   8.508  17.335  12.705
    1HEX    C07 5274   8.546  17.362  12.856
    1HEX    C08 5275   8.581   0.077  12.853
    1HEX    O09 5276   8.481   0.169  12.809
    1HEX    C0A 5277   8.444   0.267  12.893
    1HEX    O0B 5278   8.423   0.250  13.013
    1HEX    C0C 5279   8.441   0.406  12.829
    1HEX    C0D 5280   8.455   0.517  12.935
    1HEX    C0F 5281   8.432  17.321  12.963
    1HEX    O0G 5282   8.479  17.252  13.085
    1HEX    C0H 5283   8.404  17.227  13.202
    1HEX    O0I 5284   8.287  17.260  13.214
    1HEX    C0J 5285   8.476  17.142  13.315
    1HEX    C0K 5286   8.525  17.202  13.458
    1HEX    C0N 5287   8.671  17.271  12.885
    1HEX    O0O 5288   8.801  17.325  12.865
    1HEX    C0P 5289   8.860  17.418  12.958
    1HEX    C0Q 5290   8.844  17.404  13.113
    1HEX    C0R 5291   8.889  17.265  13.163
    1HEX    O0S 5292   9.028  17.242  13.151
    1HEX    C0T 5293   9.086  17.159  13.239
    1HEX    O0U 5294   9.028  17.099  13.329
    1HEX    C0V 5295   9.234  17.141  13.214
    1HEX    C0W 5296   9.311  17.275  13.215
    1HEX    C0Y 5297   8.936   0.071  13.175
    1HEX    O0Z 5298   8.921   0.062  13.315
    1HEX    C10 5299   9.016   0.098  13.399
    1HEX    O11 5300   9.129   0.137  13.369
    1HEX    C12 5301   8.966   0.085  13.541
    1HEX    C13 5302   9.045   0.168  13.642
    1HEX    C15 5303   8.697  17.421  13.166
    1HEX    O16 5304   8.658   0.088  13.252
    1HEX    C17 5305   8.634   0.059  13.381
    1HEX    O18 5306   8.695  17.414  13.446
    1HEX    C19 5307   8.516   0.133  13.443
    1HEX    C1A 5308   8.388   0.116  13.360
    1HEX    H1C 5309   9.113  17.288  12.292
    1HEX    H1D 5310   8.878  17.195  12.365
    1HEX    H1E 5311   8.863  17.369  12.338
    1HEX    H1F 5312   8.858  17.411  12.584
    1HEX    H1G 5313   8.895  17.244  12.617
    1HEX    H1H 5314   8.475  17.232  12.687
    1HEX    H1I 5315   8.426  17.399  12.672
    1HEX    H1J 5316   8.662   0.093  12.783
    1HEX    H1K 5317   8.623   0.118  12.944
    1HEX    H1M 5318   8.350   0.419  12.770
    1HEX    H1N 5319   8.525   0.411  12.759
    1HEX    H1O 5320   8.532   0.491  13.009
    1HEX    H1P 5321   8.362   0.528  12.990
    1HEX    H1Q 5322   8.631   0.655  12.849
    1HEX    H1R 5323   8.360  17.254  12.914
    1HEX    H1S 5324   8.373  17.409  12.989
    1HEX    H1T 5325   8.562  17.098  13.265
    1HEX    H1U 5326   8.409  17.058  13.333
    1HEX    H1V 5327   8.419  17.230  13.466
    1HEX    H1W 5328   8.573  17.107  13.480
    1HEX    H1Y 5329   8.665  17.184  12.820
    1HEX    H1Z 5330   8.671  17.224  12.982
    1HEX    H20 5331   8.837   0.080  12.927
    1HEX    H21 5332   8.966  17.410  12.936
    1HEX    H22 5333   8.838  17.183  13.112
    1HEX    H23 5334   8.861  17.256  13.268
    1HEX    H24 5335   9.243  17.093  13.117
    1HEX    H25 5336   9.274  17.072  13.288
    1HEX    H26 5337   9.259  17.351  13.158
    1HEX    H27 5338   9.409  17.261  13.168
    1HEX    H28 5339   9.235  17.421  13.386
    1HEX    H29 5340   8.908   0.172  13.143
    1HEX    H2A 5341   9.040   0.055  13.146
    1HEX    H2B 5342   8.960  17.420  13.568
    1HEX    H2C 5343   8.864   0.122  13.540
    1HEX    H2D 5344   9.071   0.265  13.599
    1HEX    H2E 5345   9.138   0.118  13.667
    1HEX    H2F 5346   8.837   0.248  13.727
    1HEX    H2G 5347   8.665  17.328  13.213
    1HEX    H2H 5348   8.628  17.429  13.087
    1HEX    H2I 5349   8.540   0.238  13.458
    1HEX    H2J 5350   8.502   0.089  13.541
    1HEX    H2K 5351   8.393   0.027  13.298
    1HEX    H2M 5352   8.375   0.198  13.289
    1HEX    H2N 5353   8.271  17.422  13.522
    1STR    S00 5354   9.083  17.311  12.421
    1STR    S0E 5355   8.499   0.676  12.858
    1STR    S0M 5356   8.479  17.182  13.643
    1STR    S0X 5357   9.337  17.333  13.385
    1STR    S14 5358   8.942   0.193  13.789
    1STR    S1B 5359   8.243   0.102  13.468
    1HEX    C01 5360   9.000   4.205  16.749
    1HEX    C02 5361   8.938   4.208  16.889
    1HEX    C03 5362   8.786   4.209  16.879
    1HEX    O04 5363   8.724   4.110  16.842
    1HEX    O05 5364   8.733   4.328  16.913
    1HEX    C06 5365   8.592   4.344  16.919
    1HEX    C07 5366   8.542   4.342  17.065
    1HEX    C08 5367   8.591   4.470  17.135
    1HEX    O09 5368   8.525   4.591  17.099
    1HEX    C0A 5369   8.456   4.658  17.194
    1HEX    O0B 5370   8.411   4.610  17.297
    1HEX    C0C 5371   8.446   4.807  17.164
    1HEX    C0D 5372   8.459   4.890  17.294
    1HEX    C0F 5373   8.386   4.341  17.065
    1HEX    O0G 5374   8.340   4.218  17.009
    1HEX    C0H 5375   8.286   4.215  16.886
    1HEX    O0I 5376   8.253   4.312  16.818
    1HEX    C0J 5377   8.275   4.073  16.831
    1HEX    C0K 5378   8.154   4.000  16.890
    1HEX    C0N 5379   8.587   4.212  17.141
    1HEX    O0O 5380   8.724   4.195  17.184
    1HEX    C0P 5381   8.789   4.276  17.284
    1HEX    C0Q 5382   8.753   4.263  17.436
    1HEX    C0R 5383   8.786   4.119   0.043
    1HEX    O0S 5384   8.927   4.095   0.039
    1HEX    C0T 5385   8.998   4.086   0.154
    1HEX    O0U 5386   8.953   4.094   0.268
    1HEX    C0V 5387   9.147   4.063   0.129
    1HEX    C0W 5388   9.229   4.193   0.119
    1HEX    C0Y 5389   8.843   4.365   0.069
    1HEX    O0Z 5390   8.821   4.360   0.209
    1HEX    C10 5391   8.907   4.419   0.291
    1HEX    O11 5392   9.008   4.481   0.257
    1HEX    C12 5393   8.868   4.400   0.437
    1HEX    C13 5394   8.975   4.451   0.534
    1HEX    C15 5395   8.605   4.301   0.027
    1HEX    O16 5396   8.567   4.282   0.163
    1HEX    C17 5397   8.493   4.176   0.199
    1HEX    O18 5398   8.459   4.082   0.126
    1HEX    C19 5399   8.449   4.183   0.344
    1HEX    C1A 5400   8.366   4.310   0.368
    1HEX    H1C 5401   9.208   4.208  16.635
    1HEX    H1D 5402   8.971   4.114  16.697
    1HEX    H1E 5403   8.964   4.289  16.690
    1HEX    H1F 5404   8.970   4.296  16.945
    1HEX    H1G 5405   8.967   4.120  16.947
    1HEX    H1H 5406   8.543   4.269  16.858
    1HEX    H1I 5407   8.566   4.439  16.872
    1HEX    H1J 5408   8.695   4.488  17.108
    1HEX    H1K 5409   8.588   4.457  17.242
    1HEX    H1M 5410   8.353   4.829  17.112
    1HEX    H1N 5411   8.527   4.832  17.096
    1HEX    H1O 5412   8.534   4.847  17.360
    1HEX    H1P 5413   8.365   4.888  17.349
    1HEX    H1Q 5414   8.632   5.037  17.220
    1HEX    H1R 5415   8.346   4.428  17.012
    1HEX    H1S 5416   8.347   4.350  17.166
    1HEX    H1T 5417   8.368   4.020  16.854
    1HEX    H1U 5418   8.268   4.079  16.723
    1HEX    H1V 5419   8.062   4.052  16.866
    1HEX    H1W 5420   8.162   3.995  16.999
    1HEX    H1X 5421   8.134   3.864  16.695
    1HEX    H1Y 5422   8.573   4.130  17.070
    1HEX    H1Z 5423   8.517   4.184  17.218
    1HEX    H20 5424   8.796   4.380  17.255
    1HEX    H21 5425   8.892   4.244  17.275
    1HEX    H22 5426   8.735   4.046  17.421
    1HEX    H23 5427   8.747   4.103   0.144
    1HEX    H24 5428   9.156   4.006   0.037
    1HEX    H25 5429   9.186   4.000   0.209
    1HEX    H26 5430   9.181   4.265   0.053
    1HEX    H27 5431   9.327   4.172   0.077
    1HEX    H28 5432   9.140   4.341   0.283
    1HEX    H29 5433   8.824   4.467   0.036
    1HEX    H2A 5434   8.948   4.346   0.048
    1HEX    H2B 5435   8.849   4.294   0.453
    1HEX    H2C 5436   8.774   4.453   0.452
    1HEX    H2D 5437   9.006   4.553   0.508
    1HEX    H2E 5438   9.064   4.388   0.528
    1HEX    H2F 5439   8.812   4.540   0.683
    1HEX    H2G 5440   8.534   4.249  17.405
    1HEX    H2H 5441   8.588   4.407   0.009
    1HEX    H2I 5442   8.537   4.182   0.408
    1HEX    H2J 5443   8.391   4.094   0.368
    1HEX    H2K 5444   8.280   4.313   0.301
    1HEX    H2M 5445   8.426   4.399   0.346
    1HEX    H2N 5446   8.226   4.213   0.535
    1STR    S00 5447   9.180   4.214  16.766
    1STR    S0E 5448   8.505   5.061  17.255
    1STR    S0M 5449   8.150   3.831  16.824
    1STR    S0X 5450   9.254   4.270   0.282
    1STR    S14 5451   8.908   4.449   0.703
    1STR    S1B 5452   8.310   4.317   0.541
    1HEX    C01 5453   8.247   4.477   3.826
    1HEX    C02 5454   8.391   4.536   3.818
    1HEX    C03 5455   8.495   4.425   3.801
    1HEX    O04 5456   8.523   4.377   3.692
    1HEX    O05 5457   8.546   4.387   3.918
    1HEX    C06 5458   8.571   4.250   3.946
    1HEX    C07 5459   8.496   4.212   4.077
    1HEX    C08 5460   8.475   4.332   4.176
    1HEX    O09 5461   8.428   4.459   4.130
    1HEX    C0A 5462   8.443   4.564   4.214
    1HEX    O0B 5463   8.462   4.555   4.336
    1HEX    C0C 5464   8.444   4.700   4.144
    1HEX    C0D 5465   8.452   4.818   4.242
    1HEX    C0F 5466   8.354   4.158   4.044
    1HEX    O0G 5467   8.350   4.038   3.966
    1HEX    C0H 5468   8.301   4.039   3.841
    1HEX    O0I 5469   8.279   4.139   3.772
    1HEX    C0J 5470   8.269   3.900   3.787
    1HEX    C0K 5471   8.120   3.868   3.807
    1HEX    C0N 5472   8.573   4.096   4.150
    1HEX    O0O 5473   8.716   4.107   4.171
    1HEX    C0P 5474   8.784   4.220   4.229
    1HEX    C0Q 5475   8.785   4.236   4.385
    1HEX    C0R 5476   8.852   4.113   4.450
    1HEX    O0S 5477   8.989   4.101   4.410
    1HEX    C0T 5478   9.090   4.121   4.499
    1HEX    O0U 5479   9.078   4.149   4.618
    1HEX    C0V 5480   9.228   4.102   4.436
    1HEX    C0W 5481   9.325   4.220   4.460
    1HEX    C0Y 5482   8.865   4.363   4.423
    1HEX    O0Z 5483   8.843   4.385   4.561
    1HEX    C10 5484   8.936   4.435   4.641
    1HEX    O11 5485   9.044   4.482   4.607
    1HEX    C12 5486   8.889   4.426   4.785
    1HEX    C13 5487   8.995   4.468   4.887
    1HEX    C15 5488   8.641   4.257   4.440
    1HEX    O16 5489   8.617   4.225   4.577
    1HEX    C17 5490   8.514   4.145   4.609
    1HEX    O18 5491   8.461   4.063   4.534
    1HEX    C19 5492   8.459   4.172   4.747
    1HEX    C1A 5493   8.374   4.300   4.743
    1HEX    H1D 5494   8.255   4.371   3.845
    1HEX    H1E 5495   8.200   4.483   3.728
    1HEX    H1F 5496   8.417   4.588   3.909
    1HEX    H1G 5497   8.402   4.607   3.736
    1HEX    H1H 5498   8.679   4.235   3.954
    1HEX    H1I 5499   8.540   4.187   3.864
    1HEX    H1J 5500   8.570   4.357   4.218
    1HEX    H1K 5501   8.410   4.302   4.259
    1HEX    H1M 5502   8.355   4.710   4.083
    1HEX    H1N 5503   8.531   4.700   4.078
    1HEX    H1O 5504   8.531   4.803   4.316
    1HEX    H1P 5505   8.359   4.828   4.297
    1HEX    H1Q 5506   8.618   4.958   4.140
    1HEX    H1R 5507   8.300   4.238   3.995
    1HEX    H1S 5508   8.297   4.139   4.135
    1HEX    H1T 5509   8.333   3.825   3.833
    1HEX    H1U 5510   8.293   3.902   3.681
    1HEX    H1V 5511   8.058   3.955   3.785
    1HEX    H1W 5512   8.101   3.841   3.911
    1HEX    H1X 5513   8.092   3.794   3.582
    1HEX    H1Y 5514   8.565   4.007   4.088
    1HEX    H1Z 5515   8.522   4.064   4.240
    1HEX    H20 5516   8.762   4.312   4.176
    1HEX    H21 5517   8.888   4.203   4.201
    1HEX    H22 5518   8.799   4.022   4.420
    1HEX    H23 5519   8.843   4.117   4.558
    1HEX    H24 5520   9.216   4.084   4.329
    1HEX    H25 5521   9.270   4.010   4.478
    1HEX    H26 5522   9.281   4.315   4.432
    1HEX    H27 5523   9.349   4.227   4.567
    1HEX    H29 5524   8.831   4.451   4.368
    1HEX    H2A 5525   8.972   4.352   4.400
    1HEX    H2B 5526   8.859   4.322   4.803
    1HEX    H2C 5527   8.799   4.487   4.795
    1HEX    H2D 5528   9.028   4.570   4.867
    1HEX    H2E 5529   9.083   4.404   4.878
    1HEX    H2F 5530   8.825   4.543   5.036
    1HEX    H2G 5531   8.570   4.202   4.381
    1HEX    H2H 5532   8.612   4.361   4.430
    1HEX    H2I 5533   8.541   4.182   4.818
    1HEX    H2J 5534   8.399   4.087   4.777
    1HEX    H2K 5535   8.295   4.292   4.667
    1HEX    H2M 5536   8.436   4.386   4.715
    1HEX    H2N 5537   8.215   4.226   4.904
    1STR    S00 5538   8.132   4.546   3.954
    1STR    S0E 5539   8.485   4.972   4.150
    1STR    S0M 5540   8.071   3.731   3.698
    1STR    S0X 5541   9.481   4.192   4.368
    1STR    S14 5542   8.924   4.455   5.053
    1STR    S1B 5543   8.299   4.330   4.905
    1HEX    C01 5544   9.046   4.334   7.919
    1HEX    C02 5545   9.040   4.381   8.065
    1HEX    C03 5546   8.903   4.434   8.106
    1HEX    O04 5547   8.837   4.506   8.031
    1HEX    O05 5548   8.866   4.394   8.231
    1HEX    C06 5549   8.743   4.437   8.287
    1HEX    C07 5550   8.657   4.328   8.357
    1HEX    C08 5551   8.519   4.398   8.394
    1HEX    O09 5552   8.520   4.541   8.377
    1HEX    C0A 5553   8.455   4.624   8.463
    1HEX    O0B 5554   8.395   4.590   8.564
    1HEX    C0C 5555   8.466   4.772   8.424
    1HEX    C0D 5556   8.467   4.865   8.548
    1HEX    C0F 5557   8.646   4.206   8.258
    1HEX    O0G 5558   8.757   4.115   8.277
    1HEX    C0H 5559   8.868   4.111   8.199
    1HEX    O0I 5560   8.865   4.137   8.079
    1HEX    C0J 5561   8.994   4.050   8.267
    1HEX    C0K 5562   9.092   4.139   8.356
    1HEX    C0N 5563   8.715   4.268   8.489
    1HEX    O0O 5564   8.839   4.322   8.529
    1HEX    C0P 5565   8.832   4.415   8.635
    1HEX    C0Q 5566   8.790   4.358   8.774
    1HEX    C0R 5567   8.815   4.205   8.788
    1HEX    O0S 5568   8.952   4.170   8.771
    1HEX    C0T 5569   9.021   4.114   8.873
    1HEX    O0U 5570   8.977   4.088   8.985
    1HEX    C0V 5571   9.165   4.083   8.836
    1HEX    C0W 5572   9.251   4.210   8.825
    1HEX    C0Y 5573   8.881   4.431   8.875
    1HEX    O0Z 5574   8.851   4.395   9.008
    1HEX    C10 5575   8.936   4.433   9.103
    1HEX    O11 5576   9.042   4.492   9.084
    1HEX    C12 5577   8.886   4.397   9.241
    1HEX    C13 5578   8.979   4.452   9.350
    1HEX    C15 5579   8.641   4.396   8.803
    1HEX    O16 5580   8.591   4.345   8.926
    1HEX    C17 5581   8.518   4.233   8.930
    1HEX    O18 5582   8.498   4.157   8.835
    1HEX    C19 5583   8.458   4.208   9.067
    1HEX    C1A 5584   8.359   4.320   9.101
    1HEX    H1C 5585   9.186   4.215   7.767
    1HEX    H1D 5586   8.965   4.266   7.895
    1HEX    H1E 5587   9.037   4.419   7.851
    1HEX    H1F 5588   9.115   4.456   8.086
    1HEX    H1G 5589   9.062   4.296   8.129
    1HEX    H1H 5590   8.681   4.481   8.208
    1HEX    H1I 5591   8.765   4.520   8.355
    1HEX    H1J 5592   8.490   4.378   8.497
    1HEX    H1K 5593   8.435   4.357   8.337
    1HEX    H1M 5594   8.383   4.799   8.358
    1HEX    H1N 5595   8.557   4.786   8.366
    1HEX    H1O 5596   8.537   4.829   8.623
    1HEX    H1P 5597   8.368   4.866   8.594
    1HEX    H1Q 5598   8.642   5.016   8.484
    1HEX    H1R 5599   8.637   4.239   8.154
    1HEX    H1S 5600   8.554   4.150   8.279
    1HEX    H1T 5601   9.050   3.995   8.191
    1HEX    H1U 5602   8.951   3.973   8.332
    1HEX    H1V 5603   9.109   4.080   8.447
    1HEX    H1W 5604   9.038   4.227   8.392
    1HEX    H1Y 5605   8.736   4.162   8.486
    1HEX    H1Z 5606   8.642   4.262   8.568
    1HEX    H20 5607   8.770   4.500   8.605
    1HEX    H21 5608   8.934   4.454   8.638
    1HEX    H22 5609   8.756   4.145   8.719
    1HEX    H23 5610   8.779   4.172   8.886
    1HEX    H24 5611   9.165   4.030   8.741
    1HEX    H25 5612   9.207   4.015   8.910
    1HEX    H26 5613   9.202   4.284   8.762
    1HEX    H27 5614   9.346   4.186   8.777
    1HEX    H28 5615   9.165   4.332   9.014
    1HEX    H29 5616   8.872   4.539   8.865
    1HEX    H2A 5617   8.985   4.406   8.855
    1HEX    H2B 5618   8.877   4.288   9.249
    1HEX    H2C 5619   8.786   4.439   9.251
    1HEX    H2D 5620   9.009   4.555   9.327
    1HEX    H2E 5621   9.071   4.393   9.355
    1HEX    H2F 5622   8.800   4.541   9.479
    1HEX    H2G 5623   8.572   4.369   8.725
    1HEX    H2H 5624   8.632   4.504   8.809
    1HEX    H2I 5625   8.539   4.205   9.140
    1HEX    H2J 5626   8.409   4.110   9.069
    1HEX    H2K 5627   8.273   4.318   9.033
    1HEX    H2M 5628   8.406   4.418   9.089
    1HEX    H2N 5629   8.227   4.195   9.256
    1STR    S00 5630   9.205   4.249   7.894
    1STR    S0E 5631   8.510   5.035   8.500
    1STR    S0M 5632   9.265   4.190   8.296
    1STR    S0X 5633   9.287   4.282   8.988
    1STR    S14 5634   8.893   4.450   9.510
    1STR    S1B 5635   8.302   4.304   9.273
    1HEX    C01 5636   9.000   4.205  12.389
    1HEX    C02 5637   8.938   4.208  12.529
    1HEX    C03 5638   8.786   4.209  12.519
    1HEX    O04 5639   8.724   4.110  12.482
    1HEX    O05 5640   8.734   4.328  12.553
    1HEX    C06 5641   8.592   4.344  12.559
    1HEX    C07 5642   8.542   4.342  12.705
    1HEX    C08 5643   8.591   4.470  12.775
    1HEX    O09 5644   8.525   4.591  12.739
    1HEX    C0A 5645   8.456   4.658  12.833
    1HEX    O0B 5646   8.411   4.610  12.937
    1HEX    C0C 5647   8.446   4.807  12.804
    1HEX    C0D 5648   8.459   4.890  12.934
    1HEX    C0F 5649   8.386   4.341  12.705
    1HEX    O0G 5650   8.340   4.218  12.649
    1HEX    C0H 5651   8.286   4.215  12.526
    1HEX    O0I 5652   8.253   4.312  12.459
    1HEX    C0J 5653   8.275   4.073  12.471
    1HEX    C0K 5654   8.154   4.000  12.530
    1HEX    C0N 5655   8.587   4.212  12.781
    1HEX    O0O 5656   8.724   4.195  12.824
    1HEX    C0P 5657   8.789   4.276  12.924
    1HEX    C0Q 5658   8.753   4.263  13.076
    1HEX    C0R 5659   8.786   4.119  13.123
    1HEX    O0S 5660   8.927   4.095  13.119
    1HEX    C0T 5661   8.998   4.086  13.234
    1HEX    O0U 5662   8.953   4.094  13.348
    1HEX    C0V 5663   9.147   4.063  13.209
    1HEX    C0W 5664   9.229   4.193  13.199
    1HEX    C0Y 5665   8.843   4.365  13.149
    1HEX    O0Z 5666   8.821   4.360  13.289
    1HEX    C10 5667   8.907   4.419  13.371
    1HEX    O11 5668   9.008   4.481  13.337
    1HEX    C12 5669   8.868   4.400  13.517
    1HEX    C13 5670   8.975   4.451  13.614
    1HEX    C15 5671   8.605   4.301  13.107
    1HEX    O16 5672   8.567   4.282  13.243
    1HEX    C17 5673   8.493   4.176  13.279
    1HEX    O18 5674   8.459   4.082  13.206
    1HEX    C19 5675   8.449   4.183  13.424
    1HEX    C1A 5676   8.366   4.310  13.448
    1HEX    H1C 5677   9.208   4.208  12.275
    1HEX    H1D 5678   8.971   4.114  12.337
    1HEX    H1E 5679   8.964   4.289  12.330
    1HEX    H1F 5680   8.970   4.295  12.585
    1HEX    H1G 5681   8.967   4.120  12.587
    1HEX    H1H 5682   8.543   4.269  12.498
    1HEX    H1I 5683   8.566   4.439  12.512
    1HEX    H1J 5684   8.695   4.488  12.748
    1HEX    H1K 5685   8.588   4.457  12.882
    1HEX    H1M 5686   8.353   4.829  12.752
    1HEX    H1N 5687   8.527   4.832  12.736
    1HEX    H1O 5688   8.535   4.847  13.000
    1HEX    H1P 5689   8.365   4.888  12.989
    1HEX    H1Q 5690   8.632   5.037  12.860
    1HEX    H1R 5691   8.346   4.428  12.652
    1HEX    H1S 5692   8.348   4.350  12.806
    1HEX    H1T 5693   8.368   4.020  12.494
    1HEX    H1U 5694   8.268   4.079  12.363
    1HEX    H1V 5695   8.062   4.052  12.506
    1HEX    H1W 5696   8.162   3.995  12.639
    1HEX    H1X 5697   8.134   3.864  12.335
    1HEX    H1Y 5698   8.573   4.130  12.710
    1HEX    H1Z 5699   8.517   4.184  12.858
    1HEX    H20 5700   8.796   4.380  12.895
    1HEX    H21 5701   8.892   4.244  12.915
    1HEX    H22 5702   8.735   4.046  13.061
    1HEX    H23 5703   8.747   4.103  13.224
    1HEX    H24 5704   9.156   4.006  13.117
    1HEX    H25 5705   9.186   4.000  13.289
    1HEX    H26 5706   9.181   4.265  13.133
    1HEX    H27 5707   9.327   4.172  13.157
    1HEX    H28 5708   9.139   4.341  13.363
    1HEX    H29 5709   8.824   4.467  13.116
    1HEX    H2A 5710   8.948   4.346  13.128
    1HEX    H2B 5711   8.849   4.294  13.533
    1HEX    H2C 5712   8.774   4.452  13.532
    1HEX    H2D 5713   9.006   4.553  13.588
    1HEX    H2E 5714   9.064   4.389  13.608
    1HEX    H2F 5715   8.812   4.540  13.763
    1HEX    H2G 5716   8.534   4.248  13.045
    1HEX    H2H 5717   8.588   4.407  13.089
    1HEX    H2I 5718   8.537   4.182  13.488
    1HEX    H2J 5719   8.391   4.094  13.448
    1HEX    H2K 5720   8.280   4.313  13.381
    1HEX    H2M 5721   8.426   4.399  13.426
    1HEX    H2N 5722   8.226   4.213  13.615
    1STR    S00 5723   9.180   4.214  12.406
    1STR    S0E 5724   8.505   5.061  12.895
    1STR    S0M 5725   8.150   3.831  12.464
    1STR    S0X 5726   9.254   4.271  13.362
    1STR    S14 5727   8.908   4.449  13.783
    1STR    S1B 5728   8.310   4.317  13.620
    1HEX    C01 5729   9.000   8.566  16.749
    1HEX    C02 5730   8.938   8.569  16.889
    1HEX    C03 5731   8.786   8.570  16.879
    1HEX    O04 5732   8.724   8.471  16.842
    1HEX    O05 5733   8.733   8.689  16.913
    1HEX    C06 5734   8.592   8.705  16.919
    1HEX    C07 5735   8.542   8.702  17.065
    1HEX    C08 5736   8.591   8.831  17.135
    1HEX    O09 5737   8.524   8.951  17.100
    1HEX    C0A 5738   8.456   9.019  17.194
    1HEX    O0B 5739   8.411   8.970  17.297
    1HEX    C0C 5740   8.446   9.168  17.164
    1HEX    C0D 5741   8.459   9.250  17.294
    1HEX    C0F 5742   8.386   8.701  17.065
    1HEX    O0G 5743   8.340   8.578  17.009
    1HEX    C0H 5744   8.286   8.575  16.886
    1HEX    O0I 5745   8.253   8.672  16.819
    1HEX    C0J 5746   8.275   8.433  16.831
    1HEX    C0K 5747   8.154   8.360  16.890
    1HEX    C0N 5748   8.587   8.572  17.141
    1HEX    O0O 5749   8.724   8.555  17.184
    1HEX    C0P 5750   8.789   8.636  17.284
    1HEX    C0Q 5751   8.753   8.623  17.436
    1HEX    C0R 5752   8.786   8.479   0.043
    1HEX    O0S 5753   8.927   8.455   0.039
    1HEX    C0T 5754   8.998   8.446   0.154
    1HEX    O0U 5755   8.953   8.454   0.268
    1HEX    C0V 5756   9.147   8.423   0.129
    1HEX    C0W 5757   9.229   8.553   0.119
    1HEX    C0Y 5758   8.843   8.725   0.070
    1HEX    O0Z 5759   8.821   8.720   0.209
    1HEX    C10 5760   8.907   8.778   0.291
    1HEX    O11 5761   9.008   8.841   0.257
    1HEX    C12 5762   8.868   8.760   0.437
    1HEX    C13 5763   8.975   8.811   0.534
    1HEX    C15 5764   8.605   8.661   0.027
    1HEX    O16 5765   8.567   8.642   0.163
    1HEX    C17 5766   8.493   8.536   0.199
    1HEX    O18 5767   8.459   8.443   0.126
    1HEX    C19 5768   8.448   8.543   0.344
    1HEX    C1A 5769   8.366   8.670   0.368
    1HEX    H1C 5770   9.208   8.569  16.635
    1HEX    H1D 5771   8.971   8.474  16.697
    1HEX    H1E 5772   8.964   8.650  16.690
    1HEX    H1F 5773   8.970   8.656  16.945
    1HEX    H1G 5774   8.967   8.481  16.947
    1HEX    H1H 5775   8.543   8.629  16.858
    1HEX    H1I 5776   8.566   8.800  16.872
    1HEX    H1J 5777   8.695   8.848  17.108
    1HEX    H1K 5778   8.588   8.817  17.242
    1HEX    H1M 5779   8.353   9.189  17.112
    1HEX    H1N 5780   8.527   9.193  17.096
    1HEX    H1O 5781   8.534   9.208  17.360
    1HEX    H1P 5782   8.365   9.249  17.349
    1HEX    H1Q 5783   8.632   9.397  17.220
    1HEX    H1R 5784   8.346   8.788  17.012
    1HEX    H1S 5785   8.347   8.710  17.166
    1HEX    H1T 5786   8.368   8.380  16.854
    1HEX    H1U 5787   8.268   8.439  16.723
    1HEX    H1V 5788   8.062   8.412  16.866
    1HEX    H1W 5789   8.162   8.355  16.999
    1HEX    H1X 5790   8.134   8.224  16.695
    1HEX    H1Y 5791   8.573   8.490  17.070
    1HEX    H1Z 5792   8.517   8.544  17.218
    1HEX    H20 5793   8.795   8.740  17.255
    1HEX    H21 5794   8.893   8.604  17.275
    1HEX    H22 5795   8.735   8.406  17.421
    1HEX    H23 5796   8.747   8.462   0.144
    1HEX    H24 5797   9.156   8.366   0.037
    1HEX    H25 5798   9.186   8.359   0.209
    1HEX    H26 5799   9.181   8.625   0.053
    1HEX    H27 5800   9.327   8.531   0.077
    1HEX    H28 5801   9.139   8.700   0.283
    1HEX    H29 5802   8.824   8.827   0.036
    1HEX    H2A 5803   8.948   8.706   0.048
    1HEX    H2B 5804   8.849   8.654   0.453
    1HEX    H2C 5805   8.774   8.812   0.452
    1HEX    H2D 5806   9.007   8.912   0.508
    1HEX    H2E 5807   9.064   8.748   0.528
    1HEX    H2F 5808   8.812   8.900   0.683
    1HEX    H2G 5809   8.534   8.609  17.405
    1HEX    H2H 5810   8.588   8.767   0.009
    1HEX    H2I 5811   8.537   8.542   0.408
    1HEX    H2J 5812   8.391   8.454   0.368
    1HEX    H2K 5813   8.280   8.673   0.301
    1HEX    H2M 5814   8.426   8.759   0.346
    1HEX    H2N 5815   8.226   8.573   0.535
    1STR    S00 5816   9.180   8.575  16.766
    1STR    S0E 5817   8.505   9.421  17.254
    1STR    S0M 5818   8.150   8.191  16.823
    1STR    S0X 5819   9.254   8.630   0.282
    1STR    S14 5820   8.908   8.809   0.703
    1STR    S1B 5821   8.310   8.677   0.540
    1HEX    C01 5822   8.232   8.985   3.824
    1HEX    C02 5823   8.385   8.963   3.842
    1HEX    C03 5824   8.436   8.823   3.815
    1HEX    O04 5825   8.422   8.767   3.706
    1HEX    O05 5826   8.501   8.775   3.921
    1HEX    C06 5827   8.502   8.637   3.949
    1HEX    C07 5828   8.447   8.611   4.093
    1HEX    C08 5829   8.454   8.734   4.190
    1HEX    O09 5830   8.419   8.866   4.149
    1HEX    C0A 5831   8.450   8.967   4.234
    1HEX    O0B 5832   8.481   8.953   4.352
    1HEX    C0C 5833   8.454   9.105   4.168
    1HEX    C0D 5834   8.463   9.220   4.269
    1HEX    C0F 5835   8.297   8.571   4.086
    1HEX    O0G 5836   8.283   8.462   3.995
    1HEX    C0H 5837   8.185   8.463   3.904
    1HEX    O0I 5838   8.085   8.534   3.905
    1HEX    C0J 5839   8.210   8.363   3.792
    1HEX    C0K 5840   8.107   8.250   3.795
    1HEX    C0N 5841   8.526   8.489   4.153
    1HEX    O0O 5842   8.671   8.492   4.158
    1HEX    C0P 5843   8.752   8.588   4.229
    1HEX    C0Q 5844   8.751   8.592   4.385
    1HEX    C0R 5845   8.794   8.453   4.439
    1HEX    O0S 5846   8.935   8.432   4.423
    1HEX    C0T 5847   9.017   8.436   4.531
    1HEX    O0U 5848   8.982   8.452   4.648
    1HEX    C0V 5849   9.163   8.418   4.495
    1HEX    C0W 5850   9.241   8.550   4.481
    1HEX    C0Y 5851   8.850   8.701   4.432
    1HEX    O0Z 5852   8.837   8.711   4.573
    1HEX    C10 5853   8.926   8.775   4.647
    1HEX    O11 5854   9.028   8.831   4.606
    1HEX    C12 5855   8.886   8.770   4.793
    1HEX    C13 5856   8.995   8.821   4.888
    1HEX    C15 5857   8.612   8.633   4.443
    1HEX    O16 5858   8.588   8.606   4.580
    1HEX    C17 5859   8.498   8.513   4.614
    1HEX    O18 5860   8.455   8.424   4.541
    1HEX    C19 5861   8.444   8.535   4.754
    1HEX    C1A 5862   8.360   8.663   4.755
    1HEX    H1D 5863   8.212   8.978   3.718
    1HEX    H1E 5864   8.209   9.088   3.854
    1HEX    H1F 5865   8.416   8.988   3.942
    1HEX    H1G 5866   8.441   9.031   3.777
    1HEX    H1H 5867   8.602   8.598   3.935
    1HEX    H1I 5868   8.442   8.585   3.874
    1HEX    H1J 5869   8.556   8.747   4.220
    1HEX    H1K 5870   8.395   8.714   4.280
    1HEX    H1M 5871   8.365   9.118   4.107
    1HEX    H1N 5872   8.540   9.106   4.102
    1HEX    H1O 5873   8.541   9.203   4.343
    1HEX    H1P 5874   8.369   9.228   4.324
    1HEX    H1Q 5875   8.624   9.352   4.153
    1HEX    H1R 5876   8.237   8.657   4.055
    1HEX    H1S 5877   8.259   8.541   4.183
    1HEX    H1T 5878   8.311   8.323   3.803
    1HEX    H1U 5879   8.208   8.417   3.697
    1HEX    H1V 5880   8.008   8.289   3.770
    1HEX    H1W 5881   8.100   8.208   3.895
    1HEX    H1X 5882   8.147   8.195   3.566
    1HEX    H1Y 5883   8.507   8.404   4.088
    1HEX    H1Z 5884   8.484   8.454   4.247
    1HEX    H20 5885   8.745   8.687   4.183
    1HEX    H21 5886   8.854   8.560   4.201
    1HEX    H22 5887   8.740   8.374   4.388
    1HEX    H23 5888   8.766   8.443   4.544
    1HEX    H24 5889   9.167   8.362   4.401
    1HEX    H25 5890   9.210   8.354   4.570
    1HEX    H26 5891   9.187   8.622   4.419
    1HEX    H27 5892   9.337   8.531   4.431
    1HEX    H28 5893   9.162   8.694   4.651
    1HEX    H29 5894   8.828   8.799   4.388
    1HEX    H2A 5895   8.953   8.678   4.404
    1HEX    H2B 5896   8.861   8.667   4.816
    1HEX    H2C 5897   8.794   8.828   4.803
    1HEX    H2D 5898   9.027   8.921   4.860
    1HEX    H2E 5899   9.083   8.756   4.883
    1HEX    H2F 5900   8.828   8.908   5.035
    1HEX    H2G 5901   8.532   8.590   4.387
    1HEX    H2H 5902   8.600   8.741   4.434
    1HEX    H2I 5903   8.527   8.541   4.824
    1HEX    H2J 5904   8.384   8.448   4.781
    1HEX    H2K 5905   8.281   8.659   4.679
    1HEX    H2M 5906   8.422   8.749   4.731
    1HEX    H2N 5907   8.202   8.582   4.914
    1STR    S00 5908   8.109   8.876   3.909
    1STR    S0E 5909   8.495   9.375   4.180
    1STR    S0M 5910   8.156   8.121   3.678
    1STR    S0X 5911   9.277   8.626   4.642
    1STR    S14 5912   8.928   8.822   5.057
    1STR    S1B 5913   8.285   8.687   4.919
    1HEX    C01 5914   9.000   8.566   8.029
    1HEX    C02 5915   8.938   8.569   8.169
    1HEX    C03 5916   8.786   8.570   8.159
    1HEX    O04 5917   8.724   8.471   8.122
    1HEX    O05 5918   8.733   8.689   8.193
    1HEX    C06 5919   8.592   8.705   8.199
    1HEX    C07 5920   8.542   8.702   8.345
    1HEX    C08 5921   8.591   8.831   8.415
    1HEX    O09 5922   8.524   8.951   8.380
    1HEX    C0A 5923   8.456   9.019   8.474
    1HEX    O0B 5924   8.411   8.970   8.578
    1HEX    C0C 5925   8.446   9.168   8.444
    1HEX    C0D 5926   8.459   9.250   8.573
    1HEX    C0F 5927   8.386   8.701   8.345
    1HEX    O0G 5928   8.340   8.578   8.289
    1HEX    C0H 5929   8.286   8.575   8.166
    1HEX    O0I 5930   8.253   8.672   8.099
    1HEX    C0J 5931   8.275   8.433   8.111
    1HEX    C0K 5932   8.154   8.360   8.170
    1HEX    C0N 5933   8.587   8.572   8.421
    1HEX    O0O 5934   8.724   8.555   8.464
    1HEX    C0P 5935   8.789   8.636   8.564
    1HEX    C0Q 5936   8.753   8.623   8.716
    1HEX    C0R 5937   8.786   8.479   8.763
    1HEX    O0S 5938   8.927   8.455   8.759
    1HEX    C0T 5939   8.998   8.446   8.874
    1HEX    O0U 5940   8.953   8.454   8.988
    1HEX    C0V 5941   9.147   8.423   8.849
    1HEX    C0W 5942   9.229   8.553   8.839
    1HEX    C0Y 5943   8.843   8.725   8.789
    1HEX    O0Z 5944   8.821   8.720   8.929
    1HEX    C10 5945   8.907   8.778   9.011
    1HEX    O11 5946   9.008   8.841   8.977
    1HEX    C12 5947   8.868   8.760   9.157
    1HEX    C13 5948   8.975   8.811   9.254
    1HEX    C15 5949   8.605   8.661   8.747
    1HEX    O16 5950   8.567   8.642   8.883
    1HEX    C17 5951   8.493   8.536   8.919
    1HEX    O18 5952   8.459   8.443   8.846
    1HEX    C19 5953   8.448   8.543   9.064
    1HEX    C1A 5954   8.366   8.670   9.088
    1HEX    H1C 5955   9.208   8.569   7.915
    1HEX    H1D 5956   8.971   8.474   7.977
    1HEX    H1E 5957   8.964   8.650   7.970
    1HEX    H1F 5958   8.970   8.656   8.225
    1HEX    H1G 5959   8.967   8.481   8.227
    1HEX    H1H 5960   8.543   8.629   8.138
    1HEX    H1I 5961   8.566   8.800   8.152
    1HEX    H1J 5962   8.695   8.848   8.388
    1HEX    H1K 5963   8.588   8.817   8.522
    1HEX    H1M 5964   8.353   9.189   8.392
    1HEX    H1N 5965   8.527   9.193   8.376
    1HEX    H1O 5966   8.534   9.208   8.640
    1HEX    H1P 5967   8.365   9.249   8.629
    1HEX    H1Q 5968   8.632   9.397   8.500
    1HEX    H1R 5969   8.346   8.788   8.292
    1HEX    H1S 5970   8.347   8.710   8.446
    1HEX    H1T 5971   8.368   8.380   8.134
    1HEX    H1U 5972   8.268   8.439   8.003
    1HEX    H1V 5973   8.062   8.412   8.146
    1HEX    H1W 5974   8.162   8.355   8.279
    1HEX    H1X 5975   8.134   8.224   7.975
    1HEX    H1Y 5976   8.573   8.490   8.350
    1HEX    H1Z 5977   8.517   8.544   8.498
    1HEX    H20 5978   8.795   8.740   8.535
    1HEX    H21 5979   8.893   8.604   8.555
    1HEX    H22 5980   8.735   8.406   8.701
    1HEX    H23 5981   8.747   8.463   8.864
    1HEX    H24 5982   9.156   8.366   8.757
    1HEX    H25 5983   9.186   8.359   8.929
    1HEX    H26 5984   9.181   8.625   8.773
    1HEX    H27 5985   9.327   8.531   8.797
    1HEX    H28 5986   9.140   8.700   9.003
    1HEX    H29 5987   8.824   8.827   8.756
    1HEX    H2A 5988   8.948   8.706   8.768
    1HEX    H2B 5989   8.849   8.654   9.173
    1HEX    H2C 5990   8.774   8.812   9.172
    1HEX    H2D 5991   9.007   8.912   9.228
    1HEX    H2E 5992   9.064   8.748   9.248
    1HEX    H2F 5993   8.812   8.900   9.403
    1HEX    H2G 5994   8.534   8.609   8.685
    1HEX    H2H 5995   8.588   8.767   8.729
    1HEX    H2I 5996   8.537   8.542   9.128
    1HEX    H2J 5997   8.391   8.454   9.088
    1HEX    H2K 5998   8.279   8.673   9.021
    1HEX    H2M 5999   8.426   8.759   9.066
    1HEX    H2N 6000   8.226   8.573   9.255
    1STR    S00 6001   9.181   8.575   8.046
    1STR    S0E 6002   8.505   9.421   8.534
    1STR    S0M 6003   8.150   8.191   8.104
    1STR    S0X 6004   9.254   8.630   9.002
    1STR    S14 6005   8.908   8.809   9.423
    1STR    S1B 6006   8.310   8.677   9.260
    1HEX    C01 6007   9.000   8.566  12.389
    1HEX    C02 6008   8.938   8.569  12.529
    1HEX    C03 6009   8.786   8.570  12.519
    1HEX    O04 6010   8.724   8.471  12.482
    1HEX    O05 6011   8.733   8.689  12.553
    1HEX    C06 6012   8.592   8.705  12.559
    1HEX    C07 6013   8.542   8.702  12.705
    1HEX    C08 6014   8.591   8.831  12.775
    1HEX    O09 6015   8.524   8.951  12.740
    1HEX    C0A 6016   8.456   9.019  12.834
    1HEX    O0B 6017   8.411   8.970  12.938
    1HEX    C0C 6018   8.446   9.168  12.804
    1HEX    C0D 6019   8.459   9.250  12.934
    1HEX    C0F 6020   8.386   8.701  12.705
    1HEX    O0G 6021   8.340   8.578  12.649
    1HEX    C0H 6022   8.286   8.575  12.526
    1HEX    O0I 6023   8.253   8.672  12.459
    1HEX    C0J 6024   8.275   8.433  12.471
    1HEX    C0K 6025   8.154   8.360  12.530
    1HEX    C0N 6026   8.587   8.572  12.781
    1HEX    O0O 6027   8.724   8.555  12.824
    1HEX    C0P 6028   8.789   8.636  12.924
    1HEX    C0Q 6029   8.753   8.623  13.076
    1HEX    C0R 6030   8.786   8.479  13.123
    1HEX    O0S 6031   8.927   8.455  13.119
    1HEX    C0T 6032   8.998   8.446  13.234
    1HEX    O0U 6033   8.953   8.454  13.348
    1HEX    C0V 6034   9.147   8.423  13.209
    1HEX    C0W 6035   9.229   8.553  13.199
    1HEX    C0Y 6036   8.843   8.725  13.150
    1HEX    O0Z 6037   8.821   8.720  13.289
    1HEX    C10 6038   8.907   8.778  13.371
    1HEX    O11 6039   9.008   8.841  13.337
    1HEX    C12 6040   8.868   8.760  13.517
    1HEX    C13 6041   8.975   8.811  13.614
    1HEX    C15 6042   8.605   8.661  13.107
    1HEX    O16 6043   8.567   8.642  13.243
    1HEX    C17 6044   8.493   8.536  13.279
    1HEX    O18 6045   8.459   8.442  13.206
    1HEX    C19 6046   8.448   8.543  13.424
    1HEX    C1A 6047   8.366   8.670  13.448
    1HEX    H1C 6048   9.208   8.569  12.275
    1HEX    H1D 6049   8.971   8.474  12.337
    1HEX    H1E 6050   8.964   8.650  12.330
    1HEX    H1F 6051   8.970   8.656  12.585
    1HEX    H1G 6052   8.967   8.481  12.587
    1HEX    H1H 6053   8.543   8.629  12.498
    1HEX    H1I 6054   8.566   8.800  12.512
    1HEX    H1J 6055   8.695   8.848  12.748
    1HEX    H1K 6056   8.588   8.817  12.882
    1HEX    H1M 6057   8.353   9.189  12.752
    1HEX    H1N 6058   8.527   9.193  12.736
    1HEX    H1O 6059   8.534   9.208  13.000
    1HEX    H1P 6060   8.365   9.249  12.989
    1HEX    H1Q 6061   8.632   9.397  12.860
    1HEX    H1R 6062   8.346   8.788  12.652
    1HEX    H1S 6063   8.347   8.710  12.806
    1HEX    H1T 6064   8.368   8.380  12.494
    1HEX    H1U 6065   8.268   8.439  12.363
    1HEX    H1V 6066   8.062   8.412  12.506
    1HEX    H1W 6067   8.162   8.355  12.639
    1HEX    H1X 6068   8.134   8.224  12.335
    1HEX    H1Y 6069   8.573   8.490  12.710
    1HEX    H1Z 6070   8.517   8.544  12.858
    1HEX    H20 6071   8.795   8.740  12.895
    1HEX    H21 6072   8.893   8.604  12.915
    1HEX    H22 6073   8.735   8.406  13.061
    1HEX    H23 6074   8.747   8.463  13.224
    1HEX    H24 6075   9.156   8.366  13.117
    1HEX    H25 6076   9.186   8.359  13.289
    1HEX    H26 6077   9.181   8.625  13.133
    1HEX    H27 6078   9.327   8.531  13.157
    1HEX    H28 6079   9.139   8.700  13.363
    1HEX    H29 6080   8.824   8.827  13.116
    1HEX    H2A 6081   8.948   8.706  13.128
    1HEX    H2B 6082   8.849   8.654  13.533
    1HEX    H2C 6083   8.774   8.812  13.532
    1HEX    H2D 6084   9.007   8.912  13.588
    1HEX    H2E 6085   9.064   8.748  13.608
    1HEX    H2F 6086   8.812   8.900  13.763
    1HEX    H2G 6087   8.534   8.609  13.045
    1HEX    H2H 6088   8.588   8.767  13.089
    1HEX    H2I 6089   8.537   8.542  13.488
    1HEX    H2J 6090   8.391   8.454  13.448
    1HEX    H2K 6091   8.280   8.673  13.381
    1HEX    H2M 6092   8.426   8.759  13.426
    1HEX    H2N 6093   8.226   8.573  13.615
    1STR    S00 6094   9.180   8.575  12.406
    1STR    S0E 6095   8.505   9.421  12.894
    1STR    S0M 6096   8.150   8.191  12.464
    1STR    S0X 6097   9.254   8.630  13.362
    1STR    S14 6098   8.908   8.809  13.783
    1STR    S1B 6099   8.310   8.677  13.620
    1HEX    C01 6100   9.000  12.926  16.749
    1HEX    C02 6101   8.938  12.929  16.889
    1HEX    C03 6102   8.786  12.930  16.879
    1HEX    O04 6103   8.724  12.831  16.842
    1HEX    O05 6104   8.733  13.049  16.913
    1HEX    C06 6105   8.592  13.065  16.919
    1HEX    C07 6106   8.542  13.062  17.065
    1HEX    C08 6107   8.591  13.191  17.135
    1HEX    O09 6108   8.524  13.311  17.099
    1HEX    C0A 6109   8.456  13.379  17.194
    1HEX    O0B 6110   8.411  13.330  17.297
    1HEX    C0C 6111   8.446  13.528  17.164
    1HEX    C0D 6112   8.459  13.610  17.294
    1HEX    C0F 6113   8.386  13.061  17.065
    1HEX    O0G 6114   8.340  12.938  17.009
    1HEX    C0H 6115   8.286  12.935  16.886
    1HEX    O0I 6116   8.253  13.032  16.819
    1HEX    C0J 6117   8.275  12.793  16.831
    1HEX    C0K 6118   8.154  12.720  16.890
    1HEX    C0N 6119   8.587  12.932  17.141
    1HEX    O0O 6120   8.724  12.915  17.184
    1HEX    C0P 6121   8.789  12.996  17.284
    1HEX    C0Q 6122   8.753  12.983  17.436
    1HEX    C0R 6123   8.786  12.839   0.043
    1HEX    O0S 6124   8.927  12.815   0.039
    1HEX    C0T 6125   8.998  12.806   0.154
    1HEX    O0U 6126   8.953  12.814   0.268
    1HEX    C0V 6127   9.147  12.783   0.129
    1HEX    C0W 6128   9.229  12.913   0.119
    1HEX    C0Y 6129   8.843  13.085   0.069
    1HEX    O0Z 6130   8.821  13.080   0.209
    1HEX    C10 6131   8.907  13.139   0.291
    1HEX    O11 6132   9.008  13.201   0.257
    1HEX    C12 6133   8.868  13.120   0.437
    1HEX    C13 6134   8.975  13.171   0.534
    1HEX    C15 6135   8.605  13.021   0.027
    1HEX    O16 6136   8.567  13.002   0.163
    1HEX    C17 6137   8.493  12.896   0.199
    1HEX    O18 6138   8.459  12.803   0.126
    1HEX    C19 6139   8.448  12.903   0.344
    1HEX    C1A 6140   8.366  13.031   0.368
    1HEX    H1C 6141   9.208  12.929  16.635
    1HEX    H1D 6142   8.971  12.835  16.697
    1HEX    H1E 6143   8.964  13.010  16.690
    1HEX    H1F 6144   8.970  13.016  16.945
    1HEX    H1G 6145   8.967  12.841  16.947
    1HEX    H1H 6146   8.543  12.989  16.858
    1HEX    H1I 6147   8.566  13.160  16.872
    1HEX    H1J 6148   8.695  13.208  17.108
    1HEX    H1K 6149   8.588  13.177  17.242
    1HEX    H1M 6150   8.353  13.549  17.112
    1HEX    H1N 6151   8.527  13.553  17.096
    1HEX    H1O 6152   8.534  13.568  17.360
    1HEX    H1P 6153   8.365  13.608  17.349
    1HEX    H1Q 6154   8.632  13.758  17.220
    1HEX    H1R 6155   8.346  13.148  17.012
    1HEX    H1S 6156   8.347  13.070  17.166
    1HEX    H1T 6157   8.368  12.740  16.854
    1HEX    H1U 6158   8.268  12.799  16.723
    1HEX    H1V 6159   8.062  12.772  16.866
    1HEX    H1W 6160   8.162  12.715  16.999
    1HEX    H1X 6161   8.134  12.584  16.695
    1HEX    H1Y 6162   8.573  12.850  17.070
    1HEX    H1Z 6163   8.517  12.904  17.218
    1HEX    H20 6164   8.795  13.100  17.255
    1HEX    H21 6165   8.893  12.964  17.275
    1HEX    H22 6166   8.735  12.766  17.421
    1HEX    H23 6167   8.747  12.823   0.144
    1HEX    H24 6168   9.156  12.726   0.037
    1HEX    H25 6169   9.186  12.720   0.209
    1HEX    H26 6170   9.181  12.985   0.053
    1HEX    H27 6171   9.327  12.892   0.077
    1HEX    H28 6172   9.139  13.061   0.283
    1HEX    H29 6173   8.824  13.188   0.036
    1HEX    H2A 6174   8.948  13.066   0.048
    1HEX    H2B 6175   8.849  13.014   0.453
    1HEX    H2C 6176   8.774  13.173   0.452
    1HEX    H2D 6177   9.006  13.273   0.508
    1HEX    H2E 6178   9.065  13.108   0.528
    1HEX    H2F 6179   8.812  13.260   0.683
    1HEX    H2G 6180   8.534  12.969  17.405
    1HEX    H2H 6181   8.588  13.127   0.009
    1HEX    H2I 6182   8.537  12.902   0.408
    1HEX    H2J 6183   8.391  12.814   0.368
    1HEX    H2K 6184   8.280  13.034   0.301
    1HEX    H2M 6185   8.426  13.119   0.346
    1HEX    H2N 6186   8.226  12.933   0.535
    1STR    S00 6187   9.181  12.935  16.766
    1STR    S0E 6188   8.505  13.781  17.254
    1STR    S0M 6189   8.150  12.551  16.824
    1STR    S0X 6190   9.254  12.991   0.282
    1STR    S14 6191   8.908  13.169   0.703
    1STR    S1B 6192   8.310  13.037   0.540
    1HEX    C01 6193   9.000  12.926   3.669
    1HEX    C02 6194   8.938  12.929   3.809
    1HEX    C03 6195   8.786  12.930   3.799
    1HEX    O04 6196   8.724  12.831   3.762
    1HEX    O05 6197   8.733  13.049   3.833
    1HEX    C06 6198   8.592  13.065   3.839
    1HEX    C07 6199   8.542  13.062   3.985
    1HEX    C08 6200   8.591  13.191   4.055
    1HEX    O09 6201   8.524  13.311   4.019
    1HEX    C0A 6202   8.456  13.379   4.114
    1HEX    O0B 6203   8.411  13.330   4.218
    1HEX    C0C 6204   8.446  13.528   4.084
    1HEX    C0D 6205   8.459  13.610   4.214
    1HEX    C0F 6206   8.386  13.061   3.985
    1HEX    O0G 6207   8.340  12.938   3.929
    1HEX    C0H 6208   8.286  12.935   3.806
    1HEX    O0I 6209   8.253  13.032   3.739
    1HEX    C0J 6210   8.275  12.793   3.751
    1HEX    C0K 6211   8.154  12.720   3.810
    1HEX    C0N 6212   8.587  12.932   4.061
    1HEX    O0O 6213   8.724  12.915   4.104
    1HEX    C0P 6214   8.789  12.996   4.204
    1HEX    C0Q 6215   8.753  12.983   4.356
    1HEX    C0R 6216   8.786  12.839   4.403
    1HEX    O0S 6217   8.927  12.815   4.399
    1HEX    C0T 6218   8.998  12.806   4.514
    1HEX    O0U 6219   8.953  12.814   4.628
    1HEX    C0V 6220   9.147  12.783   4.489
    1HEX    C0W 6221   9.229  12.913   4.479
    1HEX    C0Y 6222   8.843  13.085   4.429
    1HEX    O0Z 6223   8.821  13.080   4.569
    1HEX    C10 6224   8.907  13.139   4.651
    1HEX    O11 6225   9.008  13.201   4.617
    1HEX    C12 6226   8.868  13.120   4.797
    1HEX    C13 6227   8.975  13.171   4.894
    1HEX    C15 6228   8.605  13.021   4.387
    1HEX    O16 6229   8.567  13.002   4.523
    1HEX    C17 6230   8.493  12.896   4.559
    1HEX    O18 6231   8.459  12.803   4.486
    1HEX    C19 6232   8.448  12.903   4.704
    1HEX    C1A 6233   8.366  13.031   4.728
    1HEX    H1C 6234   9.208  12.929   3.555
    1HEX    H1D 6235   8.971  12.835   3.617
    1HEX    H1E 6236   8.964  13.010   3.610
    1HEX    H1F 6237   8.970  13.016   3.865
    1HEX    H1G 6238   8.967  12.841   3.867
    1HEX    H1H 6239   8.543  12.989   3.778
    1HEX    H1I 6240   8.566  13.160   3.792
    1HEX    H1J 6241   8.695  13.208   4.028
    1HEX    H1K 6242   8.588  13.177   4.162
    1HEX    H1M 6243   8.353  13.549   4.032
    1HEX    H1N 6244   8.527  13.553   4.016
    1HEX    H1O 6245   8.534  13.568   4.280
    1HEX    H1P 6246   8.365  13.609   4.269
    1HEX    H1Q 6247   8.632  13.758   4.140
    1HEX    H1R 6248   8.346  13.148   3.932
    1HEX    H1S 6249   8.347  13.070   4.086
    1HEX    H1T 6250   8.368  12.740   3.774
    1HEX    H1U 6251   8.268  12.799   3.643
    1HEX    H1V 6252   8.062  12.772   3.786
    1HEX    H1W 6253   8.162  12.715   3.919
    1HEX    H1X 6254   8.134  12.584   3.615
    1HEX    H1Y 6255   8.573  12.850   3.990
    1HEX    H1Z 6256   8.517  12.904   4.138
    1HEX    H20 6257   8.795  13.100   4.175
    1HEX    H21 6258   8.893  12.964   4.195
    1HEX    H22 6259   8.735  12.766   4.341
    1HEX    H23 6260   8.747  12.823   4.504
    1HEX    H24 6261   9.156  12.726   4.397
    1HEX    H25 6262   9.186  12.720   4.569
    1HEX    H26 6263   9.181  12.985   4.413
    1HEX    H27 6264   9.327  12.892   4.437
    1HEX    H28 6265   9.140  13.061   4.643
    1HEX    H29 6266   8.824  13.188   4.396
    1HEX    H2A 6267   8.948  13.066   4.408
    1HEX    H2B 6268   8.849  13.014   4.813
    1HEX    H2C 6269   8.774  13.173   4.812
    1HEX    H2D 6270   9.006  13.273   4.868
    1HEX    H2E 6271   9.065  13.108   4.888
    1HEX    H2F 6272   8.812  13.260   5.043
    1HEX    H2G 6273   8.534  12.969   4.325
    1HEX    H2H 6274   8.588  13.127   4.369
    1HEX    H2I 6275   8.537  12.902   4.768
    1HEX    H2J 6276   8.391  12.814   4.728
    1HEX    H2K 6277   8.280  13.034   4.661
    1HEX    H2M 6278   8.426  13.119   4.706
    1HEX    H2N 6279   8.226  12.933   4.895
    1STR    S00 6280   9.181  12.935   3.686
    1STR    S0E 6281   8.505  13.782   4.174
    1STR    S0M 6282   8.150  12.551   3.744
    1STR    S0X 6283   9.254  12.991   4.642
    1STR    S14 6284   8.908  13.169   5.063
    1STR    S1B 6285   8.310  13.037   4.900
    1HEX    C01 6286   8.944  13.075   9.014
    1HEX    C02 6287   8.946  13.149   8.867
    1HEX    C03 6288   8.910  13.074   8.729
    1HEX    O04 6289   8.968  12.971   8.698
    1HEX    O05 6290   8.818  13.137   8.638
    1HEX    C06 6291   8.781  13.087   8.504
    1HEX    C07 6292   8.626  13.076   8.456
    1HEX    C08 6293   8.540  13.188   8.519
    1HEX    O09 6294   8.551  13.318   8.463
    1HEX    C0A 6295   8.458  13.407   8.503
    1HEX    O0B 6296   8.362  13.383   8.575
    1HEX    C0C 6297   8.484  13.548   8.453
    1HEX    C0D 6298   8.487  13.643   8.574
    1HEX    C0F 6299   8.604  13.084   8.299
    1HEX    O0G 6300   8.550  12.965   8.235
    1HEX    C0H 6301   8.423  12.962   8.184
    1HEX    O0I 6302   8.342  13.055   8.187
    1HEX    C0J 6303   8.382  12.828   8.121
    1HEX    C0K 6304   8.244  12.779   8.171
    1HEX    C0N 6305   8.559  12.942   8.499
    1HEX    O0O 6306   8.520  12.946   8.634
    1HEX    C0P 6307   8.612  12.885   8.720
    1HEX    C0Q 6308   8.588  12.937   8.863
    1HEX    C0R 6309   8.683  12.853   8.953
    1HEX    O0S 6310   8.808  12.819   8.888
    1HEX    C0T 6311   8.897  12.739   8.950
    1HEX    O0U 6312   8.883  12.695   9.063
    1HEX    C0V 6313   9.018  12.699   8.864
    1HEX    C0W 6314   9.147  12.784   8.879
    1HEX    C0Y 6315   8.602  13.094   8.868
    1HEX    O0Z 6316   8.645  13.168   8.983
    1HEX    C10 6317   8.674  13.301   8.965
    1HEX    O11 6318   8.673  13.361   8.857
    1HEX    C12 6319   8.716  13.376   9.091
    1HEX    C13 6320   8.855  13.443   9.083
    1HEX    C15 6321   8.441  12.905   8.895
    1HEX    O16 6322   8.414  12.938   9.029
    1HEX    C17 6323   8.400  12.842   9.120
    1HEX    O18 6324   8.406  12.721   9.099
    1HEX    C19 6325   8.375  12.898   9.259
    1HEX    C1A 6326   8.316  13.040   9.254
    1HEX    H1D 6327   8.876  12.993   9.019
    1HEX    H1E 6328   9.040  13.025   9.011
    1HEX    H1F 6329   8.892  13.242   8.865
    1HEX    H1G 6330   9.049  13.180   8.850
    1HEX    H1H 6331   8.830  12.991   8.485
    1HEX    H1I 6332   8.830  13.156   8.435
    1HEX    H1J 6333   8.563  13.199   8.624
    1HEX    H1K 6334   8.435  13.158   8.515
    1HEX    H1M 6335   8.405  13.576   8.384
    1HEX    H1N 6336   8.578  13.550   8.399
    1HEX    H1O 6337   8.554  13.605   8.651
    1HEX    H1P 6338   8.388  13.649   8.619
    1HEX    H1Q 6339   8.667  13.775   8.492
    1HEX    H1R 6340   8.695  13.111   8.247
    1HEX    H1S 6341   8.536  13.166   8.275
    1HEX    H1T 6342   8.458  12.754   8.143
    1HEX    H1U 6343   8.379  12.839   8.012
    1HEX    H1V 6344   8.164  12.844   8.137
    1HEX    H1W 6345   8.241  12.780   8.280
    1HEX    H1X 6346   8.179  12.637   7.988
    1HEX    H1Y 6347   8.617  12.854   8.472
    1HEX    H1Z 6348   8.463  12.930   8.449
    1HEX    H20 6349   8.713  12.906   8.688
    1HEX    H21 6350   8.601  12.777   8.715
    1HEX    H22 6351   8.636  12.758   8.977
    1HEX    H23 6352   8.696  12.901   9.050
    1HEX    H24 6353   8.988  12.697   8.760
    1HEX    H25 6354   9.043  12.596   8.891
    1HEX    H26 6355   9.138  12.882   8.833
    1HEX    H27 6356   9.228  12.735   8.824
    1HEX    H28 6357   9.119  12.901   9.085
    1HEX    H29 6358   8.509  13.141   8.835
    1HEX    H2A 6359   8.669  13.122   8.791
    1HEX    H2B 6360   8.713  13.301   9.169
    1HEX    H2C 6361   8.640  13.451   9.114
    1HEX    H2D 6362   8.854  13.530   9.017
    1HEX    H2E 6363   8.931  13.376   9.044
    1HEX    H2F 6364   8.906  13.375   9.307
    1HEX    H2G 6365   8.416  12.802   8.871
    1HEX    H2H 6366   8.374  12.965   8.833
    1HEX    H2I 6367   8.469  12.897   9.315
    1HEX    H2J 6368   8.308  12.828   9.308
    1HEX    H2K 6369   8.250  13.052   9.168
    1HEX    H2M 6370   8.396  13.113   9.242
    1HEX    H2N 6371   8.124  12.981   9.379
    1STR    S00 6372   8.955  13.148   9.195
    1STR    S0E 6373   8.540  13.808   8.521
    1STR    S0M 6374   8.213  12.609   8.114
    1STR    S0X 6375   9.207  12.807   9.049
    1STR    S14 6376   8.908  13.496   9.249
    1STR    S1B 6377   8.219  13.072   9.404
    1HEX    C01 6378   8.961  12.980  12.313
    1HEX    C02 6379   8.928  12.947  12.462
    1HEX    C03 6380   8.779  12.938  12.492
    1HEX    O04 6381   8.716  12.834  12.471
    1HEX    O05 6382   8.728  13.053  12.538
    1HEX    C06 6383   8.588  13.068  12.553
    1HEX    C07 6384   8.542  13.064  12.702
    1HEX    C08 6385   8.593  13.192  12.771
    1HEX    O09 6386   8.526  13.313  12.737
    1HEX    C0A 6387   8.458  13.379  12.833
    1HEX    O0B 6388   8.415  13.330  12.937
    1HEX    C0C 6389   8.447  13.528  12.804
    1HEX    C0D 6390   8.459  13.610  12.933
    1HEX    C0F 6391   8.387  13.062  12.706
    1HEX    O0G 6392   8.340  12.939  12.650
    1HEX    C0H 6393   8.284  12.936  12.528
    1HEX    O0I 6394   8.247  13.034  12.463
    1HEX    C0J 6395   8.275  12.795  12.472
    1HEX    C0K 6396   8.155  12.720  12.529
    1HEX    C0N 6397   8.591  12.934  12.776
    1HEX    O0O 6398   8.727  12.918  12.820
    1HEX    C0P 6399   8.790  12.998  12.922
    1HEX    C0Q 6400   8.752  12.984  13.073
    1HEX    C0R 6401   8.786  12.840  13.121
    1HEX    O0S 6402   8.927  12.816  13.118
    1HEX    C0T 6403   8.998  12.807  13.234
    1HEX    O0U 6404   8.952  12.814  13.347
    1HEX    C0V 6405   9.146  12.783  13.210
    1HEX    C0W 6406   9.228  12.913  13.200
    1HEX    C0Y 6407   8.841  13.086  13.148
    1HEX    O0Z 6408   8.820  13.080  13.288
    1HEX    C10 6409   8.907  13.138  13.370
    1HEX    O11 6410   9.008  13.199  13.336
    1HEX    C12 6411   8.867  13.120  13.516
    1HEX    C13 6412   8.975  13.171  13.613
    1HEX    C15 6413   8.604  13.020  13.104
    1HEX    O16 6414   8.566  13.002  13.240
    1HEX    C17 6415   8.493  12.896  13.278
    1HEX    O18 6416   8.460  12.802  13.206
    1HEX    C19 6417   8.449  12.904  13.423
    1HEX    C1A 6418   8.367  13.031  13.447
    1HEX    H1D 6419   8.928  12.878  12.293
    1HEX    H1E 6420   8.911  13.074  12.332
    1HEX    H1F 6421   8.970  13.024  12.528
    1HEX    H1G 6422   8.974  12.854  12.494
    1HEX    H1H 6423   8.536  12.993  12.494
    1HEX    H1I 6424   8.559  13.163  12.508
    1HEX    H1J 6425   8.697  13.208  12.743
    1HEX    H1K 6426   8.591  13.178  12.878
    1HEX    H1M 6427   8.354  13.549  12.752
    1HEX    H1N 6428   8.528  13.554  12.735
    1HEX    H1O 6429   8.535  13.568  13.000
    1HEX    H1P 6430   8.365  13.608  12.989
    1HEX    H1Q 6431   8.631  13.759  12.859
    1HEX    H1R 6432   8.345  13.149  12.654
    1HEX    H1S 6433   8.351  13.070  12.808
    1HEX    H1T 6434   8.368  12.744  12.494
    1HEX    H1U 6435   8.267  12.802  12.363
    1HEX    H1V 6436   8.061  12.771  12.505
    1HEX    H1W 6437   8.162  12.715  12.638
    1HEX    H1X 6438   8.136  12.585  12.333
    1HEX    H1Y 6439   8.578  12.852  12.704
    1HEX    H1Z 6440   8.521  12.904  12.853
    1HEX    H20 6441   8.797  13.102  12.894
    1HEX    H21 6442   8.894  12.966  12.914
    1HEX    H22 6443   8.736  12.766  13.058
    1HEX    H23 6444   8.747  12.823  13.222
    1HEX    H24 6445   9.156  12.726  13.118
    1HEX    H25 6446   9.185  12.720  13.290
    1HEX    H26 6447   9.180  12.985  13.134
    1HEX    H27 6448   9.327  12.892  13.157
    1HEX    H28 6449   9.140  13.061  13.364
    1HEX    H29 6450   8.821  13.188  13.115
    1HEX    H2A 6451   8.947  13.068  13.127
    1HEX    H2B 6452   8.849  13.014  13.533
    1HEX    H2C 6453   8.773  13.172  13.531
    1HEX    H2D 6454   9.006  13.273  13.587
    1HEX    H2E 6455   9.064  13.109  13.607
    1HEX    H2F 6456   8.812  13.260  13.763
    1HEX    H2G 6457   8.534  12.966  13.043
    1HEX    H2H 6458   8.586  13.125  13.084
    1HEX    H2I 6459   8.538  12.903  13.486
    1HEX    H2J 6460   8.392  12.815  13.448
    1HEX    H2K 6461   8.280  13.034  13.380
    1HEX    H2M 6462   8.426  13.120  13.425
    1HEX    H2N 6463   8.227  12.934  13.614
    1STR    S00 6464   8.847  12.987  12.169
    1STR    S0E 6465   8.504  13.782  12.895
    1STR    S0M 6466   8.153  12.551  12.462
    1STR    S0X 6467   9.254  12.990  13.363
    1STR    S14 6468   8.908  13.169  13.782
    1STR    S1B 6469   8.311  13.038  13.620
    1HEX    C01 6470  13.360  17.286  16.749
    1HEX    C02 6471  13.298  17.288  16.889
    1HEX    C03 6472  13.146  17.289  16.879
    1HEX    O04 6473  13.084  17.190  16.842
    1HEX    O05 6474  13.093  17.408  16.913
    1HEX    C06 6475  12.952  17.424  16.919
    1HEX    C07 6476  12.902  17.422  17.065
    1HEX    C08 6477  12.951   0.110  17.135
    1HEX    O09 6478  12.884   0.231  17.099
    1HEX    C0A 6479  12.816   0.298  17.194
    1HEX    O0B 6480  12.771   0.250  17.297
    1HEX    C0C 6481  12.806   0.447  17.164
    1HEX    C0D 6482  12.819   0.530  17.293
    1HEX    C0F 6483  12.746  17.421  17.065
    1HEX    O0G 6484  12.700  17.298  17.009
    1HEX    C0H 6485  12.646  17.294  16.886
    1HEX    O0I 6486  12.613  17.391  16.818
    1HEX    C0J 6487  12.635  17.153  16.831
    1HEX    C0K 6488  12.514  17.079  16.890
    1HEX    C0N 6489  12.947  17.292  17.141
    1HEX    O0O 6490  13.084  17.275  17.184
    1HEX    C0P 6491  13.148  17.356  17.284
    1HEX    C0Q 6492  13.113  17.343  17.436
    1HEX    C0R 6493  13.146  17.199   0.043
    1HEX    O0S 6494  13.287  17.174   0.039
    1HEX    C0T 6495  13.358  17.166   0.154
    1HEX    O0U 6496  13.313  17.174   0.268
    1HEX    C0V 6497  13.507  17.143   0.129
    1HEX    C0W 6498  13.589  17.273   0.119
    1HEX    C0Y 6499  13.203   0.005   0.069
    1HEX    O0Z 6500  13.181  17.439   0.209
    1HEX    C10 6501  13.267   0.058   0.291
    1HEX    O11 6502  13.368   0.120   0.257
    1HEX    C12 6503  13.228   0.040   0.437
    1HEX    C13 6504  13.335   0.091   0.534
    1HEX    C15 6505  12.965  17.381   0.027
    1HEX    O16 6506  12.927  17.361   0.163
    1HEX    C17 6507  12.853  17.255   0.199
    1HEX    O18 6508  12.819  17.162   0.126
    1HEX    C19 6509  12.808  17.263   0.344
    1HEX    C1A 6510  12.726  17.390   0.368
    1HEX    H1C 6511  13.568  17.289  16.635
    1HEX    H1D 6512  13.332  17.194  16.697
    1HEX    H1E 6513  13.324  17.370  16.690
    1HEX    H1F 6514  13.330  17.376  16.945
    1HEX    H1G 6515  13.327  17.201  16.947
    1HEX    H1H 6516  12.903  17.349  16.858
    1HEX    H1I 6517  12.926   0.079  16.872
    1HEX    H1J 6518  13.055   0.127  17.108
    1HEX    H1K 6519  12.948   0.096  17.242
    1HEX    H1M 6520  12.713   0.469  17.112
    1HEX    H1N 6521  12.887   0.472  17.096
    1HEX    H1O 6522  12.895   0.487  17.360
    1HEX    H1P 6523  12.725   0.528  17.349
    1HEX    H1Q 6524  12.992   0.677  17.220
    1HEX    H1R 6525  12.706   0.068  17.012
    1HEX    H1S 6526  12.707  17.429  17.166
    1HEX    H1T 6527  12.728  17.100  16.854
    1HEX    H1U 6528  12.628  17.158  16.723
    1HEX    H1V 6529  12.422  17.131  16.866
    1HEX    H1W 6530  12.522  17.075  16.999
    1HEX    H1X 6531  12.494  16.943  16.695
    1HEX    H1Y 6532  12.933  17.209  17.070
    1HEX    H1Z 6533  12.877  17.264  17.218
    1HEX    H20 6534  13.155   0.019  17.255
    1HEX    H21 6535  13.252  17.324  17.275
    1HEX    H22 6536  13.095  17.126  17.421
    1HEX    H23 6537  13.107  17.182   0.144
    1HEX    H24 6538  13.516  17.086   0.037
    1HEX    H25 6539  13.546  17.079   0.209
    1HEX    H26 6540  13.541  17.345   0.053
    1HEX    H27 6541  13.687  17.251   0.077
    1HEX    H28 6542  13.500  17.420   0.283
    1HEX    H29 6543  13.183   0.107   0.036
    1HEX    H2A 6544  13.308  17.426   0.048
    1HEX    H2B 6545  13.210  17.373   0.453
    1HEX    H2C 6546  13.134   0.091   0.452
    1HEX    H2D 6547  13.366   0.193   0.508
    1HEX    H2E 6548  13.425   0.029   0.528
    1HEX    H2F 6549  13.172   0.179   0.683
    1HEX    H2G 6550  12.894  17.328  17.405
    1HEX    H2H 6551  12.948   0.046   0.009
    1HEX    H2I 6552  12.897  17.261   0.408
    1HEX    H2J 6553  12.751  17.173   0.368
    1HEX    H2K 6554  12.640  17.393   0.301
    1HEX    H2M 6555  12.786   0.039   0.346
    1HEX    H2N 6556  12.586  17.293   0.535
    1STR    S00 6557  13.541  17.295  16.766
    1STR    S0E 6558  12.865   0.701  17.254
    1STR    S0M 6559  12.510  16.910  16.824
    1STR    S0X 6560  13.614  17.350   0.282
    1STR    S14 6561  13.268   0.089   0.703
    1STR    S1B 6562  12.670  17.397   0.540
    1HEX    C01 6563  13.358  17.285   3.676
    1HEX    C02 6564  13.301  17.285   3.818
    1HEX    C03 6565  13.149  17.280   3.814
    1HEX    O04 6566  13.090  17.177   3.785
    1HEX    O05 6567  13.094  17.399   3.843
    1HEX    C06 6568  12.952  17.413   3.844
    1HEX    C07 6569  12.897  17.436   3.988
    1HEX    C08 6570  12.946   0.134   4.037
    1HEX    O09 6571  12.887   0.249   3.979
    1HEX    C0A 6572  12.799   0.320   4.051
    1HEX    O0B 6573  12.726   0.274   4.139
    1HEX    C0C 6574  12.804   0.469   4.022
    1HEX    C0D 6575  12.822   0.548   4.153
    1HEX    C0F 6576  12.742  17.433   3.982
    1HEX    O0G 6577  12.698  17.307   3.932
    1HEX    C0H 6578  12.643  17.297   3.809
    1HEX    O0I 6579  12.606  17.391   3.739
    1HEX    C0J 6580  12.636  17.154   3.759
    1HEX    C0K 6581  12.513  17.080   3.814
    1HEX    C0N 6582  12.941  17.323   4.086
    1HEX    O0O 6583  13.079  17.314   4.125
    1HEX    C0P 6584  13.144  17.407   4.215
    1HEX    C0Q 6585  13.110  17.403   4.367
    1HEX    C0R 6586  13.126  17.255   4.415
    1HEX    O0S 6587  13.263  17.212   4.405
    1HEX    C0T 6588  13.335  17.184   4.516
    1HEX    O0U 6589  13.293  17.186   4.631
    1HEX    C0V 6590  13.480  17.147   4.485
    1HEX    C0W 6591  13.576  17.268   4.480
    1HEX    C0Y 6592  13.218   0.047   4.440
    1HEX    O0Z 6593  13.196   0.036   4.579
    1HEX    C10 6594  13.290   0.075   4.663
    1HEX    O11 6595  13.396   0.128   4.632
    1HEX    C12 6596  13.251   0.046   4.807
    1HEX    C13 6597  13.354   0.100   4.907
    1HEX    C15 6598  12.970   0.025   4.405
    1HEX    O16 6599  12.971   0.161   4.455
    1HEX    C17 6600  12.853   0.227   4.476
    1HEX    O18 6601  12.746   0.191   4.428
    1HEX    C19 6602  12.857   0.340   4.580
    1HEX    C1A 6603  12.930   0.475   4.549
    1HEX    H1C 6604  13.562  17.291   3.554
    1HEX    H1D 6605  13.329  17.194   3.623
    1HEX    H1E 6606  13.319  17.369   3.619
    1HEX    H1F 6607  13.332  17.373   3.873
    1HEX    H1G 6608  13.336  17.198   3.874
    1HEX    H1H 6609  12.905  17.327   3.797
    1HEX    H1I 6610  12.925   0.057   3.781
    1HEX    H1J 6611  13.052   0.144   4.012
    1HEX    H1K 6612  12.938   0.141   4.146
    1HEX    H1M 6613  12.713   0.498   3.970
    1HEX    H1N 6614  12.888   0.487   3.955
    1HEX    H1O 6615  12.895   0.500   4.218
    1HEX    H1P 6616  12.728   0.550   4.209
    1HEX    H1Q 6617  13.005   0.687   4.091
    1HEX    H1R 6618  12.704   0.076   3.922
    1HEX    H1S 6619  12.699   0.009   4.081
    1HEX    H1T 6620  12.728  17.102   3.787
    1HEX    H1U 6621  12.634  17.156   3.650
    1HEX    H1V 6622  12.422  17.133   3.786
    1HEX    H1W 6623  12.517  17.077   3.923
    1HEX    H1X 6624  12.496  16.944   3.618
    1HEX    H1Y 6625  12.921  17.228   4.036
    1HEX    H1Z 6626  12.877  17.317   4.173
    1HEX    H20 6627  13.147   0.069   4.179
    1HEX    H21 6628  13.248  17.376   4.205
    1HEX    H22 6629  13.065  17.188   4.354
    1HEX    H23 6630  13.090  17.244   4.517
    1HEX    H24 6631  13.482  17.094   4.390
    1HEX    H25 6632  13.515  17.076   4.560
    1HEX    H26 6633  13.536  17.347   4.417
    1HEX    H27 6634  13.671  17.237   4.435
    1HEX    H28 6635  13.513  17.424   4.647
    1HEX    H29 6636  13.214   0.152   4.411
    1HEX    H2A 6637  13.318   0.013   4.415
    1HEX    H2B 6638  13.238  17.378   4.818
    1HEX    H2C 6639  13.153   0.091   4.823
    1HEX    H2D 6640  13.385   0.201   4.881
    1HEX    H2E 6641  13.444   0.037   4.906
    1HEX    H2F 6642  13.183   0.189   5.047
    1HEX    H2G 6643  12.924  17.405   4.483
    1HEX    H2H 6644  12.900   0.019   4.322
    1HEX    H2I 6645  12.903   0.294   4.668
    1HEX    H2J 6646  12.754   0.360   4.611
    1HEX    H2K 6647  12.982   0.506   4.640
    1HEX    H2M 6648  13.009   0.459   4.475
    1STR    S00 6649  13.539  17.295   3.685
    1STR    S0E 6650  12.877   0.717   4.116
    1STR    S0M 6651  12.511  16.911   3.747
    1STR    S0X 6652  13.612  17.334   4.645
    1STR    S14 6653  13.279   0.100   5.073
    1STR    S1B 6654  12.828   0.623   4.501
    1HEX    C01 6655  13.366  17.290   8.024
    1HEX    C02 6656  13.300  17.298   8.162
    1HEX    C03 6657  13.149  17.306   8.148
    1HEX    O04 6658  13.084  17.211   8.105
    1HEX    O05 6659  13.100  17.425   8.188
    1HEX    C06 6660  12.959   0.003   8.198
    1HEX    C07 6661  12.912  17.433   8.345
    1HEX    C08 6662  12.953   0.119   8.422
    1HEX    O09 6663  12.891   0.240   8.382
    1HEX    C0A 6664  12.813   0.305   8.470
    1HEX    O0B 6665  12.757   0.255   8.567
    1HEX    C0C 6666  12.805   0.455   8.442
    1HEX    C0D 6667  12.819   0.534   8.573
    1HEX    C0F 6668  12.757  17.420   8.347
    1HEX    O0G 6669  12.718  17.296   8.288
    1HEX    C0H 6670  12.653  17.292   8.170
    1HEX    O0I 6671  12.609  17.389   8.109
    1HEX    C0J 6672  12.642  17.151   8.114
    1HEX    C0K 6673  12.519  17.079   8.170
    1HEX    C0N 6674  12.970  17.307   8.417
    1HEX    O0O 6675  13.106  17.311   8.465
    1HEX    C0P 6676  13.147  17.371   8.591
    1HEX    C0Q 6677  13.113  17.295   8.723
    1HEX    C0R 6678  13.176  17.154   8.712
    1HEX    O0S 6679  13.317  17.171   8.697
    1HEX    C0T 6680  13.403  17.084   8.752
    1HEX    O0U 6681  13.372  16.981   8.812
    1HEX    C0V 6682  13.549  17.120   8.729
    1HEX    C0W 6683  13.586  17.266   8.762
    1HEX    C0Y 6684  13.177  17.365   8.848
    1HEX    O0Z 6685  13.137  17.297   8.967
    1HEX    C10 6686  13.213  17.206   9.029
    1HEX    O11 6687  13.335  17.204   9.030
    1HEX    C12 6688  13.129  17.103   9.107
    1HEX    C13 6689  13.166  16.953   9.081
    1HEX    C15 6690  12.958  17.291   8.739
    1HEX    O16 6691  12.906  17.278   8.871
    1HEX    C17 6692  12.798  17.203   8.895
    1HEX    O18 6693  12.742  17.128   8.814
    1HEX    C19 6694  12.744  17.220   9.036
    1HEX    C1A 6695  12.719  17.368   9.070
    1HEX    H1C 6696  13.577  17.287   7.915
    1HEX    H1D 6697  13.337  17.197   7.974
    1HEX    H1E 6698  13.333  17.372   7.961
    1HEX    H1F 6699  13.334  17.386   8.217
    1HEX    H1G 6700  13.324  17.211   8.222
    1HEX    H1H 6701  12.907  17.372   8.134
    1HEX    H1I 6702  12.933   0.101   8.157
    1HEX    H1J 6703  13.060   0.134   8.409
    1HEX    H1K 6704  12.936   0.102   8.528
    1HEX    H1M 6705  12.712   0.478   8.390
    1HEX    H1N 6706  12.887   0.479   8.374
    1HEX    H1O 6707  12.894   0.490   8.638
    1HEX    H1P 6708  12.725   0.532   8.628
    1HEX    H1Q 6709  12.992   0.681   8.500
    1HEX    H1R 6710  12.710   0.066   8.297
    1HEX    H1S 6711  12.718  17.423   8.449
    1HEX    H1T 6712  12.733  17.096   8.138
    1HEX    H1U 6713  12.636  17.158   8.006
    1HEX    H1V 6714  12.427  17.133   8.147
    1HEX    H1W 6715  12.525  17.072   8.279
    1HEX    H1X 6716  12.494  16.947   7.972
    1HEX    H1Y 6717  12.968  17.225   8.345
    1HEX    H1Z 6718  12.899  17.271   8.491
    1HEX    H20 6719  13.121   0.036   8.600
    1HEX    H21 6720  13.256  17.376   8.583
    1HEX    H22 6721  13.137  17.100   8.626
    1HEX    H23 6722  13.150  17.093   8.799
    1HEX    H24 6723  13.568  17.101   8.624
    1HEX    H25 6724  13.612  17.051   8.785
    1HEX    H26 6725  13.508  17.335   8.730
    1HEX    H27 6726  13.677  17.294   8.707
    1HEX    H28 6727  13.498  17.256   8.984
    1HEX    H29 6728  13.144   0.029   8.855
    1HEX    H2A 6729  13.286  17.369   8.841
    1HEX    H2B 6730  13.025  17.121   9.083
    1HEX    H2C 6731  13.141  17.128   9.212
    1HEX    H2D 6732  13.200  16.908   9.174
    1HEX    H2E 6733  13.252  16.946   9.015
    1HEX    H2G 6734  12.921  17.208   8.680
    1HEX    H2H 6735  12.914  17.382   8.700
    1HEX    H2I 6736  12.814  17.176   9.107
    1HEX    H2J 6737  12.651  17.163   9.044
    1HEX    H2K 6738  12.642  17.410   9.005
    1HEX    H2M 6739  12.810  17.427   9.053
    1HEX    H2N 6740  12.558  17.310   9.236
    1STR    S00 6741  13.546  17.297   8.045
    1STR    S0E 6742  12.866   0.706   8.537
    1STR    S0M 6743  12.510  16.911   8.100
    1STR    S0X 6744  13.620  17.291   8.939
    1STR    S14 6745  13.031  16.843   9.016
    1STR    S1B 6746  12.671  17.382   9.244
    1HEX    C01 6747  13.434  17.301  12.343
    1HEX    C02 6748  13.361  17.308  12.478
    1HEX    C03 6749  13.210  17.306  12.462
    1HEX    O04 6750  13.155  17.221  12.391
    1HEX    O05 6751  13.148  17.399  12.538
    1HEX    C06 6752  13.006  17.394  12.554
    1HEX    C07 6753  12.958  17.323  12.686
    1HEX    C08 6754  12.908  17.429  12.790
    1HEX    O09 6755  12.872  17.368  12.915
    1HEX    C0A 6756  12.769  17.279  12.932
    1HEX    O0B 6757  12.656  17.288  12.883
    1HEX    C0C 6758  12.809  17.164  13.025
    1HEX    C0D 6759  12.799  17.012  12.990
    1HEX    C0F 6760  12.828  17.243  12.647
    1HEX    O0G 6761  12.815  17.177  12.522
    1HEX    C0H 6762  12.703  17.202  12.450
    1HEX    O0I 6763  12.646  17.310  12.440
    1HEX    C0J 6764  12.644  17.077  12.387
    1HEX    C0K 6765  12.524  17.029  12.472
    1HEX    C0N 6766  13.072  17.231  12.750
    1HEX    O0O 6767  13.092  17.227  12.893
    1HEX    C0P 6768  13.186  17.318  12.955
    1HEX    C0Q 6769  13.203  17.299  13.111
    1HEX    C0R 6770  13.270  17.163  13.140
    1HEX    O0S 6771  13.413  17.167  13.136
    1HEX    C0T 6772  13.481  17.148  13.251
    1HEX    O0U 6773  13.434  17.128  13.363
    1HEX    C0V 6774  13.632  17.155  13.231
    1HEX    C0W 6775  13.680  17.299  13.208
    1HEX    C0Y 6776  13.285  17.418  13.168
    1HEX    O0Z 6777  13.291  17.408  13.309
    1HEX    C10 6778  13.302   0.077  13.383
    1HEX    O11 6779  13.342   0.187  13.344
    1HEX    C12 6780  13.253   0.055  13.526
    1HEX    C13 6781  13.355   0.101  13.631
    1HEX    C15 6782  13.063  17.295  13.178
    1HEX    O16 6783  13.044  17.313  13.319
    1HEX    C17 6784  12.943  17.244  13.380
    1HEX    O18 6785  12.885  17.146  13.334
    1HEX    C19 6786  12.895  17.305  13.510
    1HEX    C1A 6787  12.781  17.403  13.481
    1HEX    H1C 6788  13.651  17.294  12.247
    1HEX    H1D 6789  13.406  17.210  12.289
    1HEX    H1E 6790  13.407  17.386  12.281
    1HEX    H1F 6791  13.391  17.397  12.533
    1HEX    H1G 6792  13.389  17.222  12.539
    1HEX    H1H 6793  12.963  17.349  12.464
    1HEX    H1I 6794  12.968   0.056  12.549
    1HEX    H1J 6795  12.826   0.049  12.752
    1HEX    H1K 6796  12.988   0.061  12.808
    1HEX    H1M 6797  12.773  17.188  13.125
    1HEX    H1N 6798  12.913  17.177  13.019
    1HEX    H1O 6799  12.741  16.968  13.071
    1HEX    H1P 6800  12.740  16.997  12.899
    1HEX    H1R 6801  12.743  17.311  12.658
    1HEX    H1S 6802  12.811  17.164  12.719
    1HEX    H1T 6803  12.721  17.001  12.382
    1HEX    H1U 6804  12.612  17.100  12.285
    1HEX    H1V 6805  12.438  17.095  12.459
    1HEX    H1W 6806  12.549  17.031  12.578
    1HEX    H1X 6807  12.444  16.885  12.299
    1HEX    H1Y 6808  13.170  17.248  12.708
    1HEX    H1Z 6809  13.049  17.129  12.720
    1HEX    H20 6810  13.155  17.420  12.934
    1HEX    H21 6811  13.284  17.306  12.907
    1HEX    H22 6812  13.236  17.088  13.068
    1HEX    H23 6813  13.235  17.124  13.236
    1HEX    H24 6814  13.656  17.092  13.145
    1HEX    H25 6815  13.680  17.111  13.318
    1HEX    H26 6816  13.622  17.346  13.128
    1HEX    H27 6817  13.784  17.299  13.176
    1HEX    H28 6818  13.532  17.383  13.373
    1HEX    H29 6819  13.239   0.073  13.140
    1HEX    H2A 6820  13.387  17.420  13.129
    1HEX    H2B 6821  13.230  17.390  13.539
    1HEX    H2C 6822  13.160   0.111  13.535
    1HEX    H2D 6823  13.388   0.203  13.610
    1HEX    H2E 6824  13.443   0.038  13.628
    1HEX    H2F 6825  13.183   0.187  13.773
    1HEX    H2G 6826  13.036  17.191  13.163
    1HEX    H2H 6827  12.993  17.361  13.127
    1HEX    H2I 6828  12.977  17.350  13.565
    1HEX    H2J 6829  12.858  17.222  13.571
    1HEX    H2K 6830  12.713  17.362  13.406
    1HEX    H2M 6831  12.820   0.056  13.441
    1HEX    H2N 6832  12.618  17.322  13.635
    1STR    S00 6833  13.612  17.301  12.375
    1STR    S0E 6834  12.962  16.918  12.979
    1STR    S0M 6835  12.480  16.859  12.425
    1STR    S0X 6836  13.665  17.397  13.360
    1STR    S14 6837  13.276   0.093  13.794
    1STR    S1B 6838  12.686  17.437  13.633
    1HEX    C01 6839  13.259   3.931  16.896
    1HEX    C02 6840  13.185   3.972  17.025
    1HEX    C03 6841  13.051   4.043  16.999
    1HEX    O04 6842  12.949   3.977  16.982
    1HEX    O05 6843  13.060   4.179  16.992
    1HEX    C06 6844  12.947   4.260  16.955
    1HEX    C07 6845  12.865   4.328  17.070
    1HEX    C08 6846  12.911   4.473  17.099
    1HEX    O09 6847  12.845   4.587  17.045
    1HEX    C0A 6848  12.773   4.665  17.131
    1HEX    O0B 6849  12.700   4.621  17.220
    1HEX    C0C 6850  12.804   4.814  17.121
    1HEX    C0D 6851  12.821   4.876  17.261
    1HEX    C0F 6852  12.715   4.332  17.030
    1HEX    O0G 6853  12.670   4.204  16.986
    1HEX    C0H 6854  12.625   4.188  16.860
    1HEX    O0I 6855  12.591   4.277  16.784
    1HEX    C0J 6856  12.623   4.042  16.816
    1HEX    C0K 6857  12.503   3.968  16.876
    1HEX    C0N 6858  12.884   4.247  17.201
    1HEX    O0O 6859  13.020   4.239  17.245
    1HEX    C0P 6860  13.087   4.351  17.307
    1HEX    C0Q 6861  13.152   4.305  17.438
    1HEX    C0R 6862  13.251   4.189  17.400
    1HEX    O0S 6863  13.298   4.188  17.262
    1HEX    C0T 6864  13.393   4.272  17.213
    1HEX    O0U 6865  13.452   4.356  17.281
    1HEX    C0V 6866  13.427   4.254  17.063
    1HEX    C0W 6867  13.337   4.331  16.961
    1HEX    C0Y 6868  13.228   4.425   0.063
    1HEX    O0Z 6869  13.150   4.533   0.119
    1HEX    C10 6870  13.215   4.649   0.155
    1HEX    O11 6871  13.332   4.675   0.127
    1HEX    C12 6872  13.133   4.743   0.245
    1HEX    C13 6873  13.191   4.887   0.272
    1HEX    C15 6874  13.025   4.257   0.078
    1HEX    O16 6875  13.023   4.222   0.216
    1HEX    C17 6876  12.909   4.158   0.256
    1HEX    O18 6877  12.838   4.086   0.185
    1HEX    C19 6878  12.862   4.193   0.396
    1HEX    C1A 6879  12.758   4.305   0.386
    1HEX    H1C 6880  13.480   3.973  16.821
    1HEX    H1D 6881  13.215   3.841  16.852
    1HEX    H1E 6882  13.253   4.009  16.820
    1HEX    H1F 6883  13.245   4.039  17.085
    1HEX    H1G 6884  13.167   3.884  17.087
    1HEX    H1H 6885  12.883   4.199  16.892
    1HEX    H1I 6886  12.978   4.339  16.887
    1HEX    H1J 6887  13.018   4.484  17.080
    1HEX    H1K 6888  12.897   4.487  17.205
    1HEX    H1M 6889  12.723   4.863  17.066
    1HEX    H1N 6890  12.895   4.826  17.063
    1HEX    H1O 6891  12.893   4.820  17.321
    1HEX    H1P 6892  12.727   4.872  17.316
    1HEX    H1Q 6893  13.002   5.025  17.214
    1HEX    H1R 6894  12.700   4.407  16.953
    1HEX    H1S 6895  12.653   4.365  17.114
    1HEX    H1T 6896  12.716   3.995  16.846
    1HEX    H1U 6897  12.619   4.041  16.707
    1HEX    H1V 6898  12.410   4.022  16.854
    1HEX    H1W 6899  12.513   3.963  16.984
    1HEX    H1X 6900  12.473   3.838  16.679
    1HEX    H1Y 6901  12.851   4.144  17.182
    1HEX    H1Z 6902  12.820   4.283  17.281
    1HEX    H20 6903  13.025   4.433  17.337
    1HEX    H21 6904  13.160   4.392  17.238
    1HEX    H22 6905  13.198   4.094  17.412
    1HEX    H23 6906  13.335   4.183   0.029
    1HEX    H24 6907  13.427   4.148  17.044
    1HEX    H25 6908  13.531   4.285  17.050
    1HEX    H26 6909  13.234   4.330  16.994
    1HEX    H27 6910  13.365   4.436  16.959
    1HEX    H29 6911  13.294   4.469  17.428
    1HEX    H2A 6912  13.295   4.388   0.141
    1HEX    H2B 6913  13.132   4.690   0.341
    1HEX    H2C 6914  13.030   4.747   0.212
    1HEX    H2D 6915  13.300   4.887   0.262
    1HEX    H2E 6916  13.172   4.913   0.376
    1HEX    H2G 6917  12.982   4.174   0.022
    1HEX    H2H 6918  12.950   4.337   0.073
    1HEX    H2I 6919  12.946   4.219   0.460
    1HEX    H2J 6920  12.816   4.103   0.437
    1HEX    H2K 6921  12.682   4.282   0.312
    1HEX    H2M 6922  12.806   4.398   0.354
    1HEX    H2N 6923  12.599   4.223   0.544
    1STR    S00 6924  13.436   3.902  16.926
    1STR    S0E 6925  12.876   5.049  17.248
    1STR    S0M 6926  12.496   3.801  16.805
    1STR    S0X 6927  13.347   4.265  16.786
    1STR    S14 6928  13.124   5.025   0.170
    1STR    S1B 6929  12.677   4.331   0.547
    1HEX    C01 6930  13.342   4.212   3.671
    1HEX    C02 6931  13.275   4.220   3.809
    1HEX    C03 6932  13.125   4.199   3.799
    1HEX    O04 6933  13.079   4.093   3.758
    1HEX    O05 6934  13.053   4.306   3.842
    1HEX    C06 6935  12.912   4.293   3.860
    1HEX    C07 6936  12.876   4.283   4.011
    1HEX    C08 6937  12.876   4.427   4.070
    1HEX    O09 6938  12.748   4.494   4.073
    1HEX    C0A 6939  12.687   4.519   4.193
    1HEX    O0B 6940  12.727   4.477   4.302
    1HEX    C0C 6941  12.566   4.612   4.183
    1HEX    C0D 6942  12.463   4.594   4.299
    1HEX    C0F 6943  12.733   4.221   4.025
    1HEX    O0G 6944  12.737   4.078   4.014
    1HEX    C0H 6945  12.707   4.015   3.900
    1HEX    O0I 6946  12.652   4.067   3.803
    1HEX    C0J 6947  12.749   3.868   3.899
    1HEX    C0K 6948  12.663   3.777   3.991
    1HEX    C0N 6949  12.971   4.183   4.087
    1HEX    O0O 6950  13.109   4.215   4.105
    1HEX    C0P 6951  13.156   4.306   4.205
    1HEX    C0Q 6952  13.125   4.279   4.356
    1HEX    C0R 6953  13.158   4.132   4.392
    1HEX    O0S 6954  13.298   4.106   4.391
    1HEX    C0T 6955  13.365   4.088   4.508
    1HEX    O0U 6956  13.316   4.088   4.620
    1HEX    C0V 6957  13.514   4.063   4.487
    1HEX    C0W 6958  13.596   4.193   4.479
    1HEX    C0Y 6959  13.218   4.375   4.435
    1HEX    O0Z 6960  13.194   4.363   4.574
    1HEX    C10 6961  13.276   4.422   4.659
    1HEX    O11 6962  13.376   4.487   4.629
    1HEX    C12 6963  13.232   4.400   4.803
    1HEX    C13 6964  13.336   4.451   4.904
    1HEX    C15 6965  12.979   4.317   4.393
    1HEX    O16 6966  12.940   4.284   4.526
    1HEX    C17 6967  12.857   4.182   4.549
    1HEX    O18 6968  12.821   4.097   4.468
    1HEX    C19 6969  12.804   4.183   4.691
    1HEX    C1A 6970  12.719   4.309   4.714
    1HEX    H1C 6971  13.553   4.211   3.563
    1HEX    H1D 6972  13.318   4.117   3.623
    1HEX    H1E 6973  13.305   4.291   3.606
    1HEX    H1F 6974  13.296   4.315   3.858
    1HEX    H1G 6975  13.314   4.142   3.875
    1HEX    H1H 6976  12.873   4.208   3.804
    1HEX    H1I 6977  12.864   4.380   3.815
    1HEX    H1J 6978  12.945   4.490   4.014
    1HEX    H1K 6979  12.918   4.428   4.169
    1HEX    H1M 6980  12.519   4.601   4.086
    1HEX    H1N 6981  12.606   4.713   4.187
    1HEX    H1O 6982  12.505   4.536   4.381
    1HEX    H1P 6983  12.437   4.690   4.343
    1HEX    H1R 6984  12.663   4.267   3.954
    1HEX    H1S 6985  12.693   4.243   4.124
    1HEX    H1T 6986  12.855   3.862   3.924
    1HEX    H1U 6987  12.741   3.833   3.796
    1HEX    H1V 6988  12.607   3.705   3.931
    1HEX    H1W 6989  12.589   3.840   4.041
    1HEX    H1Y 6990  12.977   4.094   4.024
    1HEX    H1Z 6991  12.927   4.142   4.177
    1HEX    H20 6992  13.132   4.408   4.176
    1HEX    H21 6993  13.264   4.301   4.193
    1HEX    H22 6994  13.109   4.063   4.323
    1HEX    H23 6995  13.115   4.107   4.490
    1HEX    H24 6996  13.525   4.006   4.395
    1HEX    H25 6997  13.550   4.000   4.568
    1HEX    H26 6998  13.550   4.265   4.411
    1HEX    H27 6999  13.695   4.171   4.439
    1HEX    H28 7000  13.503   4.340   4.643
    1HEX    H29 7001  13.202   4.479   4.406
    1HEX    H2A 7002  13.323   4.354   4.414
    1HEX    H2B 7003  13.214   4.294   4.817
    1HEX    H2C 7004  13.137   4.452   4.816
    1HEX    H2D 7005  13.368   4.553   4.880
    1HEX    H2E 7006  13.426   4.389   4.900
    1HEX    H2F 7007  13.168   4.538   5.048
    1HEX    H2G 7008  12.904   4.278   4.326
    1HEX    H2H 7009  12.967   4.425   4.387
    1HEX    H2I 7010  12.890   4.181   4.759
    1HEX    H2J 7011  12.746   4.093   4.709
    1HEX    H2K 7012  12.631   4.309   4.650
    1HEX    H2M 7013  12.777   4.398   4.688
    1HEX    H2N 7014  12.584   4.218   4.887
    1STR    S00 7015  13.522   4.227   3.692
    1STR    S0E 7016  12.308   4.514   4.245
    1STR    S0M 7017  12.748   3.686   4.124
    1STR    S0X 7018  13.618   4.270   4.642
    1STR    S14 7019  13.264   4.448   5.071
    1STR    S1B 7020  12.671   4.320   4.889
    1HEX    C01 7021  13.353   4.210   8.033
    1HEX    C02 7022  13.290   4.219   8.173
    1HEX    C03 7023  13.138   4.221   8.163
    1HEX    O04 7024  13.077   4.126   8.116
    1HEX    O05 7025  13.084   4.336   8.208
    1HEX    C06 7026  12.942   4.351   8.212
    1HEX    C07 7027  12.886   4.338   8.357
    1HEX    C08 7028  12.914   4.471   8.433
    1HEX    O09 7029  12.804   4.564   8.434
    1HEX    C0A 7030  12.725   4.575   8.543
    1HEX    O0B 7031  12.738   4.513   8.648
    1HEX    C0C 7032  12.613   4.678   8.526
    1HEX    C0D 7033  12.487   4.651   8.613
    1HEX    C0F 7034  12.732   4.319   8.348
    1HEX    O0G 7035  12.700   4.198   8.281
    1HEX    C0H 7036  12.643   4.199   8.160
    1HEX    O0I 7037  12.606   4.299   8.098
    1HEX    C0J 7038  12.631   4.060   8.101
    1HEX    C0K 7039  12.512   3.986   8.163
    1HEX    C0N 7040  12.943   4.211   8.429
    1HEX    O0O 7041  13.082   4.201   8.465
    1HEX    C0P 7042  13.146   4.286   8.560
    1HEX    C0Q 7043  13.117   4.270   8.713
    1HEX    C0R 7044  13.150   4.124   8.756
    1HEX    O0S 7045  13.291   4.099   8.754
    1HEX    C0T 7046  13.361   4.087   8.869
    1HEX    O0U 7047  13.314   4.092   8.983
    1HEX    C0V 7048  13.509   4.064   8.846
    1HEX    C0W 7049  13.592   4.194   8.838
    1HEX    C0Y 7050  13.210   4.369   8.787
    1HEX    O0Z 7051  13.189   4.362   8.926
    1HEX    C10 7052  13.273   4.420   9.010
    1HEX    O11 7053  13.373   4.484   8.977
    1HEX    C12 7054  13.231   4.401   9.154
    1HEX    C13 7055  13.336   4.451   9.254
    1HEX    C15 7056  12.971   4.309   8.752
    1HEX    O16 7057  12.935   4.281   8.886
    1HEX    C17 7058  12.856   4.177   8.916
    1HEX    O18 7059  12.822   4.087   8.838
    1HEX    C19 7060  12.807   4.182   9.059
    1HEX    C1A 7061  12.724   4.310   9.081
    1HEX    H1C 7062  13.562   4.208   7.919
    1HEX    H1D 7063  13.324   4.118   7.984
    1HEX    H1E 7064  13.319   4.293   7.971
    1HEX    H1F 7065  13.324   4.308   8.226
    1HEX    H1G 7066  13.318   4.133   8.233
    1HEX    H1H 7067  12.896   4.279   8.145
    1HEX    H1I 7068  12.916   4.448   8.169
    1HEX    H1J 7069  13.001   4.521   8.391
    1HEX    H1K 7070  12.941   4.451   8.535
    1HEX    H1M 7071  12.587   4.686   8.421
    1HEX    H1N 7072  12.657   4.774   8.554
    1HEX    H1O 7073  12.514   4.623   8.715
    1HEX    H1P 7074  12.430   4.744   8.623
    1HEX    H1R 7075  12.684   4.404   8.300
    1HEX    H1S 7076  12.688   4.315   8.448
    1HEX    H1T 7077  12.724   4.007   8.119
    1HEX    H1U 7078  12.619   4.069   7.993
    1HEX    H1V 7079  12.419   4.039   8.144
    1HEX    H1W 7080  12.524   3.979   8.272
    1HEX    H1X 7081  12.485   3.855   7.966
    1HEX    H1Y 7082  12.930   4.129   8.358
    1HEX    H1Z 7083  12.878   4.178   8.510
    1HEX    H20 7084  13.144   4.390   8.528
    1HEX    H21 7085  13.252   4.260   8.547
    1HEX    H22 7086  13.100   4.053   8.691
    1HEX    H23 7087  13.111   4.104   8.856
    1HEX    H24 7088  13.520   4.007   8.754
    1HEX    H25 7089  13.547   4.000   8.926
    1HEX    H26 7090  13.544   4.266   8.772
    1HEX    H27 7091  13.690   4.172   8.797
    1HEX    H28 7092  13.502   4.341   9.002
    1HEX    H29 7093  13.193   4.472   8.755
    1HEX    H2A 7094  13.315   4.348   8.765
    1HEX    H2B 7095  13.212   4.295   9.170
    1HEX    H2C 7096  13.136   4.453   9.168
    1HEX    H2D 7097  13.368   4.553   9.229
    1HEX    H2E 7098  13.426   4.389   9.249
    1HEX    H2F 7099  13.170   4.539   9.401
    1HEX    H2G 7100  12.896   4.267   8.687
    1HEX    H2H 7101  12.960   4.417   8.744
    1HEX    H2I 7102  12.893   4.179   9.125
    1HEX    H2J 7103  12.748   4.093   9.080
    1HEX    H2K 7104  12.637   4.311   9.015
    1HEX    H2M 7105  12.784   4.398   9.057
    1HEX    H2N 7106  12.587   4.217   9.252
    1STR    S00 7107  13.534   4.217   8.050
    1STR    S0E 7108  12.373   4.527   8.543
    1STR    S0M 7109  12.504   3.818   8.093
    1STR    S0X 7110  13.616   4.270   9.001
    1STR    S14 7111  13.267   4.448   9.421
    1STR    S1B 7112  12.672   4.320   9.255
    1HEX    C01 7113  13.417   4.273  12.310
    1HEX    C02 7114  13.392   4.359  12.435
    1HEX    C03 7115  13.246   4.396  12.452
    1HEX    O04 7116  13.170   4.410  12.356
    1HEX    O05 7117  13.215   4.412  12.580
    1HEX    C06 7118  13.086   4.458  12.618
    1HEX    C07 7119  13.043   4.392  12.751
    1HEX    C08 7120  12.910   4.465  12.794
    1HEX    O09 7121  12.928   4.610  12.791
    1HEX    C0A 7122  12.874   4.696  12.882
    1HEX    O0B 7123  12.803   4.663  12.977
    1HEX    C0C 7124  12.908   4.845  12.855
    1HEX    C0D 7125  12.887   4.945  12.974
    1HEX    C0F 7126  13.039   4.234  12.729
    1HEX    O0G 7127  13.156   4.163  12.785
    1HEX    C0H 7128  13.269   4.130  12.713
    1HEX    O0I 7129  13.271   4.126  12.591
    1HEX    C0J 7130  13.390   4.075  12.796
    1HEX    C0K 7131  13.486   4.166  12.884
    1HEX    C0N 7132  13.145   4.405  12.864
    1HEX    O0O 7133  13.145   4.513  12.954
    1HEX    C0P 7134  13.226   4.479  13.067
    1HEX    C0Q 7135  13.157   4.392  13.178
    1HEX    C0R 7136  13.177   4.236  13.168
    1HEX    O0S 7137  13.312   4.193  13.183
    1HEX    C0T 7138  13.334   4.075  13.248
    1HEX    O0U 7139  13.247   3.997  13.285
    1HEX    C0V 7140  13.481   4.044  13.272
    1HEX    C0W 7141  13.561   4.159  13.335
    1HEX    C0Y 7142  13.225   4.438  13.308
    1HEX    O0Z 7143  13.177   4.379  13.427
    1HEX    C10 7144  13.246   4.405  13.538
    1HEX    O11 7145  13.356   4.459  13.541
    1HEX    C12 7146  13.173   4.363  13.665
    1HEX    C13 7147  13.245   4.415  13.791
    1HEX    C15 7148  13.004   4.424  13.180
    1HEX    O16 7149  12.937   4.370  13.293
    1HEX    C17 7150  12.866   4.256  13.285
    1HEX    O18 7151  12.850   4.187  13.184
    1HEX    C19 7152  12.805   4.217  13.419
    1HEX    C1A 7153  12.709   4.327  13.467
    1HEX    H1C 7154  13.590   4.154  12.198
    1HEX    H1D 7155  13.348   4.189  12.307
    1HEX    H1E 7156  13.401   4.333  12.220
    1HEX    H1F 7157  13.451   4.450  12.433
    1HEX    H1G 7158  13.423   4.304  12.523
    1HEX    H1H 7159  13.011   4.436  12.541
    1HEX    H1I 7160  13.091   4.566  12.625
    1HEX    H1J 7161  12.876   4.433  12.893
    1HEX    H1K 7162  12.828   4.441  12.726
    1HEX    H1M 7163  12.848   4.878  12.769
    1HEX    H1N 7164  13.011   4.847  12.822
    1HEX    H1O 7165  12.888   4.889  13.068
    1HEX    H1P 7166  12.789   4.991  12.969
    1HEX    H1R 7167  13.024   4.208  12.624
    1HEX    H1S 7168  12.951   4.194  12.780
    1HEX    H1T 7169  13.450   4.015  12.727
    1HEX    H1U 7170  13.344   4.001  12.861
    1HEX    H1V 7171  13.496   4.114  12.979
    1HEX    H1W 7172  13.436   4.259  12.910
    1HEX    H1Y 7173  13.246   4.387  12.826
    1HEX    H1Z 7174  13.119   4.324  12.930
    1HEX    H20 7175  13.254   4.576  13.107
    1HEX    H21 7176  13.321   4.434  13.037
    1HEX    H22 7177  13.133   4.188  13.080
    1HEX    H23 7178  13.118   4.193  13.249
    1HEX    H24 7179  13.526   4.016  13.177
    1HEX    H25 7180  13.488   3.955  13.336
    1HEX    H26 7181  13.545   4.251  13.280
    1HEX    H27 7182  13.667   4.136  13.329
    1HEX    H28 7183  13.456   4.300  13.498
    1HEX    H29 7184  13.216   4.546  13.320
    1HEX    H2A 7185  13.332   4.417  13.299
    1HEX    H2B 7186  13.162   4.254  13.667
    1HEX    H2C 7187  13.073   4.405  13.658
    1HEX    H2D 7188  13.292   4.511  13.771
    1HEX    H2E 7189  13.326   4.347  13.819
    1HEX    H2G 7190  12.957   4.388  13.089
    1HEX    H2H 7191  12.988   4.532  13.179
    1HEX    H2I 7192  12.887   4.205  13.489
    1HEX    H2J 7193  12.755   4.121  13.411
    1HEX    H2K 7194  12.619   4.330  13.405
    1HEX    H2M 7195  12.756   4.425  13.459
    1HEX    H2N 7196  12.587   4.192  13.622
    1STR    S00 7197  13.589   4.214  12.318
    1STR    S0E 7198  13.016   5.077  12.991
    1STR    S0M 7199  13.666   4.204  12.836
    1STR    S0X 7200  13.518   4.181  13.510
    1STR    S14 7201  13.128   4.443  13.928
    1STR    S1B 7202  12.665   4.299  13.641
    1HEX    C01 7203  13.299   8.605  16.783
    1HEX    C02 7204  13.248   8.637  16.925
    1HEX    C03 7205  13.095   8.645  16.935
    1HEX    O04 7206  13.024   8.574  16.863
    1HEX    O05 7207  13.051   8.729  17.033
    1HEX    C06 7208  12.916   8.720  17.082
    1HEX    C07 7209  12.906   8.665  17.230
    1HEX    C08 7210  12.916   8.790  17.338
    1HEX    O09 7211  12.852   8.776   0.031
    1HEX    C0A 7212  12.844   8.863   0.149
    1HEX    O0B 7213  12.734   8.886   0.198
    1HEX    C0C 7214  12.970   8.917   0.230
    1HEX    C0D 7215  12.954   8.970   0.384
    1HEX    C0F 7216  12.765   8.592  17.246
    1HEX    O0G 7217  12.772   8.446  17.245
    1HEX    C0H 7218  12.753   8.374  17.131
    1HEX    O0I 7219  12.704   8.420  17.029
    1HEX    C0J 7220  12.808   8.228  17.132
    1HEX    C0K 7221  12.828   8.153  17.268
    1HEX    C0N 7222  13.009   8.544  17.230
    1HEX    O0O 7223  13.149   8.562  17.222
    1HEX    C0P 7224  13.216   8.625  17.328
    1HEX    C0Q 7225  13.194   8.575   0.034
    1HEX    C0R 7226  13.232   8.427   0.051
    1HEX    O0S 7227  13.373   8.412   0.046
    1HEX    C0T 7228  13.442   8.397   0.161
    1HEX    O0U 7229  13.395   8.384   0.273
    1HEX    C0V 7230  13.592   8.398   0.138
    1HEX    C0W 7231  13.650   8.539   0.121
    1HEX    C0Y 7232  13.283   8.672   0.113
    1HEX    O0Z 7233  13.267   8.643   0.248
    1HEX    C10 7234  13.309   8.727   0.339
    1HEX    O11 7235  13.356   8.839   0.318
    1HEX    C12 7236  13.291   8.666   0.475
    1HEX    C13 7237  13.378   8.735   0.579
    1HEX    C15 7238  13.051   8.593   0.091
    1HEX    O16 7239  13.012   8.540   0.217
    1HEX    C17 7240  12.886   8.493   0.233
    1HEX    O18 7241  12.811   8.455   0.143
    1HEX    C19 7242  12.837   8.496   0.376
    1HEX    C1A 7243  12.751   8.622   0.400
    1HEX    H1C 7244  13.499   8.568  16.658
    1HEX    H1D 7245  13.259   8.510  16.748
    1HEX    H1E 7246  13.267   8.682  16.712
    1HEX    H1F 7247  13.291   8.730  16.962
    1HEX    H1G 7248  13.280   8.558  16.993
    1HEX    H1H 7249  12.858   8.656  17.015
    1HEX    H1I 7250  12.869   8.818  17.071
    1HEX    H1J 7251  12.868   8.877  17.293
    1HEX    H1K 7252  13.019   8.823  17.350
    1HEX    H1M 7253  12.997   9.005   0.172
    1HEX    H1N 7254  13.058   8.855   0.226
    1HEX    H1O 7255  13.015   9.060   0.394
    1HEX    H1P 7256  12.852   9.006   0.399
    1HEX    H1R 7257  12.692   8.628  17.172
    1HEX    H1S 7258  12.721   8.618  17.342
    1HEX    H1T 7259  12.903   8.233  17.080
    1HEX    H1U 7260  12.743   8.170  17.067
    1HEX    H1V 7261  12.732   8.141  17.319
    1HEX    H1W 7262  12.891   8.211  17.335
    1HEX    H1Y 7263  12.991   8.489  17.137
    1HEX    H1Z 7264  12.991   8.464  17.301
    1HEX    H20 7265  13.203   8.732  17.316
    1HEX    H21 7266  13.322   8.609  17.304
    1HEX    H22 7267  13.186   8.367  17.413
    1HEX    H23 7268  13.192   8.388   0.144
    1HEX    H24 7269  13.610   8.338   0.048
    1HEX    H25 7270  13.639   8.346   0.221
    1HEX    H26 7271  13.596   8.595   0.044
    1HEX    H27 7272  13.753   8.532   0.086
    1HEX    H28 7273  13.520   8.662   0.280
    1HEX    H29 7274  13.256   8.776   0.093
    1HEX    H2A 7275  13.388   8.664   0.086
    1HEX    H2B 7276  13.317   8.560   0.468
    1HEX    H2C 7277  13.185   8.670   0.500
    1HEX    H2D 7278  13.360   8.842   0.575
    1HEX    H2E 7279  13.483   8.719   0.557
    1HEX    H2F 7280  13.233   8.756   0.763
    1HEX    H2G 7281  12.971   8.571   0.023
    1HEX    H2H 7282  13.044   8.698   0.104
    1HEX    H2I 7283  12.922   8.492   0.444
    1HEX    H2J 7284  12.777   8.406   0.392
    1HEX    H2K 7285  12.671   8.630   0.326
    1HEX    H2M 7286  12.813   8.711   0.388
    1HEX    H2N 7287  12.580   8.537   0.541
    1STR    S00 7288  13.480   8.597  16.787
    1STR    S0E 7289  13.000   8.867   0.539
    1STR    S0M 7290  12.903   7.984  17.241
    1STR    S0X 7291  13.651   8.633   0.277
    1STR    S14 7292  13.333   8.668   0.741
    1STR    S1B 7293  12.682   8.620   0.567
    1HEX    C01 7294  13.286   8.497   3.619
    1HEX    C02 7295  13.287   8.553   3.763
    1HEX    C03 7296  13.146   8.553   3.818
    1HEX    O04 7297  13.084   8.448   3.830
    1HEX    O05 7298  13.097   8.677   3.841
    1HEX    C06 7299  12.956   8.695   3.848
    1HEX    C07 7300  12.900   8.701   3.992
    1HEX    C08 7301  12.949   8.830   4.060
    1HEX    O09 7302  12.884   8.951   4.023
    1HEX    C0A 7303  12.814   9.019   4.115
    1HEX    O0B 7304  12.767   8.972   4.219
    1HEX    C0C 7305  12.805   9.168   4.085
    1HEX    C0D 7306  12.818   9.252   4.213
    1HEX    C0F 7307  12.744   8.705   3.983
    1HEX    O0G 7308  12.698   8.582   3.927
    1HEX    C0H 7309  12.645   8.578   3.804
    1HEX    O0I 7310  12.610   8.674   3.737
    1HEX    C0J 7311  12.637   8.436   3.750
    1HEX    C0K 7312  12.516   8.361   3.807
    1HEX    C0N 7313  12.936   8.573   4.075
    1HEX    O0O 7314  13.070   8.549   4.120
    1HEX    C0P 7315  13.142   8.632   4.212
    1HEX    C0Q 7316  13.111   8.624   4.365
    1HEX    C0R 7317  13.145   8.480   4.414
    1HEX    O0S 7318  13.285   8.454   4.407
    1HEX    C0T 7319  13.359   8.447   4.520
    1HEX    O0U 7320  13.317   8.456   4.635
    1HEX    C0V 7321  13.507   8.423   4.492
    1HEX    C0W 7322  13.589   8.552   4.480
    1HEX    C0Y 7323  13.204   8.726   4.434
    1HEX    O0Z 7324  13.183   8.723   4.574
    1HEX    C10 7325  13.271   8.780   4.655
    1HEX    O11 7326  13.372   8.841   4.621
    1HEX    C12 7327  13.231   8.762   4.801
    1HEX    C13 7328  13.338   8.813   4.898
    1HEX    C15 7329  12.965   8.664   4.399
    1HEX    O16 7330  12.927   8.644   4.535
    1HEX    C17 7331  12.854   8.537   4.570
    1HEX    O18 7332  12.822   8.444   4.496
    1HEX    C19 7333  12.807   8.544   4.714
    1HEX    C1A 7334  12.723   8.671   4.735
    1HEX    H1D 7335  13.352   8.411   3.612
    1HEX    H1E 7336  13.187   8.460   3.593
    1HEX    H1F 7337  13.329   8.654   3.769
    1HEX    H1G 7338  13.347   8.490   3.829
    1HEX    H1H 7339  12.908   8.617   3.789
    1HEX    H1I 7340  12.932   8.788   3.795
    1HEX    H1J 7341  13.053   8.846   4.034
    1HEX    H1K 7342  12.945   8.818   4.168
    1HEX    H1M 7343  12.712   9.190   4.032
    1HEX    H1N 7344  12.886   9.192   4.016
    1HEX    H1O 7345  12.893   9.209   4.280
    1HEX    H1P 7346  12.724   9.252   4.268
    1HEX    H1Q 7347  12.994   9.396   4.139
    1HEX    H1R 7348  12.711   8.791   3.925
    1HEX    H1S 7349  12.700   8.718   4.081
    1HEX    H1T 7350  12.730   8.384   3.773
    1HEX    H1U 7351  12.631   8.441   3.641
    1HEX    H1V 7352  12.423   8.412   3.783
    1HEX    H1W 7353  12.523   8.357   3.916
    1HEX    H1X 7354  12.498   8.225   3.612
    1HEX    H1Y 7355  12.915   8.487   4.011
    1HEX    H1Z 7356  12.862   8.555   4.153
    1HEX    H20 7357  13.150   8.735   4.179
    1HEX    H21 7358  13.245   8.597   4.200
    1HEX    H22 7359  13.092   8.407   4.353
    1HEX    H23 7360  13.108   8.465   4.516
    1HEX    H24 7361  13.514   8.365   4.400
    1HEX    H25 7362  13.547   8.359   4.571
    1HEX    H26 7363  13.540   8.624   4.414
    1HEX    H27 7364  13.687   8.530   4.436
    1HEX    H28 7365  13.503   8.700   4.646
    1HEX    H29 7366  13.186   8.828   4.399
    1HEX    H2A 7367  13.309   8.705   4.412
    1HEX    H2B 7368  13.212   8.656   4.817
    1HEX    H2C 7369  13.137   8.815   4.815
    1HEX    H2D 7370  13.369   8.915   4.872
    1HEX    H2E 7371  13.427   8.750   4.892
    1HEX    H2F 7372  13.173   8.901   5.046
    1HEX    H2G 7373  12.893   8.613   4.338
    1HEX    H2H 7374  12.950   8.770   4.380
    1HEX    H2I 7375  12.894   8.543   4.779
    1HEX    H2J 7376  12.749   8.455   4.736
    1HEX    H2K 7377  12.638   8.673   4.667
    1HEX    H2M 7378  12.783   8.760   4.713
    1HEX    H2N 7379  12.582   8.574   4.900
    1STR    S00 7380  13.337   8.622   3.496
    1STR    S0E 7381  12.867   9.422   4.173
    1STR    S0M 7382  12.514   8.192   3.741
    1STR    S0X 7383  13.618   8.630   4.642
    1STR    S14 7384  13.270   8.811   5.066
    1STR    S1B 7385  12.665   8.679   4.907
    1HEX    C01 7386  13.360   8.566   8.029
    1HEX    C02 7387  13.298   8.569   8.169
    1HEX    C03 7388  13.146   8.570   8.159
    1HEX    O04 7389  13.084   8.471   8.122
    1HEX    O05 7390  13.093   8.689   8.193
    1HEX    C06 7391  12.952   8.705   8.199
    1HEX    C07 7392  12.902   8.702   8.345
    1HEX    C08 7393  12.951   8.831   8.415
    1HEX    O09 7394  12.884   8.951   8.379
    1HEX    C0A 7395  12.816   9.019   8.474
    1HEX    O0B 7396  12.771   8.970   8.578
    1HEX    C0C 7397  12.806   9.168   8.444
    1HEX    C0D 7398  12.819   9.250   8.574
    1HEX    C0F 7399  12.746   8.701   8.345
    1HEX    O0G 7400  12.700   8.578   8.289
    1HEX    C0H 7401  12.646   8.575   8.166
    1HEX    O0I 7402  12.613   8.672   8.099
    1HEX    C0J 7403  12.635   8.433   8.111
    1HEX    C0K 7404  12.514   8.360   8.170
    1HEX    C0N 7405  12.947   8.572   8.421
    1HEX    O0O 7406  13.084   8.555   8.464
    1HEX    C0P 7407  13.149   8.636   8.564
    1HEX    C0Q 7408  13.113   8.623   8.716
    1HEX    C0R 7409  13.146   8.479   8.763
    1HEX    O0S 7410  13.287   8.455   8.759
    1HEX    C0T 7411  13.358   8.446   8.874
    1HEX    O0U 7412  13.313   8.454   8.988
    1HEX    C0V 7413  13.507   8.423   8.849
    1HEX    C0W 7414  13.589   8.553   8.839
    1HEX    C0Y 7415  13.203   8.725   8.789
    1HEX    O0Z 7416  13.181   8.720   8.929
    1HEX    C10 7417  13.267   8.778   9.011
    1HEX    O11 7418  13.368   8.841   8.977
    1HEX    C12 7419  13.228   8.760   9.157
    1HEX    C13 7420  13.335   8.811   9.254
    1HEX    C15 7421  12.965   8.661   8.747
    1HEX    O16 7422  12.927   8.642   8.883
    1HEX    C17 7423  12.853   8.536   8.919
    1HEX    O18 7424  12.819   8.443   8.846
    1HEX    C19 7425  12.808   8.543   9.064
    1HEX    C1A 7426  12.726   8.671   9.088
    1HEX    H1C 7427  13.568   8.569   7.915
    1HEX    H1D 7428  13.331   8.475   7.977
    1HEX    H1E 7429  13.324   8.650   7.970
    1HEX    H1F 7430  13.330   8.656   8.225
    1HEX    H1G 7431  13.327   8.481   8.227
    1HEX    H1H 7432  12.903   8.629   8.138
    1HEX    H1I 7433  12.926   8.800   8.152
    1HEX    H1J 7434  13.055   8.848   8.388
    1HEX    H1K 7435  12.948   8.817   8.522
    1HEX    H1M 7436  12.713   9.189   8.392
    1HEX    H1N 7437  12.887   9.193   8.376
    1HEX    H1O 7438  12.894   9.208   8.640
    1HEX    H1P 7439  12.725   9.249   8.629
    1HEX    H1Q 7440  12.992   9.397   8.500
    1HEX    H1R 7441  12.706   8.788   8.292
    1HEX    H1S 7442  12.707   8.710   8.446
    1HEX    H1T 7443  12.728   8.380   8.134
    1HEX    H1U 7444  12.628   8.439   8.003
    1HEX    H1V 7445  12.422   8.412   8.146
    1HEX    H1W 7446  12.522   8.355   8.279
    1HEX    H1X 7447  12.494   8.224   7.975
    1HEX    H1Y 7448  12.933   8.490   8.350
    1HEX    H1Z 7449  12.877   8.544   8.498
    1HEX    H20 7450  13.155   8.740   8.535
    1HEX    H21 7451  13.253   8.604   8.555
    1HEX    H22 7452  13.095   8.406   8.701
    1HEX    H23 7453  13.107   8.463   8.864
    1HEX    H24 7454  13.516   8.366   8.757
    1HEX    H25 7455  13.546   8.359   8.929
    1HEX    H26 7456  13.541   8.625   8.773
    1HEX    H27 7457  13.687   8.531   8.797
    1HEX    H28 7458  13.499   8.700   9.003
    1HEX    H29 7459  13.184   8.827   8.756
    1HEX    H2A 7460  13.308   8.706   8.768
    1HEX    H2B 7461  13.209   8.654   9.173
    1HEX    H2C 7462  13.134   8.812   9.172
    1HEX    H2D 7463  13.367   8.912   9.228
    1HEX    H2E 7464  13.424   8.748   9.248
    1HEX    H2F 7465  13.172   8.900   9.403
    1HEX    H2G 7466  12.894   8.609   8.685
    1HEX    H2H 7467  12.948   8.767   8.729
    1HEX    H2I 7468  12.897   8.542   9.128
    1HEX    H2J 7469  12.751   8.454   9.088
    1HEX    H2K 7470  12.640   8.673   9.021
    1HEX    H2M 7471  12.786   8.759   9.066
    1HEX    H2N 7472  12.586   8.573   9.255
    1STR    S00 7473  13.541   8.575   8.046
    1STR    S0E 7474  12.865   9.421   8.534
    1STR    S0M 7475  12.510   8.191   8.104
    1STR    S0X 7476  13.614   8.630   9.002
    1STR    S14 7477  13.268   8.809   9.423
    1STR    S1B 7478  12.670   8.677   9.261
    1HEX    C01 7479  13.351   8.567  12.385
    1HEX    C02 7480  13.287   8.569  12.524
    1HEX    C03 7481  13.136   8.550  12.515
    1HEX    O04 7482  13.087   8.442  12.482
    1HEX    O05 7483  13.068   8.661  12.549
    1HEX    C06 7484  12.928   8.654  12.571
    1HEX    C07 7485  12.897   8.652  12.723
    1HEX    C08 7486  12.929   8.793  12.778
    1HEX    O09 7487  12.845   8.902  12.741
    1HEX    C0A 7488  12.805   8.987  12.839
    1HEX    O0B 7489  12.780   8.953  12.955
    1HEX    C0C 7490  12.802   9.133  12.797
    1HEX    C0D 7491  12.815   9.227  12.919
    1HEX    C0F 7492  12.748   8.615  12.747
    1HEX    O0G 7493  12.733   8.472  12.745
    1HEX    C0H 7494  12.697   8.407  12.634
    1HEX    O0I 7495  12.645   8.460  12.535
    1HEX    C0J 7496  12.734   8.258  12.632
    1HEX    C0K 7497  12.742   8.183  12.769
    1HEX    C0N 7498  12.982   8.543  12.799
    1HEX    O0O 7499  13.120   8.568  12.826
    1HEX    C0P 7500  13.166   8.655  12.930
    1HEX    C0Q 7501  13.124   8.634  13.080
    1HEX    C0R 7502  13.154   8.487  13.121
    1HEX    O0S 7503  13.294   8.460  13.119
    1HEX    C0T 7504  13.363   8.447  13.234
    1HEX    O0U 7505  13.316   8.452  13.348
    1HEX    C0V 7506  13.511   8.422  13.211
    1HEX    C0W 7507  13.594   8.552  13.200
    1HEX    C0Y 7508  13.214   8.731  13.160
    1HEX    O0Z 7509  13.189   8.722  13.299
    1HEX    C10 7510  13.272   8.781  13.384
    1HEX    O11 7511  13.371   8.847  13.352
    1HEX    C12 7512  13.230   8.760  13.528
    1HEX    C13 7513  13.335   8.811  13.627
    1HEX    C15 7514  12.976   8.675  13.110
    1HEX    O16 7515  12.934   8.648  13.243
    1HEX    C17 7516  12.855   8.543  13.270
    1HEX    O18 7517  12.819   8.457  13.190
    1HEX    C19 7518  12.809   8.543  13.415
    1HEX    C1A 7519  12.726   8.669  13.443
    1HEX    H1C 7520  13.561   8.573  12.274
    1HEX    H1D 7521  13.326   8.475  12.333
    1HEX    H1E 7522  13.313   8.650  12.325
    1HEX    H1F 7523  13.308   8.661  12.577
    1HEX    H1G 7524  13.326   8.487  12.586
    1HEX    H1H 7525  12.884   8.568  12.520
    1HEX    H1I 7526  12.882   8.741  12.524
    1HEX    H1J 7527  13.028   8.822  12.744
    1HEX    H1K 7528  12.934   8.787  12.885
    1HEX    H1M 7529  12.712   9.155  12.740
    1HEX    H1N 7530  12.886   9.149  12.729
    1HEX    H1O 7531  12.891   9.191  12.988
    1HEX    H1P 7532  12.721   9.230  12.974
    1HEX    H1Q 7533  12.990   9.374  12.846
    1HEX    H1R 7534  12.682   8.664  12.675
    1HEX    H1S 7535  12.715   8.650  12.844
    1HEX    H1T 7536  12.831   8.254  12.582
    1HEX    H1U 7537  12.665   8.207  12.565
    1HEX    H1V 7538  12.656   8.116  12.779
    1HEX    H1W 7539  12.739   8.250  12.854
    1HEX    H1Y 7540  12.983   8.455  12.735
    1HEX    H1Z 7541  12.933   8.505  12.888
    1HEX    H20 7542  13.155   8.760  12.903
    1HEX    H21 7543  13.274   8.641  12.926
    1HEX    H22 7544  13.103   8.418  13.054
    1HEX    H23 7545  13.112   8.466  13.220
    1HEX    H24 7546  13.520   8.364  13.120
    1HEX    H25 7547  13.549   8.360  13.292
    1HEX    H26 7548  13.546   8.623  13.131
    1HEX    H27 7549  13.692   8.529  13.159
    1HEX    H28 7550  13.501   8.698  13.364
    1HEX    H29 7551  13.198   8.835  13.130
    1HEX    H2A 7552  13.319   8.711  13.142
    1HEX    H2B 7553  13.212   8.654  13.543
    1HEX    H2C 7554  13.135   8.811  13.542
    1HEX    H2D 7555  13.367   8.913  13.602
    1HEX    H2E 7556  13.425   8.749  13.622
    1HEX    H2F 7557  13.170   8.900  13.773
    1HEX    H2G 7558  12.904   8.632  13.042
    1HEX    H2H 7559  12.965   8.782  13.099
    1HEX    H2I 7560  12.897   8.539  13.479
    1HEX    H2J 7561  12.751   8.453  13.433
    1HEX    H2K 7562  12.638   8.674  13.378
    1HEX    H2M 7563  12.785   8.759  13.423
    1HEX    H2N 7564  12.589   8.569  13.611
    1STR    S00 7565  13.531   8.581  12.404
    1STR    S0E 7566  12.859   9.395  12.866
    1STR    S0M 7567  12.895   8.082  12.775
    1STR    S0X 7568  13.618   8.632  13.361
    1STR    S14 7569  13.266   8.809  13.795
    1STR    S1B 7570  12.674   8.672  13.617
    1HEX    C01 7571  13.360  12.926  16.749
    1HEX    C02 7572  13.298  12.929  16.889
    1HEX    C03 7573  13.146  12.930  16.879
    1HEX    O04 7574  13.084  12.831  16.842
    1HEX    O05 7575  13.093  13.049  16.913
    1HEX    C06 7576  12.952  13.065  16.919
    1HEX    C07 7577  12.902  13.062  17.065
    1HEX    C08 7578  12.951  13.191  17.135
    1HEX    O09 7579  12.884  13.311  17.099
    1HEX    C0A 7580  12.816  13.379  17.194
    1HEX    O0B 7581  12.771  13.330  17.298
    1HEX    C0C 7582  12.806  13.528  17.164
    1HEX    C0D 7583  12.819  13.610  17.294
    1HEX    C0F 7584  12.746  13.061  17.065
    1HEX    O0G 7585  12.700  12.938  17.009
    1HEX    C0H 7586  12.646  12.935  16.886
    1HEX    O0I 7587  12.613  13.032  16.819
    1HEX    C0J 7588  12.635  12.793  16.831
    1HEX    C0K 7589  12.514  12.720  16.890
    1HEX    C0N 7590  12.947  12.932  17.141
    1HEX    O0O 7591  13.084  12.915  17.184
    1HEX    C0P 7592  13.149  12.996  17.284
    1HEX    C0Q 7593  13.113  12.983  17.436
    1HEX    C0R 7594  13.146  12.839   0.043
    1HEX    O0S 7595  13.287  12.815   0.039
    1HEX    C0T 7596  13.358  12.806   0.154
    1HEX    O0U 7597  13.313  12.814   0.268
    1HEX    C0V 7598  13.507  12.783   0.129
    1HEX    C0W 7599  13.589  12.913   0.119
    1HEX    C0Y 7600  13.203  13.085   0.069
    1HEX    O0Z 7601  13.181  13.080   0.209
    1HEX    C10 7602  13.267  13.139   0.291
    1HEX    O11 7603  13.368  13.201   0.257
    1HEX    C12 7604  13.228  13.120   0.437
    1HEX    C13 7605  13.335  13.171   0.534
    1HEX    C15 7606  12.965  13.021   0.027
    1HEX    O16 7607  12.927  13.002   0.163
    1HEX    C17 7608  12.853  12.896   0.199
    1HEX    O18 7609  12.819  12.803   0.126
    1HEX    C19 7610  12.808  12.903   0.344
    1HEX    C1A 7611  12.726  13.031   0.368
    1HEX    H1C 7612  13.568  12.929  16.635
    1HEX    H1D 7613  13.331  12.835  16.697
    1HEX    H1E 7614  13.324  13.010  16.690
    1HEX    H1F 7615  13.330  13.016  16.945
    1HEX    H1G 7616  13.327  12.841  16.947
    1HEX    H1H 7617  12.903  12.989  16.858
    1HEX    H1I 7618  12.926  13.160  16.872
    1HEX    H1J 7619  13.055  13.208  17.108
    1HEX    H1K 7620  12.948  13.177  17.242
    1HEX    H1M 7621  12.713  13.549  17.112
    1HEX    H1N 7622  12.887  13.553  17.096
    1HEX    H1O 7623  12.894  13.568  17.360
    1HEX    H1P 7624  12.725  13.609  17.349
    1HEX    H1Q 7625  12.992  13.758  17.220
    1HEX    H1R 7626  12.706  13.148  17.012
    1HEX    H1S 7627  12.707  13.070  17.166
    1HEX    H1T 7628  12.728  12.740  16.854
    1HEX    H1U 7629  12.628  12.799  16.723
    1HEX    H1V 7630  12.422  12.772  16.866
    1HEX    H1W 7631  12.522  12.715  16.999
    1HEX    H1X 7632  12.494  12.584  16.695
    1HEX    H1Y 7633  12.933  12.850  17.070
    1HEX    H1Z 7634  12.877  12.904  17.218
    1HEX    H20 7635  13.155  13.100  17.255
    1HEX    H21 7636  13.253  12.964  17.275
    1HEX    H22 7637  13.095  12.766  17.421
    1HEX    H23 7638  13.107  12.823   0.144
    1HEX    H24 7639  13.516  12.726   0.037
    1HEX    H25 7640  13.546  12.720   0.209
    1HEX    H26 7641  13.541  12.985   0.053
    1HEX    H27 7642  13.687  12.892   0.077
    1HEX    H28 7643  13.500  13.061   0.283
    1HEX    H29 7644  13.184  13.188   0.036
    1HEX    H2A 7645  13.308  13.066   0.048
    1HEX    H2B 7646  13.209  13.014   0.453
    1HEX    H2C 7647  13.134  13.173   0.452
    1HEX    H2D 7648  13.366  13.273   0.508
    1HEX    H2E 7649  13.425  13.108   0.528
    1HEX    H2F 7650  13.172  13.260   0.683
    1HEX    H2G 7651  12.894  12.969  17.405
    1HEX    H2H 7652  12.948  13.127   0.009
    1HEX    H2I 7653  12.897  12.902   0.408
    1HEX    H2J 7654  12.751  12.814   0.368
    1HEX    H2K 7655  12.640  13.034   0.301
    1HEX    H2M 7656  12.786  13.119   0.346
    1HEX    H2N 7657  12.586  12.933   0.535
    1STR    S00 7658  13.541  12.935  16.766
    1STR    S0E 7659  12.865  13.782  17.254
    1STR    S0M 7660  12.510  12.551  16.824
    1STR    S0X 7661  13.614  12.991   0.282
    1STR    S14 7662  13.268  13.169   0.703
    1STR    S1B 7663  12.670  13.037   0.540
    1HEX    C01 7664  13.360  12.926   3.669
    1HEX    C02 7665  13.298  12.929   3.809
    1HEX    C03 7666  13.146  12.930   3.799
    1HEX    O04 7667  13.084  12.831   3.762
    1HEX    O05 7668  13.093  13.049   3.833
    1HEX    C06 7669  12.952  13.065   3.839
    1HEX    C07 7670  12.902  13.062   3.985
    1HEX    C08 7671  12.951  13.191   4.055
    1HEX    O09 7672  12.884  13.311   4.019
    1HEX    C0A 7673  12.816  13.379   4.114
    1HEX    O0B 7674  12.771  13.330   4.218
    1HEX    C0C 7675  12.806  13.528   4.084
    1HEX    C0D 7676  12.819  13.610   4.214
    1HEX    C0F 7677  12.746  13.061   3.985
    1HEX    O0G 7678  12.700  12.938   3.929
    1HEX    C0H 7679  12.646  12.935   3.806
    1HEX    O0I 7680  12.613  13.032   3.739
    1HEX    C0J 7681  12.635  12.793   3.751
    1HEX    C0K 7682  12.514  12.720   3.810
    1HEX    C0N 7683  12.947  12.932   4.061
    1HEX    O0O 7684  13.084  12.915   4.104
    1HEX    C0P 7685  13.149  12.996   4.204
    1HEX    C0Q 7686  13.113  12.983   4.356
    1HEX    C0R 7687  13.146  12.839   4.403
    1HEX    O0S 7688  13.287  12.815   4.399
    1HEX    C0T 7689  13.358  12.806   4.514
    1HEX    O0U 7690  13.313  12.814   4.628
    1HEX    C0V 7691  13.507  12.783   4.489
    1HEX    C0W 7692  13.589  12.913   4.479
    1HEX    C0Y 7693  13.203  13.085   4.429
    1HEX    O0Z 7694  13.181  13.080   4.569
    1HEX    C10 7695  13.267  13.139   4.651
    1HEX    O11 7696  13.368  13.201   4.617
    1HEX    C12 7697  13.228  13.120   4.797
    1HEX    C13 7698  13.335  13.171   4.894
    1HEX    C15 7699  12.965  13.021   4.387
    1HEX    O16 7700  12.927  13.002   4.523
    1HEX    C17 7701  12.853  12.896   4.559
    1HEX    O18 7702  12.819  12.803   4.486
    1HEX    C19 7703  12.808  12.903   4.704
    1HEX    C1A 7704  12.726  13.031   4.728
    1HEX    H1C 7705  13.568  12.929   3.555
    1HEX    H1D 7706  13.331  12.835   3.617
    1HEX    H1E 7707  13.324  13.010   3.610
    1HEX    H1F 7708  13.330  13.016   3.865
    1HEX    H1G 7709  13.327  12.841   3.867
    1HEX    H1H 7710  12.903  12.989   3.778
    1HEX    H1I 7711  12.926  13.160   3.792
    1HEX    H1J 7712  13.055  13.208   4.028
    1HEX    H1K 7713  12.948  13.177   4.162
    1HEX    H1M 7714  12.713  13.549   4.032
    1HEX    H1N 7715  12.887  13.553   4.016
    1HEX    H1O 7716  12.894  13.568   4.280
    1HEX    H1P 7717  12.725  13.609   4.269
    1HEX    H1Q 7718  12.992  13.758   4.140
    1HEX    H1R 7719  12.706  13.148   3.932
    1HEX    H1S 7720  12.707  13.070   4.086
    1HEX    H1T 7721  12.728  12.740   3.774
    1HEX    H1U 7722  12.628  12.799   3.643
    1HEX    H1V 7723  12.422  12.772   3.786
    1HEX    H1W 7724  12.522  12.715   3.919
    1HEX    H1X 7725  12.494  12.584   3.615
    1HEX    H1Y 7726  12.933  12.850   3.990
    1HEX    H1Z 7727  12.877  12.904   4.138
    1HEX    H20 7728  13.155  13.100   4.175
    1HEX    H21 7729  13.253  12.964   4.195
    1HEX    H22 7730  13.095  12.766   4.341
    1HEX    H23 7731  13.107  12.823   4.504
    1HEX    H24 7732  13.516  12.726   4.397
    1HEX    H25 7733  13.546  12.720   4.569
    1HEX    H26 7734  13.541  12.985   4.413
    1HEX    H27 7735  13.687  12.892   4.437
    1HEX    H28 7736  13.499  13.061   4.643
    1HEX    H29 7737  13.184  13.188   4.396
    1HEX    H2A 7738  13.308  13.066   4.408
    1HEX    H2B 7739  13.209  13.014   4.813
    1HEX    H2C 7740  13.134  13.173   4.812
    1HEX    H2D 7741  13.366  13.273   4.868
    1HEX    H2E 7742  13.424  13.108   4.888
    1HEX    H2F 7743  13.172  13.260   5.043
    1HEX    H2G 7744  12.894  12.969   4.325
    1HEX    H2H 7745  12.948  13.127   4.369
    1HEX    H2I 7746  12.897  12.902   4.768
    1HEX    H2J 7747  12.751  12.814   4.728
    1HEX    H2K 7748  12.640  13.034   4.661
    1HEX    H2M 7749  12.786  13.119   4.706
    1HEX    H2N 7750  12.586  12.933   4.895
    1STR    S00 7751  13.541  12.935   3.686
    1STR    S0E 7752  12.865  13.782   4.174
    1STR    S0M 7753  12.510  12.551   3.744
    1STR    S0X 7754  13.614  12.991   4.642
    1STR    S14 7755  13.268  13.169   5.063
    1STR    S1B 7756  12.670  13.037   4.900
    1HEX    C01 7757  13.350  12.931   8.038
    1HEX    C02 7758  13.293  12.939   8.180
    1HEX    C03 7759  13.141  12.941   8.177
    1HEX    O04 7760  13.077  12.841   8.143
    1HEX    O05 7761  13.089  13.061   8.210
    1HEX    C06 7762  12.948  13.080   8.210
    1HEX    C07 7763  12.889  13.090   8.353
    1HEX    C08 7764  12.929  13.224   8.416
    1HEX    O09 7765  12.856  13.340   8.377
    1HEX    C0A 7766  12.792  13.408   8.473
    1HEX    O0B 7767  12.742  13.359   8.574
    1HEX    C0C 7768  12.796  13.558   8.452
    1HEX    C0D 7769  12.827  13.631   8.584
    1HEX    C0F 7770  12.734  13.079   8.342
    1HEX    O0G 7771  12.698  12.951   8.290
    1HEX    C0H 7772  12.644  12.939   8.167
    1HEX    O0I 7773  12.604  13.032   8.097
    1HEX    C0J 7774  12.639  12.795   8.118
    1HEX    C0K 7775  12.517  12.721   8.173
    1HEX    C0N 7776  12.936  12.976   8.448
    1HEX    O0O 7777  13.074  12.970   8.491
    1HEX    C0P 7778  13.137  13.063   8.582
    1HEX    C0Q 7779  13.110  13.058   8.737
    1HEX    C0R 7780  13.248  13.089   8.803
    1HEX    O0S 7781  13.290  13.220   8.757
    1HEX    C0T 7782  13.347  13.313   8.840
    1HEX    O0U 7783  13.382  13.291   8.955
    1HEX    C0V 7784  13.372  13.450   8.772
    1HEX    C0W 7785  13.337  13.579   8.855
    1HEX    C0Y 7786  13.014  13.170   8.788
    1HEX    O0Z 7787  13.004  13.158   8.930
    1HEX    C10 7788  13.057  13.246   9.017
    1HEX    O11 7789  13.086  13.363   8.992
    1HEX    C12 7790  13.080  13.184   9.154
    1HEX    C13 7791  13.221  13.211   9.211
    1HEX    C15 7792  13.050  12.917   8.772
    1HEX    O16 7793  13.002  12.903   8.906
    1HEX    C17 7794  12.877  12.854   8.928
    1HEX    O18 7795  12.804  12.801   8.845
    1HEX    C19 7796  12.826  12.878   9.070
    1HEX    C1A 7797  12.743  13.007   9.075
    1HEX    H1C 7798  13.554  12.930   7.917
    1HEX    H1D 7799  13.320  12.838   7.990
    1HEX    H1E 7800  13.312  13.014   7.977
    1HEX    H1F 7801  13.328  13.028   8.232
    1HEX    H1G 7802  13.324  12.853   8.239
    1HEX    H1H 7803  12.900  13.001   8.152
    1HEX    H1I 7804  12.926  13.171   8.154
    1HEX    H1J 7805  13.032  13.246   8.388
    1HEX    H1K 7806  12.927  13.214   8.524
    1HEX    H1M 7807  12.703  13.592   8.407
    1HEX    H1N 7808  12.875  13.578   8.379
    1HEX    H1O 7809  12.898  13.574   8.644
    1HEX    H1P 7810  12.736  13.640   8.644
    1HEX    H1Q 7811  13.014  13.753   8.502
    1HEX    H1R 7812  12.694  13.161   8.282
    1HEX    H1S 7813  12.688  13.091   8.440
    1HEX    H1T 7814  12.732  12.745   8.146
    1HEX    H1U 7815  12.637  12.797   8.009
    1HEX    H1V 7816  12.425  12.773   8.146
    1HEX    H1W 7817  12.522  12.716   8.282
    1HEX    H1X 7818  12.497  12.586   7.976
    1HEX    H1Y 7819  12.920  12.881   8.396
    1HEX    H1Z 7820  12.869  12.970   8.534
    1HEX    H20 7821  13.141  13.165   8.547
    1HEX    H21 7822  13.241  13.033   8.567
    1HEX    H22 7823  13.323  13.014   8.776
    1HEX    H23 7824  13.242  13.083   8.911
    1HEX    H24 7825  13.319  13.450   8.677
    1HEX    H25 7826  13.478  13.451   8.746
    1HEX    H26 7827  13.430  13.624   8.890
    1HEX    H27 7828  13.283  13.552   8.946
    1HEX    H29 7829  12.914  13.160   8.746
    1HEX    H2A 7830  13.049  13.269   8.760
    1HEX    H2B 7831  13.065  13.076   9.148
    1HEX    H2C 7832  13.003  13.222   9.221
    1HEX    H2D 7833  13.251  13.315   9.195
    1HEX    H2E 7834  13.296  13.149   9.161
    1HEX    H2F 7835  13.146  13.277   9.427
    1HEX    H2G 7836  13.118  12.836   8.747
    1HEX    H2H 7837  12.966  12.901   8.705
    1HEX    H2I 7838  12.911  12.881   9.138
    1HEX    H2J 7839  12.765  12.792   9.099
    1HEX    H2K 7840  12.655  13.000   9.011
    1HEX    H2M 7841  12.801  13.091   9.039
    1HEX    H2N 7842  12.598  12.947   9.255
    1STR    S00 7843  13.531  12.940   8.048
    1STR    S0E 7844  12.898  13.795   8.551
    1STR    S0M 7845  12.514  12.552   8.105
    1STR    S0X 7846  13.243  13.713   8.765
    1STR    S14 7847  13.222  13.175   9.389
    1STR    S1B 7848  12.693  13.041   9.246
    1HEX    C01 7849  13.347  12.936  12.398
    1HEX    C02 7850  13.285  12.950  12.538
    1HEX    C03 7851  13.136  12.974  12.529
    1HEX    O04 7852  13.060  12.888  12.482
    1HEX    O05 7853  13.099  13.096  12.574
    1HEX    C06 7854  12.962  13.133  12.576
    1HEX    C07 7855  12.899  13.125  12.718
    1HEX    C08 7856  12.943  13.247  12.807
    1HEX    O09 7857  12.909  13.386  12.781
    1HEX    C0A 7858  12.939  13.480  12.881
    1HEX    O0B 7859  12.960  13.449  12.998
    1HEX    C0C 7860  12.949  13.629  12.837
    1HEX    C0D 7861  12.907  13.739  12.943
    1HEX    C0F 7862  12.744  13.120  12.701
    1HEX    O0G 7863  12.704  12.991  12.651
    1HEX    C0H 7864  12.653  12.974  12.528
    1HEX    O0I 7865  12.614  13.063  12.454
    1HEX    C0J 7866  12.651  12.827  12.484
    1HEX    C0K 7867  12.529  12.751  12.538
    1HEX    C0N 7868  12.936  12.987  12.785
    1HEX    O0O 7869  13.069  12.951  12.826
    1HEX    C0P 7870  13.145  13.017  12.928
    1HEX    C0Q 7871  13.113  12.995  13.079
    1HEX    C0R 7872  13.147  12.849  13.119
    1HEX    O0S 7873  13.288  12.824  13.115
    1HEX    C0T 7874  13.358  12.809  13.230
    1HEX    O0U 7875  13.312  12.812  13.344
    1HEX    C0V 7876  13.506  12.785  13.206
    1HEX    C0W 7877  13.589  12.915  13.199
    1HEX    C0Y 7878  13.205  13.093  13.156
    1HEX    O0Z 7879  13.185  13.083  13.295
    1HEX    C10 7880  13.272  13.139  13.378
    1HEX    O11 7881  13.373  13.201  13.344
    1HEX    C12 7882  13.232  13.120  13.523
    1HEX    C13 7883  13.338  13.172  13.620
    1HEX    C15 7884  12.966  13.029  13.115
    1HEX    O16 7885  12.930  13.006  13.251
    1HEX    C17 7886  12.855  12.900  13.285
    1HEX    O18 7887  12.820  12.808  13.210
    1HEX    C19 7888  12.810  12.905  13.430
    1HEX    C1A 7889  12.726  13.031  13.454
    1HEX    H1C 7890  13.554  12.923  12.283
    1HEX    H1D 7891  13.311  12.845  12.349
    1HEX    H1E 7892  13.317  13.020  12.335
    1HEX    H1F 7893  13.330  13.032  12.592
    1HEX    H1G 7894  13.302  12.859  12.597
    1HEX    H1H 7895  12.906  13.072  12.505
    1HEX    H1I 7896  12.952  13.235  12.537
    1HEX    H1J 7897  13.051  13.252  12.803
    1HEX    H1K 7898  12.914  13.225  12.909
    1HEX    H1M 7899  12.885  13.639  12.750
    1HEX    H1N 7900  13.050  13.647  12.802
    1HEX    H1O 7901  12.860  13.686  13.026
    1HEX    H1P 7902  12.828  13.802  12.902
    1HEX    H1R 7903  12.708  13.201  12.637
    1HEX    H1S 7904  12.695  13.134  12.797
    1HEX    H1T 7905  12.743  12.779  12.515
    1HEX    H1U 7906  12.651  12.825  12.375
    1HEX    H1V 7907  12.436  12.800  12.508
    1HEX    H1W 7908  12.531  12.748  12.647
    1HEX    H1X 7909  12.509  12.609  12.345
    1HEX    H1Y 7910  12.918  12.910  12.710
    1HEX    H1Z 7911  12.862  12.959  12.860
    1HEX    H20 7912  13.158  13.122  12.907
    1HEX    H21 7913  13.246  12.978  12.913
    1HEX    H22 7914  13.096  12.779  13.052
    1HEX    H23 7915  13.108  12.826  13.218
    1HEX    H24 7916  13.516  12.730  13.112
    1HEX    H25 7917  13.544  12.720  13.284
    1HEX    H26 7918  13.542  12.988  13.134
    1HEX    H27 7919  13.688  12.893  13.156
    1HEX    H28 7920  13.503  13.061  13.365
    1HEX    H29 7921  13.185  13.197  13.127
    1HEX    H2A 7922  13.309  13.075  13.132
    1HEX    H2B 7923  13.213  13.014  13.539
    1HEX    H2C 7924  13.137  13.172  13.537
    1HEX    H2D 7925  13.368  13.274  13.594
    1HEX    H2E 7926  13.427  13.110  13.615
    1HEX    H2F 7927  13.172  13.261  13.767
    1HEX    H2G 7928  12.896  12.974  13.053
    1HEX    H2H 7929  12.947  13.135  13.098
    1HEX    H2I 7930  12.898  12.904  13.493
    1HEX    H2J 7931  12.753  12.815  13.452
    1HEX    H2K 7932  12.641  13.035  13.385
    1HEX    H2M 7933  12.786  13.121  13.434
    1HEX    H2N 7934  12.585  12.930  13.616
    1STR    S00 7935  13.528  12.932  12.414
    1STR    S0E 7936  13.031  13.852  13.027
    1STR    S0M 7937  12.530  12.581  12.474
    1STR    S0X 7938  13.615  12.988  13.363
    1STR    S14 7939  13.269  13.171  13.788
    1STR    S1B 7940  12.667  13.035  13.625
  17.44000  17.44000  17.44000
