My System
 7940
    1STR   BCK1    1   0.727   4.262   4.564
    1STR    O03    2   0.719   4.348   4.651
    1STR    N04    3   0.846   4.262   4.496
    1STR    C05    4   0.941   4.178   4.429
    1STR    C06    5   1.083   4.201   4.454
    1STR    C07    6   1.192   4.126   4.394
    1STR    N08    7   1.333   4.152   4.416
    1STR    C09    8   1.445   4.079   4.382
    1STR    O0A    9   1.437   3.969   4.329
    1STR    O0B   10   1.572   4.137   4.409
    1STR    C0C   11   1.699   4.072   4.364
    1STR    C0D   12   1.715   4.095   4.213
    1STR    C0E   13   1.836   4.110   4.437
    1STR    O0F   14   1.959   4.046   4.385
    1STR    C0G   15   2.088   4.067   4.453
    1STR    C0H   16   2.086   3.988   4.585
    1STR    C0I   17   2.219   4.027   4.372
    1STR    O0J   18   2.347   4.056   4.438
    1STR    C0K   19   2.473   4.014   4.375
    1STR    C0M   20   2.496   4.090   4.244
    1STR    C0N   21   2.603   4.034   4.463
    1STR    O0O   22   2.723   3.975   4.406
    1STR    C0P   23   2.843   4.043   4.390
    1STR    O0Q   24   2.858   4.164   4.407
    1STR    N0R   25   2.942   3.958   4.357
    1STR    C0S   26   3.081   3.970   4.329
    1STR    C0T   27   3.156   3.852   4.348
    1STR    C0U   28   3.294   3.848   4.323
    1STR    C0V   29   3.363   3.961   4.275
    1STR    C0W   30   3.514   3.950   4.264
    1STR    C0X   31   3.291   4.081   4.249
    1STR    N0Y   32   3.362   4.197   4.213
    1STR   BCK2   33   3.462   4.227   4.126
    1STR    O10   34   3.534   4.323   4.151
    1STR    C13   35   3.151   4.085   4.280
    1STR    C14   36   1.151   4.025   4.304
    1STR    C15   37   1.015   4.002   4.275
    1STR    C16   38   0.911   4.077   4.333
    1STR    C17   39   0.773   4.051   4.277
    1STR    H1B   40   0.886   4.351   4.519
    1STR    H1C   41   1.109   4.280   4.523
    1STR    H1D   42   1.357   4.238   4.463
    1STR    H1E   43   1.685   3.965   4.380
    1STR    H1F   44   1.731   4.200   4.190
    1STR    H1G   45   1.800   4.039   4.175
    1STR    H1H   46   1.627   4.061   4.157
    1STR    H1I   47   1.825   4.087   4.542
    1STR    H1J   48   1.850   4.218   4.431
    1STR    H1K   49   2.097   4.174   4.475
    1STR    H1M   50   2.072   3.881   4.566
    1STR    H1N   51   2.008   4.021   4.653
    1STR    H1O   52   2.181   3.999   4.638
    1STR    H1P   53   2.215   3.920   4.349
    1STR    H1Q   54   2.217   4.078   4.276
    1STR    H1R   55   2.465   3.907   4.353
    1STR    H1S   56   2.591   4.061   4.198
    1STR    H1T   57   2.501   4.197   4.262
    1STR    H1U   58   2.418   4.071   4.170
    1STR    H1V   59   2.587   3.987   4.560
    1STR    H1W   60   2.619   4.140   4.484
    1STR    H1X   61   2.906   3.865   4.358
    1STR    H1Y   62   3.109   3.762   4.386
    1STR    H1Z   63   3.348   3.756   4.342
    1STR    H20   64   3.542   3.929   4.161
    1STR    H21   65   3.563   4.042   4.297
    1STR    H22   66   3.554   3.869   4.325
    1STR    H23   67   3.341   4.278   4.269
    1STR    H27   68   3.096   4.176   4.267
    1STR    H28   69   1.222   3.964   4.252
    1STR    H29   70   0.991   3.925   4.203
    1STR    H2A   71   0.697   4.114   4.320
    1STR    H2B   72   0.746   3.946   4.290
    1STR    H2C   73   0.773   4.072   4.170
    1STR   BCK1   74   0.726   4.546   8.602
    1STR    O03   75   0.674   4.474   8.686
    1STR    N04   76   0.864   4.550   8.603
    1STR    C05   77   0.982   4.617   8.553
    1STR    C06   78   1.117   4.561   8.569
    1STR    C07   79   1.241   4.631   8.537
    1STR    N08   80   1.377   4.577   8.550
    1STR    C09   81   1.502   4.636   8.533
    1STR    O0A   82   1.513   4.755   8.507
    1STR    O0B   83   1.623   4.556   8.546
    1STR    C0C   84   1.760   4.617   8.539
    1STR    C0D   85   1.784   4.696   8.668
    1STR    C0E   86   1.894   4.528   8.510
    1STR    O0F   87   2.028   4.596   8.510
    1STR    C0G   88   2.155   4.524   8.476
    1STR    C0H   89   2.149   4.492   8.326
    1STR    C0I   90   2.297   4.597   8.508
    1STR    O0J   91   2.428   4.524   8.494
    1STR    C0K   92   2.560   4.591   8.520
    1STR    C0M   93   2.559   4.644   8.664
    1STR    C0N   94   2.699   4.510   8.501
    1STR    O0O   95   2.827   4.581   8.528
    1STR    C0P   96   2.953   4.517   8.551
    1STR    O0Q   97   2.967   4.396   8.563
    1STR    N0R   98   3.058   4.605   8.554
    1STR    C0S   99   3.203   4.604   8.564
    1STR    C0T  100   3.265   4.701   8.484
    1STR    C0U  101   3.403   4.728   8.492
    1STR    C0V  102   3.487   4.661   8.583
    1STR    C0W  103   3.630   4.711   8.592
    1STR    C0X  104   3.434   4.558   8.666
    1STR    N0Y  105   3.510   4.495   8.770
    1STR   BCK2  106   3.636   4.477   8.823
    1STR    O10  107   3.640   4.430   8.936
    1STR    C13  108   3.291   4.531   8.653
    1STR    C14  109   1.222   4.761   8.487
    1STR    C15  110   1.094   4.818   8.469
    1STR    C16  111   0.976   4.749   8.500
    1STR    C17  112   0.846   4.823   8.478
    1STR    H1B  113   0.888   4.481   8.672
    1STR    H1C  114   1.124   4.462   8.610
    1STR    H1D  115   1.385   4.480   8.577
    1STR    H1E  116   1.755   4.690   8.457
    1STR    H1F  117   1.791   4.630   8.755
    1STR    H1G  118   1.876   4.754   8.662
    1STR    H1H  119   1.704   4.768   8.687
    1STR    H1I  120   1.879   4.480   8.413
    1STR    H1J  121   1.898   4.447   8.582
    1STR    H1K  122   2.155   4.431   8.532
    1STR    H1M  123   2.137   4.583   8.266
    1STR    H1N  124   2.067   4.425   8.301
    1STR    H1O  125   2.241   4.443   8.292
    1STR    H1P  126   2.303   4.688   8.447
    1STR    H1Q  127   2.290   4.632   8.611
    1STR    H1R  128   2.565   4.677   8.452
    1STR    H1S  129   2.654   4.691   8.688
    1STR    H1T  130   2.544   4.562   8.735
    1STR    H1U  131   2.482   4.719   8.681
    1STR    H1V  132   2.705   4.474   8.398
    1STR    H1W  133   2.698   4.419   8.562
    1STR    H1X  134   3.021   4.696   8.537
    1STR    H1Y  135   3.208   4.759   8.414
    1STR    H1Z  136   3.444   4.805   8.430
    1STR    H20  137   3.657   4.731   8.696
    1STR    H21  138   3.698   4.638   8.548
    1STR    H22  139   3.645   4.805   8.538
    1STR    H23  140   3.450   4.447   8.835
    1STR    H27  141   3.246   4.456   8.716
    1STR    H28  142   1.304   4.825   8.460
    1STR    H29  143   1.089   4.919   8.432
    1STR    H2A  144   0.793   4.778   8.394
    1STR    H2B  145   0.862   4.928   8.452
    1STR    H2C  146   0.784   4.821   8.568
    1STR   BCK1  147   0.896  12.986  13.148
    1STR    O03  148   0.885  12.864  13.149
    1STR    N04  149   1.005  13.053  13.191
    1STR    C05  150   1.106  13.007  13.278
    1STR    C06  151   1.245  13.025  13.250
    1STR    C07  152   1.346  12.989  13.345
    1STR    N08  153   1.484  13.013  13.319
    1STR    C09  154   1.593  12.985  13.394
    1STR    O0A  155   1.590  12.929  13.503
    1STR    O0B  156   1.710  13.026  13.337
    1STR    C0C  157   1.836  12.993  13.401
    1STR    C0D  158   1.874  12.848  13.365
    1STR    C0E  159   1.950  13.092  13.363
    1STR    O0F  160   2.071  13.057  13.432
    1STR    C0G  161   2.185  13.141  13.409
    1STR    C0H  162   2.170  13.270  13.492
    1STR    C0I  163   2.315  13.065  13.447
    1STR    O0J  164   2.432  13.137  13.405
    1STR    C0K  165   2.559  13.075  13.430
    1STR    C0M  166   2.579  12.955  13.336
    1STR    C0N  167   2.672  13.178  13.407
    1STR    O0O  168   2.801  13.125  13.441
    1STR    C0P  169   2.899  13.109  13.349
    1STR    O0Q  170   2.888  13.125  13.228
    1STR    N0R  171   3.012  13.073  13.412
    1STR    C0S  172   3.142  13.042  13.370
    1STR    C0T  173   3.237  13.026  13.473
    1STR    C0U  174   3.368  12.988  13.444
    1STR    C0V  175   3.410  12.962  13.313
    1STR    C0W  176   3.550  12.907  13.294
    1STR    C0X  177   3.318  12.980  13.205
    1STR    N0Y  178   3.353  12.943  13.073
    1STR   BCK2  179   3.464  12.966  13.001
    1STR    O10  180   3.551  13.046  13.031
    1STR    C13  181   3.185  13.019  13.235
    1STR    C14  182   1.302  12.932  13.467
    1STR    C15  183   1.166  12.917  13.496
    1STR    C16  184   1.068  12.958  13.405
    1STR    C17  185   0.922  12.954  13.450
    1STR    H1B  186   1.002  13.152  13.175
    1STR    H1C  187   1.274  13.069  13.156
    1STR    H1D  188   1.508  13.057  13.232
    1STR    H1E  189   1.823  13.000  13.509
    1STR    H1F  190   1.888  12.836  13.258
    1STR    H1G  191   1.966  12.819  13.415
    1STR    H1H  192   1.797  12.778  13.397
    1STR    H1I  193   1.919  13.193  13.390
    1STR    H1J  194   1.966  13.091  13.256
    1STR    H1K  195   2.191  13.165  13.303
    1STR    H1M  196   2.157  13.247  13.598
    1STR    H1N  197   2.085  13.330  13.460
    1STR    H1O  198   2.259  13.332  13.482
    1STR    H1P  199   2.318  13.047  13.555
    1STR    H1Q  200   2.312  12.967  13.399
    1STR    H1R  201   2.563  13.042  13.534
    1STR    H1S  202   2.677  12.910  13.350
    1STR    H1T  203   2.572  12.985  13.232
    1STR    H1U  204   2.506  12.875  13.353
    1STR    H1V  205   2.655  13.265  13.470
    1STR    H1W  206   2.670  13.216  13.304
    1STR    H1X  207   2.995  13.070  13.511
    1STR    H1Y  208   3.210  13.042  13.576
    1STR    H1Z  209   3.438  12.975  13.526
    1STR    H20  210   3.553  12.831  13.216
    1STR    H21  211   3.618  12.988  13.266
    1STR    H22  212   3.588  12.861  13.385
    1STR    H23  213   3.283  12.890  13.023
    1STR    H27  214   3.113  13.032  13.156
    1STR    H28  215   1.370  12.900  13.544
    1STR    H29  216   1.137  12.877  13.592
    1STR    H2A  217   0.871  13.046  13.422
    1STR    H2B  218   0.915  12.946  13.558
    1STR    H2C  219   0.870  12.870  13.405
    1STR   BCK1  220   5.263   4.268   4.353
    1STR    O03  221   5.215   4.360   4.287
    1STR    N04  222   5.387   4.218   4.336
    1STR    C05  223   5.481   4.232   4.230
    1STR    C06  224   5.623   4.236   4.256
    1STR    C07  225   5.722   4.232   4.151
    1STR    N08  226   5.862   4.231   4.178
    1STR    C09  227   5.969   4.204   4.097
    1STR    O0A  228   5.957   4.172   3.979
    1STR    O0B  229   6.094   4.214   4.159
    1STR    C0C  230   6.218   4.199   4.082
    1STR    C0D  231   6.243   4.329   4.003
    1STR    C0E  232   6.345   4.161   4.168
    1STR    O0F  233   6.472   4.153   4.094
    1STR    C0G  234   6.592   4.110   4.165
    1STR    C0H  235   6.582   3.958   4.188
    1STR    C0I  236   6.727   4.145   4.089
    1STR    O0J  237   6.854   4.133   4.163
    1STR    C0K  238   6.978   4.175   4.096
    1STR    C0M  239   6.970   4.326   4.069
    1STR    C0N  240   7.116   4.147   4.170
    1STR    O0O  241   7.230   4.187   4.089
    1STR    C0P  242   7.361   4.199   4.136
    1STR    O0Q  243   7.395   4.188   4.253
    1STR    N0R  244   7.444   4.221   4.032
    1STR    C0S  245   7.584   4.218   4.006
    1STR    C0T  246   7.618   4.124   3.908
    1STR    C0U  247   7.741   4.128   3.841
    1STR    C0V  248   7.836   4.227   3.872
    1STR    C0W  249   7.956   4.238   3.779
    1STR    C0X  250   7.814   4.318   3.979
    1STR    N0Y  251   7.914   4.417   4.005
    1STR   BCK2  252   8.049   4.402   4.005
    1STR    O10  253   8.097   4.330   4.091
    1STR    C13  254   7.685   4.314   4.044
    1STR    C14  255   5.672   4.229   4.019
    1STR    C15  256   5.534   4.224   3.992
    1STR    C16  257   5.439   4.223   4.095
    1STR    C17  258   5.293   4.203   4.054
    1STR    H1B  259   5.413   4.153   4.409
    1STR    H1C  260   5.656   4.241   4.358
    1STR    H1D  261   5.891   4.252   4.272
    1STR    H1E  262   6.202   4.118   4.010
    1STR    H1F  263   6.257   4.414   4.070
    1STR    H1G  264   6.332   4.320   3.941
    1STR    H1H  265   6.160   4.351   3.937
    1STR    H1I  266   6.324   4.065   4.215
    1STR    H1J  267   6.356   4.233   4.249
    1STR    H1K  268   6.595   4.161   4.261
    1STR    H1M  269   6.567   3.905   4.094
    1STR    H1N  270   6.499   3.932   4.254
    1STR    H1O  271   6.672   3.919   4.234
    1STR    H1P  272   6.733   4.085   3.998
    1STR    H1Q  273   6.715   4.248   4.055
    1STR    H1R  274   6.983   4.121   4.001
    1STR    H1S  275   7.064   4.364   4.030
    1STR    H1T  276   6.949   4.380   4.161
    1STR    H1U  277   6.894   4.352   3.995
    1STR    H1V  278   7.125   4.041   4.194
    1STR    H1W  279   7.120   4.199   4.266
    1STR    H1X  280   7.388   4.223   3.949
    1STR    H1Y  281   7.547   4.049   3.877
    1STR    H1Z  282   7.760   4.058   3.762
    1STR    H20  283   7.972   4.342   3.750
    1STR    H21  284   8.044   4.202   3.832
    1STR    H22  285   7.944   4.180   3.688
    1STR    H23  286   7.885   4.505   4.045
    1STR    H27  287   7.661   4.386   4.121
    1STR    H28  288   5.738   4.228   3.934
    1STR    H29  289   5.502   4.218   3.889
    1STR    H2A  290   5.240   4.140   4.124
    1STR    H2B  291   5.285   4.156   3.956
    1STR    H2C  292   5.243   4.300   4.048
    1STR   BCK1  293   5.277   8.716   4.446
    1STR    O03  294   5.251   8.733   4.565
    1STR    N04  295   5.387   8.768   4.385
    1STR    C05  296   5.481   8.862   4.434
    1STR    C06  297   5.623   8.845   4.416
    1STR    C07  298   5.721   8.944   4.456
    1STR    N08  299   5.862   8.927   4.432
    1STR    C09  300   5.969   9.005   4.466
    1STR    O0A  301   5.960   9.109   4.531
    1STR    O0B  302   6.094   8.958   4.421
    1STR    C0C  303   6.220   9.024   4.460
    1STR    C0D  304   6.251   8.984   4.606
    1STR    C0E  305   6.345   8.996   4.367
    1STR    O0F  306   6.475   9.053   4.409
    1STR    C0G  307   6.590   9.041   4.318
    1STR    C0H  308   6.568   9.140   4.202
    1STR    C0I  309   6.734   9.066   4.383
    1STR    O0J  310   6.850   9.035   4.297
    1STR    C0K  311   6.987   9.060   4.345
    1STR    C0M  312   7.011   8.978   4.473
    1STR    C0N  313   7.104   9.027   4.240
    1STR    O0O  314   7.240   9.070   4.274
    1STR    C0P  315   7.356   9.009   4.222
    1STR    O0Q  316   7.357   8.907   4.155
    1STR    N0R  317   7.468   9.076   4.260
    1STR    C0S  318   7.609   9.053   4.265
    1STR    C0T  319   7.666   9.105   4.383
    1STR    C0U  320   7.802   9.093   4.410
    1STR    C0V  321   7.891   9.033   4.320
    1STR    C0W  322   8.032   9.020   4.375
    1STR    C0X  323   7.846   8.986   4.192
    1STR    N0Y  324   7.933   8.938   4.087
    1STR   BCK2  325   8.068   8.923   4.065
    1STR    O10  326   8.157   8.945   4.145
    1STR    C13  327   7.702   8.994   4.170
    1STR    C14  328   5.669   9.060   4.517
    1STR    C15  329   5.531   9.080   4.534
    1STR    C16  330   5.437   8.985   4.491
    1STR    C17  331   5.290   9.023   4.501
    1STR    H1B  332   5.399   8.737   4.290
    1STR    H1C  333   5.657   8.754   4.370
    1STR    H1D  334   5.890   8.845   4.382
    1STR    H1E  335   6.202   9.132   4.459
    1STR    H1F  336   6.266   8.876   4.615
    1STR    H1G  337   6.341   9.034   4.641
    1STR    H1H  338   6.170   9.012   4.673
    1STR    H1I  339   6.319   9.034   4.268
    1STR    H1J  340   6.357   8.889   4.356
    1STR    H1K  341   6.591   8.939   4.279
    1STR    H1M  342   6.554   9.242   4.240
    1STR    H1N  343   6.482   9.115   4.142
    1STR    H1O  344   6.655   9.141   4.136
    1STR    H1P  345   6.740   9.170   4.415
    1STR    H1Q  346   6.739   9.006   4.473
    1STR    H1R  347   6.995   9.166   4.370
    1STR    H1S  348   7.114   8.988   4.508
    1STR    H1T  349   6.992   8.873   4.456
    1STR    H1U  350   6.948   9.011   4.556
    1STR    H1V  351   7.079   9.074   4.145
    1STR    H1W  352   7.105   8.920   4.220
    1STR    H1X  353   7.439   9.158   4.309
    1STR    H1Y  354   7.604   9.154   4.457
    1STR    H1Z  355   7.838   9.132   4.504
    1STR    H20  356   8.065   8.916   4.372
    1STR    H21  357   8.101   9.084   4.320
    1STR    H22  358   8.040   9.052   4.479
    1STR    H23  359   7.884   8.909   4.005
    1STR    H27  360   7.660   8.957   4.078
    1STR    H28  361   5.733   9.140   4.551
    1STR    H29  362   5.497   9.172   4.579
    1STR    H2A  363   5.233   8.985   4.416
    1STR    H2B  364   5.277   9.131   4.503
    1STR    H2C  365   5.246   8.982   4.593
    1STR   BCK1  366   9.595   4.298   4.439
    1STR    O03  367   9.553   4.389   4.368
    1STR    N04  368   9.726   4.267   4.427
    1STR    C05  369   9.818   4.164   4.461
    1STR    C06  370   9.958   4.198   4.463
    1STR    C07  371  10.062   4.100   4.479
    1STR    N08  372  10.200   4.136   4.478
    1STR    C09  373  10.310   4.059   4.490
    1STR    O0A  374  10.308   3.937   4.503
    1STR    O0B  375  10.428   4.129   4.485
    1STR    C0C  376  10.555   4.058   4.491
    1STR    C0D  377  10.588   3.999   4.353
    1STR    C0E  378  10.672   4.146   4.544
    1STR    O0F  379  10.795   4.071   4.554
    1STR    C0G  380  10.909   4.140   4.608
    1STR    C0H  381  10.894   4.150   4.761
    1STR    C0I  382  11.042   4.067   4.571
    1STR    O0J  383  11.158   4.146   4.604
    1STR    C0K  384  11.288   4.090   4.573
    1STR    C0M  385  11.308   4.084   4.421
    1STR    C0N  386  11.401   4.178   4.636
    1STR    O0O  387  11.531   4.122   4.615
    1STR    C0P  388  11.638   4.197   4.573
    1STR    O0Q  389  11.633   4.315   4.538
    1STR    N0R  390  11.748   4.122   4.576
    1STR    C0S  391  11.883   4.141   4.540
    1STR    C0T  392  11.967   4.031   4.563
    1STR    C0U  393  12.101   4.031   4.522
    1STR    C0V  394  12.156   4.143   4.457
    1STR    C0W  395  12.297   4.129   4.402
    1STR    C0X  396  12.077   4.260   4.438
    1STR    N0Y  397  12.131   4.368   4.365
    1STR   BCK2  398  12.248   4.432   4.382
    1STR    O10  399  12.317   4.423   4.483
    1STR    C13  400  11.940   4.257   4.478
    1STR    C14  401  10.020   3.966   4.494
    1STR    C15  402   9.885   3.931   4.494
    1STR    C16  403   9.784   4.027   4.476
    1STR    C17  404   9.644   3.972   4.467
    1STR    H1B  405   9.767   4.342   4.375
    1STR    H1C  406   9.986   4.301   4.450
    1STR    H1D  407  10.223   4.233   4.466
    1STR    H1E  408  10.544   3.975   4.562
    1STR    H1F  409  10.601   4.076   4.278
    1STR    H1G  410  10.681   3.941   4.357
    1STR    H1H  411  10.510   3.931   4.319
    1STR    H1I  412  10.644   4.185   4.641
    1STR    H1J  413  10.687   4.231   4.478
    1STR    H1K  414  10.914   4.240   4.564
    1STR    H1M  415  10.881   4.051   4.806
    1STR    H1N  416  10.809   4.211   4.790
    1STR    H1O  417  10.983   4.195   4.805
    1STR    H1P  418  11.046   3.970   4.621
    1STR    H1Q  419  11.040   4.046   4.464
    1STR    H1R  420  11.295   3.990   4.615
    1STR    H1S  421  11.408   4.049   4.396
    1STR    H1T  422  11.296   4.182   4.376
    1STR    H1U  423  11.238   4.016   4.372
    1STR    H1V  424  11.385   4.185   4.743
    1STR    H1W  425  11.395   4.280   4.598
    1STR    H1X  426  11.725   4.032   4.613
    1STR    H1Y  427  11.929   3.941   4.610
    1STR    H1Z  428  12.161   3.943   4.538
    1STR    H20  429  12.307   4.179   4.306
    1STR    H21  430  12.370   4.171   4.471
    1STR    H22  431  12.324   4.024   4.385
    1STR    H23  432  12.077   4.400   4.286
    1STR    H27  433  11.878   4.343   4.462
    1STR    H28  434  10.089   3.885   4.505
    1STR    H29  435   9.859   3.827   4.504
    1STR    H2A  436   9.595   3.984   4.564
    1STR    H2B  437   9.643   3.865   4.446
    1STR    H2C  438   9.587   4.020   4.388
    1STR   BCK1  439   9.374   4.179   8.422
    1STR    O03  440   9.336   4.109   8.515
    1STR    N04  441   9.508   4.216   8.431
    1STR    C05  442   9.613   4.306   8.388
    1STR    C06  443   9.755   4.270   8.407
    1STR    C07  444   9.869   4.360   8.389
    1STR    N08  445  10.010   4.328   8.413
    1STR    C09  446  10.127   4.393   8.375
    1STR    O0A  447  10.124   4.491   8.302
    1STR    O0B  448  10.255   4.343   8.424
    1STR    C0C  449  10.386   4.411   8.395
    1STR    C0D  450  10.391   4.544   8.473
    1STR    C0E  451  10.528   4.336   8.419
    1STR    O0F  452  10.656   4.407   8.388
    1STR    C0G  453  10.790   4.340   8.402
    1STR    C0H  454  10.799   4.231   8.295
    1STR    C0I  455  10.925   4.429   8.391
    1STR    O0J  456  11.056   4.361   8.409
    1STR    C0K  457  11.184   4.433   8.390
    1STR    C0M  458  11.198   4.546   8.493
    1STR    C0N  459  11.320   4.349   8.399
    1STR    O0O  460  11.442   4.421   8.363
    1STR    C0P  461  11.568   4.400   8.423
    1STR    O0Q  462  11.588   4.334   8.524
    1STR    N0R  463  11.666   4.459   8.351
    1STR    C0S  464  11.808   4.474   8.356
    1STR    C0T  465  11.867   4.500   8.231
    1STR    C0U  466  12.003   4.532   8.218
    1STR    C0V  467  12.087   4.541   8.330
    1STR    C0W  468  12.227   4.590   8.299
    1STR    C0X  469  12.037   4.511   8.460
    1STR    N0Y  470  12.111   4.528   8.581
    1STR   BCK2  471  12.236   4.546   8.630
    1STR    O10  472  12.245   4.585   8.746
    1STR    C13  473  11.896   4.476   8.470
    1STR    C14  474   9.832   4.491   8.351
    1STR    C15  475   9.698   4.529   8.334
    1STR    C16  476   9.589   4.441   8.352
    1STR    C17  477   9.451   4.503   8.344
    1STR    H1B  478   9.542   4.157   8.505
    1STR    H1C  479   9.776   4.169   8.439
    1STR    H1D  480  10.029   4.245   8.467
    1STR    H1E  481  10.382   4.436   8.289
    1STR    H1F  482  10.396   4.528   8.581
    1STR    H1G  483  10.479   4.602   8.445
    1STR    H1H  484  10.304   4.607   8.453
    1STR    H1I  485  10.525   4.243   8.361
    1STR    H1J  486  10.534   4.305   8.524
    1STR    H1K  487  10.792   4.294   8.500
    1STR    H1M  488  10.789   4.273   8.194
    1STR    H1N  489  10.723   4.154   8.307
    1STR    H1O  490  10.895   4.180   8.299
    1STR    H1P  491  10.926   4.479   8.294
    1STR    H1Q  492  10.918   4.509   8.464
    1STR    H1R  493  11.182   4.477   8.290
    1STR    H1S  494  11.292   4.600   8.479
    1STR    H1T  495  11.200   4.506   8.594
    1STR    H1U  496  11.118   4.620   8.486
    1STR    H1V  497  11.314   4.264   8.331
    1STR    H1W  498  11.332   4.305   8.498
    1STR    H1X  499  11.624   4.500   8.270
    1STR    H1Y  500  11.808   4.499   8.141
    1STR    H1Z  501  12.042   4.553   8.120
    1STR    H20  502  12.255   4.671   8.367
    1STR    H21  503  12.298   4.508   8.305
    1STR    H22  504  12.237   4.631   8.199
    1STR    H23  505  12.051   4.530   8.662
    1STR    H27  506  11.853   4.455   8.567
    1STR    H28  507   9.907   4.568   8.339
    1STR    H29  508   9.678   4.633   8.309
    1STR    H2A  509   9.371   4.430   8.338
    1STR    H2B  510   9.443   4.566   8.255
    1STR    H2C  511   9.433   4.565   8.431
    1STR   BCK1  512  13.765   4.225  12.972
    1STR    O03  513  13.712   4.191  13.077
    1STR    N04  514  13.896   4.273  12.967
    1STR    C05  515  13.994   4.311  13.069
    1STR    C06  516  14.141   4.309  13.052
    1STR    C07  517  14.241   4.347  13.153
    1STR    N08  518  14.387   4.357  13.138
    1STR    C09  519  14.489   4.388  13.228
    1STR    O0A  520  14.467   4.406  13.347
    1STR    O0B  521  14.627   4.400  13.181
    1STR    C0C  522  14.744   4.425  13.275
    1STR    C0D  523  14.770   4.297  13.355
    1STR    C0E  524  14.887   4.481  13.221
    1STR    O0F  525  15.008   4.477  13.310
    1STR    C0G  526  15.138   4.541  13.270
    1STR    C0H  527  15.122   4.693  13.290
    1STR    C0I  528  15.275   4.497  13.344
    1STR    O0J  529  15.404   4.550  13.292
    1STR    C0K  530  15.534   4.523  13.361
    1STR    C0M  531  15.559   4.372  13.367
    1STR    C0N  532  15.667   4.588  13.300
    1STR    O0O  533  15.792   4.565  13.374
    1STR    C0P  534  15.918   4.543  13.315
    1STR    O0Q  535  15.938   4.526  13.196
    1STR    N0R  536  16.017   4.543  13.408
    1STR    C0S  537  16.158   4.521  13.418
    1STR    C0T  538  16.211   4.552  13.544
    1STR    C0U  539  16.345   4.527  13.576
    1STR    C0V  540  16.435   4.471  13.483
    1STR    C0W  541  16.575   4.447  13.534
    1STR    C0X  542  16.391   4.444  13.350
    1STR    N0Y  543  16.480   4.409  13.244
    1STR   BCK2  544  16.606   4.363  13.217
    1STR    O10  545  16.647   4.379  13.103
    1STR    C13  546  16.251   4.469  13.320
    1STR    C14  547  14.184   4.381  13.278
    1STR    C15  548  14.045   4.391  13.297
    1STR    C16  549  13.953   4.365  13.195
    1STR    C17  550  13.811   4.410  13.227
    1STR    H1B  551  13.928   4.279  12.872
    1STR    H1C  552  14.178   4.277  12.956
    1STR    H1D  553  14.423   4.341  13.045
    1STR    H1E  554  14.708   4.500  13.346
    1STR    H1F  555  14.808   4.217  13.291
    1STR    H1G  556  14.844   4.315  13.433
    1STR    H1H  557  14.680   4.261  13.405
    1STR    H1I  558  14.872   4.584  13.189
    1STR    H1J  559  14.913   4.426  13.130
    1STR    H1K  560  15.153   4.521  13.164
    1STR    H1M  561  15.105   4.717  13.395
    1STR    H1N  562  15.040   4.735  13.232
    1STR    H1O  563  15.213   4.745  13.260
    1STR    H1P  564  15.268   4.524  13.450
    1STR    H1Q  565  15.280   4.388  13.342
    1STR    H1R  566  15.525   4.560  13.463
    1STR    H1S  567  15.654   4.351  13.417
    1STR    H1T  568  15.567   4.330  13.266
    1STR    H1U  569  15.482   4.318  13.421
    1STR    H1V  570  15.654   4.696  13.294
    1STR    H1W  571  15.681   4.556  13.196
    1STR    H1X  572  15.974   4.567  13.496
    1STR    H1Y  573  16.150   4.596  13.621
    1STR    H1Z  574  16.380   4.551  13.676
    1STR    H20  575  16.591   4.340  13.541
    1STR    H21  576  16.649   4.494  13.470
    1STR    H22  577  16.591   4.486  13.635
    1STR    H23  578  16.441   4.430  13.154
    1STR    H27  579  16.213   4.449  13.221
    1STR    H28  580  14.243   4.406  13.364
    1STR    H29  581  14.010   4.424  13.394
    1STR    H2A  582  13.753   4.433  13.138
    1STR    H2B  583  13.813   4.501  13.287
    1STR    H2C  584  13.761   4.335  13.286
    1STR   BCK1  585   0.125   0.821   4.510
    1STR    O03  586   0.078   0.810   4.623
    1STR    N04  587   0.146   0.949   4.470
    1STR    C05  588   0.201   1.036   4.371
    1STR    C06  589   0.186   1.179   4.391
    1STR    C07  590   0.243   1.279   4.305
    1STR    N08  591   0.227   1.420   4.329
    1STR    C09  592   0.290   1.529   4.273
    1STR    O0A  593   0.380   1.519   4.191
    1STR    O0B  594   0.244   1.654   4.318
    1STR    C0C  595   0.294   1.779   4.258
    1STR    C0D  596   0.229   1.798   4.120
    1STR    C0E  597   0.275   1.911   4.345
    1STR    O0F  598   0.322   2.036   4.283
    1STR    C0G  599   0.316   2.161   4.359
    1STR    C0H  600   0.428   2.156   4.465
    1STR    C0I  601   0.330   2.293   4.272
    1STR    O0J  602   0.304   2.420   4.342
    1STR    C0K  603   0.314   2.545   4.267
    1STR    C0M  604   0.207   2.549   4.157
    1STR    C0N  605   0.297   2.677   4.353
    1STR    O0O  606   0.316   2.801   4.277
    1STR    C0P  607   0.236   2.914   4.292
    1STR    O0Q  608   0.132   2.919   4.357
    1STR    N0R  609   0.290   3.020   4.228
    1STR    C0S  610   0.258   3.157   4.209
    1STR    C0T  611   0.368   3.241   4.183
    1STR    C0U  612   0.352   3.377   4.156
    1STR    C0V  613   0.225   3.438   4.152
    1STR    C0W  614   0.222   3.587   4.127
    1STR    C0X  615   0.108   3.359   4.175
    1STR    N0Y  616  17.416   3.412   4.183
    1STR   BCK2  617  17.336   3.516   4.148
    1STR    O10  618  17.222   3.515   4.193
    1STR    C13  619   0.128   3.219   4.206
    1STR    C14  620   0.315   1.230   4.194
    1STR    C15  621   0.331   1.093   4.171
    1STR    C16  622   0.276   0.995   4.257
    1STR    C17  623   0.303   0.851   4.223
    1STR    H1B  624   0.105   1.002   4.545
    1STR    H1C  625   0.130   1.212   4.476
    1STR    H1D  626   0.159   1.448   4.397
    1STR    H1E  627   0.401   1.767   4.243
    1STR    H1F  628   0.121   1.811   4.128
    1STR    H1G  629   0.269   1.886   4.070
    1STR    H1H  630   0.248   1.713   4.055
    1STR    H1I  631   0.326   1.896   4.440
    1STR    H1J  632   0.169   1.923   4.368
    1STR    H1K  633   0.219   2.165   4.409
    1STR    H1M  634   0.525   2.142   4.419
    1STR    H1N  635   0.413   2.077   4.538
    1STR    H1O  636   0.431   2.250   4.521
    1STR    H1P  637   0.430   2.296   4.228
    1STR    H1Q  638   0.260   2.283   4.189
    1STR    H1R  639   0.413   2.549   4.221
    1STR    H1S  640   0.210   2.644   4.104
    1STR    H1T  641   0.108   2.539   4.200
    1STR    H1U  642   0.221   2.471   4.082
    1STR    H1V  643   0.371   2.678   4.433
    1STR    H1W  644   0.200   2.678   4.403
    1STR    H1X  645   0.377   2.991   4.188
    1STR    H1Y  646   0.469   3.201   4.186
    1STR    H1Z  647   0.440   3.437   4.139
    1STR    H20  648   0.188   3.606   4.025
    1STR    H21  649   0.156   3.637   4.198
    1STR    H22  650   0.320   3.633   4.137
    1STR    H23  651  17.357   3.353   4.238
    1STR    H27  652   0.043   3.157   4.226
    1STR    H28  653   0.360   1.297   4.122
    1STR    H29  654   0.387   1.061   4.084
    1STR    H2A  655   0.354   0.802   4.306
    1STR    H2B  656   0.367   0.840   4.136
    1STR    H2C  657   0.209   0.800   4.201
    1STR   BCK1  658  17.429   5.163  17.145
    1STR    O03  659   0.062   5.181  17.048
    1STR    N04  660  17.432   5.260  17.240
    1STR    C05  661  17.333   5.359  17.269
    1STR    C06  662  17.354   5.501  17.245
    1STR    C07  663  17.258   5.603  17.279
    1STR    N08  664  17.282   5.744  17.266
    1STR    C09  665  17.196   5.851  17.273
    1STR    O0A  666  17.075   5.838  17.278
    1STR    O0B  667  17.256   5.979  17.274
    1STR    C0C  668  17.175   6.101  17.294
    1STR    C0D  669  17.133   6.111   0.001
    1STR    C0E  670  17.242   6.237  17.248
    1STR    O0F  671  17.161   6.359  17.265
    1STR    C0G  672  17.212   6.486  17.212
    1STR    C0H  673  17.199   6.482  17.059
    1STR    C0I  674  17.140   6.617  17.265
    1STR    O0J  675  17.197   6.742  17.215
    1STR    C0K  676  17.133   6.870  17.249
    1STR    C0M  677  17.145   6.896  17.400
    1STR    C0N  678  17.193   6.994  17.172
    1STR    O0O  679  17.115   7.116  17.187
    1STR    C0P  680  17.172   7.242  17.189
    1STR    O0Q  681  17.292   7.266  17.189
    1STR    N0R  682  17.076   7.337  17.197
    1STR    C0S  683  17.073   7.476  17.222
    1STR    C0T  684  16.959   7.519  17.293
    1STR    C0U  685  16.945   7.653  17.334
    1STR    C0V  686  17.042   7.749  17.303
    1STR    C0W  687  17.033   7.885  17.372
    1STR    C0X  688  17.152   7.714  17.220
    1STR    N0Y  689  17.249   7.813  17.192
    1STR   BCK2  690  17.238   7.939  17.144
    1STR    O10  691  17.324   8.021  17.173
    1STR    C13  692  17.170   7.575  17.185
    1STR    C14  693  17.137   5.556  17.335
    1STR    C15  694  17.116   5.421  17.363
    1STR    C16  695  17.214   5.324  17.337
    1STR    C17  696  17.190   5.186  17.396
    1STR    H1B  697   0.086   5.293  17.248
    1STR    H1C  698   0.008   5.531  17.200
    1STR    H1D  699  17.378   5.773  17.252
    1STR    H1E  700  17.085   6.089  17.234
    1STR    H1F  701  17.219   6.124   0.067
    1STR    H1G  702  17.067   6.197   0.016
    1STR    H1H  703  17.079   6.023   0.034
    1STR    H1I  704  17.269   6.227  17.143
    1STR    H1J  705  17.336   6.251  17.303
    1STR    H1K  706  17.317   6.495  17.240
    1STR    H1M  707  17.095   6.466  17.029
    1STR    H1N  708  17.260   6.404  17.014
    1STR    H1O  709  17.231   6.577  17.016
    1STR    H1P  710  17.034   6.613  17.239
    1STR    H1Q  711  17.144   6.617  17.374
    1STR    H1R  712  17.027   6.862  17.222
    1STR    H1S  713  17.102   6.993  17.425
    1STR    H1T  714  17.249   6.898  17.431
    1STR    H1U  715  17.092   6.822   0.020
    1STR    H1V  716  17.197   6.972  17.065
    1STR    H1W  717  17.296   7.012  17.202
    1STR    H1X  718  16.986   7.292  17.192
    1STR    H1Y  719  16.882   7.449  17.322
    1STR    H1Z  720  16.860   7.680  17.395
    1STR    H20  721  17.128   7.909  17.420
    1STR    H21  722  17.009   7.965  17.302
    1STR    H22  723  16.956   7.886   0.009
    1STR    H23  724  17.342   7.792  17.225
    1STR    H27  725  17.257   7.545  17.130
    1STR    H28  726  17.058   5.624  17.363
    1STR    H29  727  17.024   5.392  17.411
    1STR    H2A  728  17.266   5.114  17.370
    1STR    H2B  729  17.092   5.149  17.368
    1STR    H2C  730  17.192   5.194   0.065
    1STR   BCK1  731  17.417   5.245  13.058
    1STR    O03  732   0.078   5.176  13.069
    1STR    N04  733  17.402   5.371  13.110
    1STR    C05  734   0.044   5.455  13.192
    1STR    C06  735   0.031   5.598  13.184
    1STR    C07  736   0.106   5.691  13.265
    1STR    N08  737   0.088   5.833  13.259
    1STR    C09  738   0.145   5.935  13.330
    1STR    O0A  739   0.229   5.918  13.417
    1STR    O0B  740   0.099   6.061  13.295
    1STR    C0C  741   0.156   6.182  13.356
    1STR    C0D  742   0.291   6.214  13.288
    1STR    C0E  743   0.061   6.307  13.350
    1STR    O0F  744   0.118   6.431  13.402
    1STR    C0G  745   0.032   6.548  13.405
    1STR    C0H  746  17.375   6.534  13.523
    1STR    C0I  747   0.110   6.684  13.415
    1STR    O0J  748   0.025   6.801  13.392
    1STR    C0K  749   0.085   6.934  13.397
    1STR    C0M  750   0.188   6.949  13.284
    1STR    C0N  751  17.417   7.048  13.383
    1STR    O0O  752   0.031   7.182  13.387
    1STR    C0P  753  17.419   7.287  13.313
    1STR    O0Q  754  17.332   7.276  13.227
    1STR    N0R  755   0.037   7.402  13.349
    1STR    C0S  756   0.032   7.538  13.308
    1STR    C0T  757   0.113   7.624  13.385
    1STR    C0U  758   0.130   7.759  13.351
    1STR    C0V  759   0.066   7.814  13.239
    1STR    C0W  760   0.106   7.956  13.201
    1STR    C0X  761  17.414   7.736  13.163
    1STR    N0Y  762  17.351   7.792  13.049
    1STR   BCK2  763  17.288   7.912  13.031
    1STR    O10  764  17.259   7.989  13.122
    1STR    C13  765  17.401   7.597  13.197
    1STR    C14  766   0.201   5.633  13.353
    1STR    C15  767   0.214   5.494  13.365
    1STR    C16  768   0.135   5.405  13.290
    1STR    C17  769   0.149   5.259  13.328
    1STR    H1B  770  17.316   5.412  13.080
    1STR    H1C  771  17.400   5.639  13.114
    1STR    H1D  772   0.021   5.868  13.192
    1STR    H1E  773   0.175   6.161  13.461
    1STR    H1F  774   0.278   6.234  13.182
    1STR    H1G  775   0.337   6.301  13.334
    1STR    H1H  776   0.361   6.131  13.299
    1STR    H1I  777  17.411   6.282  13.406
    1STR    H1J  778   0.030   6.323  13.247
    1STR    H1K  779  17.415   6.551  13.311
    1STR    H1M  780  17.429   6.522  13.617
    1STR    H1N  781  17.307   6.449  13.512
    1STR    H1O  782  17.312   6.623  13.533
    1STR    H1P  783   0.158   6.692  13.512
    1STR    H1Q  784   0.190   6.682  13.341
    1STR    H1R  785   0.135   6.946  13.493
    1STR    H1S  786   0.229   7.050  13.283
    1STR    H1T  787   0.141   6.932  13.187
    1STR    H1U  788   0.272   6.881  13.294
    1STR    H1V  789  17.345   7.040  13.465
    1STR    H1W  790  17.359   7.034  13.292
    1STR    H1X  791   0.100   7.383  13.424
    1STR    H1Y  792   0.167   7.587  13.471
    1STR    H1Z  793   0.196   7.819  13.411
    1STR    H20  794   0.109   7.968  13.093
    1STR    H21  795   0.037   8.028  13.243
    1STR    H22  796   0.206   7.979  13.237
    1STR    H23  797  17.353   7.736  12.965
    1STR    H27  798  17.337   7.533  13.138
    1STR    H28  799   0.265   5.693  13.415
    1STR    H29  800   0.285   5.456  13.437
    1STR    H2A  801   0.054   5.206  13.321
    1STR    H2B  802   0.184   5.247  13.430
    1STR    H2C  803   0.223   5.210  13.264
    1STR   BCK1  804   0.071   9.567  13.105
    1STR    O03  805  17.390   9.550  13.098
    1STR    N04  806   0.132   9.686  13.073
    1STR    C05  807   0.095   9.790  12.982
    1STR    C06  808   0.101   9.933  13.008
    1STR    C07  809   0.081  10.036  12.907
    1STR    N08  810   0.090  10.180  12.930
    1STR    C09  811   0.093  10.288  12.843
    1STR    O0A  812   0.091  10.273  12.721
    1STR    O0B  813   0.099  10.421  12.899
    1STR    C0C  814   0.090  10.545  12.815
    1STR    C0D  815  17.384  10.558  12.766
    1STR    C0E  816   0.139  10.687  12.877
    1STR    O0F  817   0.115  10.816  12.803
    1STR    C0G  818   0.175  10.945  12.849
    1STR    C0H  819   0.325  10.936  12.816
    1STR    C0I  820   0.116  11.086  12.791
    1STR    O0J  821   0.153  11.219  12.852
    1STR    C0K  822   0.102  11.349  12.798
    1STR    C0M  823  17.389  11.342  12.797
    1STR    C0N  824   0.142  11.492  12.866
    1STR    O0O  825   0.088  11.618  12.807
    1STR    C0P  826   0.086  11.748  12.871
    1STR    O0Q  827   0.121  11.767  12.987
    1STR    N0R  828   0.047  11.849  12.787
    1STR    C0S  829   0.031  11.993  12.779
    1STR    C0T  830   0.058  12.043  12.650
    1STR    C0U  831   0.033  12.177  12.614
    1STR    C0V  832  17.419  12.270  12.704
    1STR    C0W  833  17.390  12.408  12.649
    1STR    C0X  834  17.395  12.234  12.839
    1STR    N0Y  835  17.350  12.329  12.938
    1STR   BCK2  836  17.299  12.455  12.965
    1STR    O10  837  17.286  12.479  13.084
    1STR    C13  838  17.422  12.093  12.874
    1STR    C14  839   0.049   9.986  12.778
    1STR    C15  840   0.044   9.848  12.750
    1STR    C16  841   0.069   9.751  12.848
    1STR    C17  842   0.076   9.605  12.802
    1STR    H1B  843   0.228   9.690  13.104
    1STR    H1C  844   0.124   9.963  13.109
    1STR    H1D  845   0.096  10.209  13.026
    1STR    H1E  846   0.151  10.526  12.727
    1STR    H1F  847  17.315  10.574  12.849
    1STR    H1G  848  17.374  10.642  12.697
    1STR    H1H  849  17.352  10.469  12.712
    1STR    H1I  850   0.246  10.676  12.895
    1STR    H1J  851   0.094  10.698  12.975
    1STR    H1K  852   0.163  10.949  12.957
    1STR    H1M  853   0.340  10.919  12.709
    1STR    H1N  854   0.375  10.855  12.869
    1STR    H1O  855   0.377  11.028  12.842
    1STR    H1P  856   0.140  11.091  12.685
    1STR    H1Q  857   0.008  11.077  12.796
    1STR    H1R  858   0.136  11.355  12.694
    1STR    H1S  859  17.345  11.437  12.765
    1STR    H1T  860  17.351  11.320  12.897
    1STR    H1U  861  17.351  11.266  12.728
    1STR    H1V  862   0.251  11.502  12.866
    1STR    H1W  863   0.115  11.491  12.972
    1STR    H1X  864   0.030  11.805  12.698
    1STR    H1Y  865   0.099  11.978  12.574
    1STR    H1Z  866   0.055  12.207  12.512
    1STR    H20  867  17.283  12.427  12.655
    1STR    H21  868   0.004  12.485  12.705
    1STR    H22  869  17.418  12.419  12.544
    1STR    H23  870  17.361  12.290  13.030
    1STR    H27  871  17.403  12.060  12.975
    1STR    H28  872   0.029  10.052  12.696
    1STR    H29  873   0.024   9.817  12.648
    1STR    H2A  874   0.159   9.552  12.849
    1STR    H2B  875   0.092   9.597  12.695
    1STR    H2C  876  17.424   9.553  12.827
    1STR   BCK1  877   0.100  13.832   4.493
    1STR    O03  878   0.117  13.821   4.614
    1STR    N04  879   0.044  13.943   4.435
    1STR    C05  880  17.405  14.049   4.491
    1STR    C06  881  17.422  14.191   4.463
    1STR    C07  882  17.332  14.296   4.510
    1STR    N08  883  17.343  14.438   4.479
    1STR    C09  884  17.273  14.548   4.528
    1STR    O0A  885  17.192  14.538   4.619
    1STR    O0B  886  17.298  14.677   4.470
    1STR    C0C  887  17.234  14.801   4.523
    1STR    C0D  888  17.300  14.836   4.657
    1STR    C0E  889  17.227  14.935   4.433
    1STR    O0F  890  17.182  15.060   4.499
    1STR    C0G  891  17.164  15.185   4.422
    1STR    C0H  892  17.033  15.173   4.342
    1STR    C0I  893  17.159  15.323   4.505
    1STR    O0J  894  17.160  15.450   4.429
    1STR    C0K  895  17.151  15.579   4.500
    1STR    C0M  896  17.271  15.596   4.594
    1STR    C0N  897  17.146  15.710   4.408
    1STR    O0O  898  17.132  15.837   4.480
    1STR    C0P  899  17.198  15.955   4.442
    1STR    O0Q  900  17.286  15.961   4.357
    1STR    N0R  901  17.152  16.062   4.511
    1STR    C0S  902  17.184  16.201   4.517
    1STR    C0T  903  17.089  16.284   4.579
    1STR    C0U  904  17.112  16.421   4.600
    1STR    C0V  905  17.233  16.482   4.561
    1STR    C0W  906  17.249  16.628   4.597
    1STR    C0X  907  17.334  16.405   4.496
    1STR    N0Y  908   0.023  16.450   4.457
    1STR   BCK2  909   0.106  16.556   4.447
    1STR    O10  910   0.222  16.529   4.416
    1STR    C13  911  17.305  16.265   4.474
    1STR    C14  912  17.224  14.249   4.587
    1STR    C15  913  17.204  14.113   4.615
    1STR    C16  914  17.290  14.013   4.566
    1STR    C17  915  17.249  13.868   4.589
    1STR    H1B  916   0.049  13.942   4.335
    1STR    H1C  917   0.067  14.219   4.403
    1STR    H1D  918  17.411  14.464   4.410
    1STR    H1E  919  17.130  14.774   4.545
    1STR    H1F  920  17.404  14.866   4.644
    1STR    H1G  921  17.248  14.919   4.705
    1STR    H1H  922  17.298  14.752   4.727
    1STR    H1I  923  17.162  14.914   4.349
    1STR    H1J  924  17.326  14.954   4.391
    1STR    H1K  925  17.248  15.194   4.353
    1STR    H1M  926  16.948  15.159   4.408
    1STR    H1N  927  17.035  15.090   4.272
    1STR    H1O  928  17.015  15.263   4.284
    1STR    H1P  929  17.071  15.322   4.570
    1STR    H1Q  930  17.245  15.322   4.573
    1STR    H1R  931  17.059  15.578   4.559
    1STR    H1S  932  17.266  15.693   4.645
    1STR    H1T  933  17.364  15.594   4.538
    1STR    H1U  934  17.274  15.520   4.672
    1STR    H1V  935  17.060  15.703   4.340
    1STR    H1W  936  17.233  15.714   4.344
    1STR    H1X  937  17.075  16.034   4.569
    1STR    H1Y  938  16.994  16.244   4.613
    1STR    H1Z  939  17.036  16.480   4.649
    1STR    H20  940  17.338  16.643   4.658
    1STR    H21  941  17.255  16.689   4.506
    1STR    H22  942  17.165  16.667   4.654
    1STR    H23  943   0.079  16.373   4.424
    1STR    H27  944  17.379  16.202   4.426
    1STR    H28  945  17.149  14.315   4.627
    1STR    H29  946  17.117  14.084   4.672
    1STR    H2A  947  17.267  13.807   4.501
    1STR    H2B  948  17.142  13.860   4.611
    1STR    H2C  949  17.303  13.826   4.674
    1STR   BCK1  950   4.549   5.137   4.112
    1STR    O03  951   4.649   5.140   4.041
    1STR    N04  952   4.512   5.241   4.193
    1STR    C05  953   4.590   5.352   4.239
    1STR    C06  954   4.546   5.491   4.241
    1STR    C07  955   4.625   5.600   4.296
    1STR    N08  956   4.583   5.738   4.308
    1STR    C09  957   4.658   5.853   4.326
    1STR    O0A  958   4.781   5.851   4.317
    1STR    O0B  959   4.590   5.975   4.354
    1STR    C0C  960   4.663   6.104   4.363
    1STR    C0D  961   4.696   6.149   4.220
    1STR    C0E  962   4.597   6.228   4.442
    1STR    O0F  963   4.668   6.358   4.431
    1STR    C0G  964   4.621   6.476   4.505
    1STR    C0H  965   4.657   6.458   4.654
    1STR    C0I  966   4.677   6.617   4.456
    1STR    O0J  967   4.620   6.738   4.519
    1STR    C0K  968   4.672   6.871   4.484
    1STR    C0M  969   4.646   6.899   4.335
    1STR    C0N  970   4.611   6.992   4.566
    1STR    O0O  971   4.666   7.123   4.534
    1STR    C0P  972   4.594   7.241   4.545
    1STR    O0Q  973   4.475   7.247   4.575
    1STR    N0R  974   4.670   7.349   4.519
    1STR    C0S  975   4.648   7.489   4.506
    1STR    C0T  976   4.759   7.565   4.466
    1STR    C0U  977   4.748   7.702   4.439
    1STR    C0V  978   4.626   7.771   4.454
    1STR    C0W  979   4.625   7.915   4.405
    1STR    C0X  980   4.513   7.702   4.506
    1STR    N0Y  981   4.386   7.759   4.536
    1STR   BCK2  982   4.320   7.875   4.555
    1STR    O10  983   4.203   7.866   4.591
    1STR    C13  984   4.526   7.560   4.528
    1STR    C14  985   4.750   5.562   4.350
    1STR    C15  986   4.793   5.429   4.353
    1STR    C16  987   4.714   5.324   4.303
    1STR    C17  988   4.763   5.182   4.327
    1STR    H1B  989   4.419   5.233   4.230
    1STR    H1C  990   4.449   5.513   4.199
    1STR    H1D  991   4.484   5.757   4.304
    1STR    H1E  992   4.757   6.083   4.414
    1STR    H1F  993   4.606   6.173   4.164
    1STR    H1G  994   4.759   6.238   4.221
    1STR    H1H  995   4.750   6.072   4.166
    1STR    H1I  996   4.589   6.201   4.547
    1STR    H1J  997   4.495   6.243   4.407
    1STR    H1K  998   4.512   6.481   4.495
    1STR    H1M  999   4.764   6.448   4.667
    1STR    H1N 1000   4.608   6.372   4.698
    1STR    H1O 1001   4.626   6.546   4.712
    1STR    H1P 1002   4.786   6.619   4.470
    1STR    H1Q 1003   4.661   6.623   4.349
    1STR    H1R 1004   4.780   6.871   4.502
    1STR    H1S 1005   4.681   6.999   4.308
    1STR    H1T 1006   4.540   6.895   4.313
    1STR    H1U 1007   4.698   6.829   4.269
    1STR    H1V 1008   4.627   6.976   4.673
    1STR    H1W 1009   4.502   6.995   4.554
    1STR    H1X 1010   4.764   7.319   4.502
    1STR    H1Y 1011   4.856   7.519   4.451
    1STR    H1Z 1012   4.835   7.756   4.403
    1STR    H20 1013   4.534   7.935   4.348
    1STR    H21 1014   4.634   7.984   4.488
    1STR    H22 1015   4.708   7.935   4.337
    1STR    H23 1016   4.317   7.688   4.554
    1STR    H27 1017   4.441   7.504   4.563
    1STR    H28 1018   4.816   5.635   4.394
    1STR    H29 1019   4.889   5.407   4.398
    1STR    H2A 1020   4.681   5.117   4.355
    1STR    H2B 1021   4.835   5.179   4.409
    1STR    H2C 1022   4.812   5.142   4.239
    1STR   BCK1 1023   4.432   5.131  12.759
    1STR    O03 1024   4.550   5.107  12.778
    1STR    N04 1025   4.394   5.260  12.782
    1STR    C05 1026   4.291   5.358  12.777
    1STR    C06 1027   4.328   5.497  12.794
    1STR    C07 1028   4.236   5.607  12.794
    1STR    N08 1029   4.274   5.745  12.811
    1STR    C09 1030   4.206   5.860  12.779
    1STR    O0A 1031   4.100   5.858  12.717
    1STR    O0B 1032   4.265   5.981  12.819
    1STR    C0C 1033   4.195   6.110  12.801
    1STR    C0D 1034   4.085   6.122  12.908
    1STR    C0E 1035   4.283   6.242  12.802
    1STR    O0F 1036   4.210   6.368  12.779
    1STR    C0G 1037   4.286   6.493  12.767
    1STR    C0H 1038   4.359   6.492  12.632
    1STR    C0I 1039   4.201   6.627  12.778
    1STR    O0J 1040   4.281   6.750  12.777
    1STR    C0K 1041   4.215   6.881  12.776
    1STR    C0M 1042   4.135   6.900  12.905
    1STR    C0N 1043   4.316   7.001  12.762
    1STR    O0O 1044   4.254   7.133  12.757
    1STR    C0P 1045   4.315   7.246  12.809
    1STR    O0Q 1046   4.417   7.246  12.877
    1STR    N0R 1047   4.246   7.357  12.777
    1STR    C0S 1048   4.254   7.496  12.808
    1STR    C0T 1049   4.154   7.575  12.748
    1STR    C0U 1050   4.140   7.712  12.778
    1STR    C0V 1051   4.227   7.775  12.868
    1STR    C0W 1052   4.195   7.918  12.910
    1STR    C0X 1053   4.336   7.702  12.924
    1STR    N0Y 1054   4.417   7.767  13.019
    1STR   BCK2 1055   4.483   7.885  13.010
    1STR    O10 1056   4.516   7.939  12.905
    1STR    C13 1057   4.347   7.562  12.895
    1STR    C14 1058   4.099   5.572  12.782
    1STR    C15 1059   4.059   5.439  12.766
    1STR    C16 1060   4.151   5.332  12.763
    1STR    C17 1061   4.091   5.194  12.746
    1STR    H1B 1062   4.480   5.300  12.817
    1STR    H1C 1063   4.433   5.520  12.807
    1STR    H1D 1064   4.363   5.764  12.854
    1STR    H1E 1065   4.147   6.106  12.703
    1STR    H1F 1066   4.126   6.128  13.008
    1STR    H1G 1067   4.024   6.211  12.891
    1STR    H1H 1068   4.016   6.037  12.904
    1STR    H1I 1069   4.360   6.230  12.726
    1STR    H1J 1070   4.335   6.249  12.897
    1STR    H1K 1071   4.359   6.496  12.848
    1STR    H1M 1072   4.289   6.479  12.550
    1STR    H1N 1073   4.434   6.413  12.625
    1STR    H1O 1074   4.412   6.586  12.616
    1STR    H1P 1075   4.129   6.630  12.696
    1STR    H1Q 1076   4.143   6.623  12.870
    1STR    H1R 1077   4.147   6.884  12.691
    1STR    H1S 1078   4.088   6.999  12.907
    1STR    H1T 1079   4.200   6.895  12.993
    1STR    H1U 1080   4.055   6.827  12.917
    1STR    H1V 1081   4.373   6.990  12.669
    1STR    H1W 1082   4.389   6.998  12.842
    1STR    H1X 1083   4.169   7.331  12.717
    1STR    H1Y 1084   4.082   7.532  12.680
    1STR    H1Z 1085   4.059   7.768  12.734
    1STR    H20 1086   4.212   7.932  13.017
    1STR    H21 1087   4.258   7.989  12.857
    1STR    H22 1088   4.091   7.943  12.891
    1STR    H23 1089   4.417   7.728  13.112
    1STR    H27 1090   4.425   7.504  12.941
    1STR    H28 1091   4.022   5.647  12.785
    1STR    H29 1092   3.953   5.419  12.757
    1STR    H2A 1093   4.138   5.143  12.663
    1STR    H2B 1094   3.985   5.199  12.721
    1STR    H2C 1095   4.100   5.137  12.839
    1STR   BCK1 1096   4.197   9.484  13.266
    1STR    O03 1097   4.133   9.449  13.168
    1STR    N04 1098   4.220   9.618  13.276
    1STR    C05 1099   4.278   9.724  13.353
    1STR    C06 1100   4.256   9.862  13.311
    1STR    C07 1101   4.307   9.979  13.380
    1STR    N08 1102   4.284  10.115  13.338
    1STR    C09 1103   4.300  10.234  13.407
    1STR    O0A 1104   4.330  10.236  13.526
    1STR    O0B 1105   4.280  10.356  13.335
    1STR    C0C 1106   4.310  10.488  13.396
    1STR    C0D 1107   4.463  10.504  13.397
    1STR    C0E 1108   4.243  10.621  13.336
    1STR    O0F 1109   4.279  10.750  13.399
    1STR    C0G 1110   4.212  10.876  13.357
    1STR    C0H 1111   4.067  10.870  13.408
    1STR    C0I 1112   4.278  11.014  13.407
    1STR    O0J 1113   4.222  11.142  13.357
    1STR    C0K 1114   4.276  11.272  13.405
    1STR    C0M 1115   4.424  11.282  13.366
    1STR    C0N 1116   4.205  11.407  13.354
    1STR    O0O 1117   4.251  11.531  13.419
    1STR    C0P 1118   4.248  11.660  13.361
    1STR    O0Q 1119   4.221  11.684  13.244
    1STR    N0R 1120   4.280  11.754  13.454
    1STR    C0S 1121   4.302  11.894  13.471
    1STR    C0T 1122   4.327  11.926  13.606
    1STR    C0U 1123   4.368  12.053  13.647
    1STR    C0V 1124   4.382  12.158  13.555
    1STR    C0W 1125   4.445  12.287  13.605
    1STR    C0X 1126   4.344  12.139  13.419
    1STR    N0Y 1127   4.357  12.254  13.334
    1STR   BCK2 1128   4.303  12.377  13.357
    1STR    O10 1129   4.207  12.395  13.430
    1STR    C13 1130   4.309  12.004  13.377
    1STR    C14 1131   4.386   9.950  13.493
    1STR    C15 1132   4.411   9.819  13.536
    1STR    C16 1133   4.359   9.706  13.468
    1STR    C17 1134   4.395   9.571  13.524
    1STR    H1B 1135   4.176   9.653  13.192
    1STR    H1C 1136   4.196   9.878  13.222
    1STR    H1D 1137   4.253  10.130  13.243
    1STR    H1E 1138   4.277  10.482  13.500
    1STR    H1F 1139   4.503  10.512  13.296
    1STR    H1G 1140   4.492  10.595  13.451
    1STR    H1H 1141   4.512  10.421  13.447
    1STR    H1I 1142   4.136  10.607  13.340
    1STR    H1J 1143   4.268  10.627  13.230
    1STR    H1K 1144   4.212  10.879  13.248
    1STR    H1M 1145   4.063  10.856  13.516
    1STR    H1N 1146   4.010  10.789  13.362
    1STR    H1O 1147   4.014  10.962  13.385
    1STR    H1P 1148   4.276  11.016  13.516
    1STR    H1Q 1149   4.383  11.010  13.380
    1STR    H1R 1150   4.267  11.272  13.514
    1STR    H1S 1151   4.465  11.378  13.395
    1STR    H1T 1152   4.436  11.272  13.258
    1STR    H1U 1153   4.485  11.206  13.415
    1STR    H1V 1154   4.098  11.400  13.372
    1STR    H1W 1155   4.216  11.418  13.246
    1STR    H1X 1156   4.290  11.703  13.540
    1STR    H1Y 1157   4.320  11.850  13.682
    1STR    H1Z 1158   4.391  12.070  13.751
    1STR    H20 1159   4.518  12.324  13.533
    1STR    H21 1160   4.370  12.363  13.622
    1STR    H22 1161   4.499  12.271  13.699
    1STR    H23 1162   4.420  12.248  13.256
    1STR    H27 1163   4.287  11.985  13.272
    1STR    H28 1164   4.432  10.029  13.550
    1STR    H29 1165   4.473   9.804  13.623
    1STR    H2A 1166   4.306   9.522  13.563
    1STR    H2B 1167   4.466   9.578  13.606
    1STR    H2C 1168   4.442   9.510  13.447
    1STR   BCK1 1169   4.471  13.828  17.199
    1STR    O03 1170   4.428  13.766  17.296
    1STR    N04 1171   4.484  13.964  17.215
    1STR    C05 1172   4.541  14.082  17.158
    1STR    C06 1173   4.506  14.214  17.209
    1STR    C07 1174   4.569  14.339  17.168
    1STR    N08 1175   4.544  14.471  17.223
    1STR    C09 1176   4.577  14.596  17.174
    1STR    O0A 1177   4.624  14.610  17.061
    1STR    O0B 1178   4.555  14.711  17.257
    1STR    C0C 1179   4.581  14.849  17.206
    1STR    C0D 1180   4.469  14.884  17.107
    1STR    C0E 1181   4.600  14.973  17.307
    1STR    O0F 1182   4.620  15.109  17.247
    1STR    C0G 1183   4.646  15.229  17.331
    1STR    C0H 1184   4.787  15.213  17.392
    1STR    C0I 1185   4.636  15.374  17.261
    1STR    O0J 1186   4.647  15.496  17.345
    1STR    C0K 1187   4.647  15.632  17.285
    1STR    C0M 1188   4.516  15.652  17.207
    1STR    C0N 1189   4.663  15.758  17.384
    1STR    O0O 1190   4.667  15.894  17.325
    1STR    C0P 1191   4.639  16.013  17.397
    1STR    O0Q 1192   4.600  16.015   0.073
    1STR    N0R 1193   4.659  16.125  17.323
    1STR    C0S 1194   4.640  16.267  17.336
    1STR    C0T 1195   4.665  16.341  17.218
    1STR    C0U 1196   4.642  16.480  17.211
    1STR    C0V 1197   4.596  16.554  17.322
    1STR    C0W 1198   4.562  16.700  17.298
    1STR    C0X 1199   4.578  16.489   0.007
    1STR    N0Y 1200   4.537  16.554   0.128
    1STR   BCK2 1201   4.514  16.672   0.194
    1STR    O10 1202   4.483  16.658   0.312
    1STR    C13 1203   4.599  16.345   0.010
    1STR    C14 1204   4.670  14.323  17.070
    1STR    C15 1205   4.705  14.197  17.018
    1STR    C16 1206   4.645  14.078  17.061
    1STR    C17 1207   4.703  13.950  17.005
    1STR    H1B 1208   4.438  13.983  17.303
    1STR    H1C 1209   4.429  14.220  17.284
    1STR    H1D 1210   4.495  14.475  17.311
    1STR    H1E 1211   4.674  14.843  17.149
    1STR    H1F 1212   4.373  14.892  17.158
    1STR    H1G 1213   4.489  14.979  17.058
    1STR    H1H 1214   4.459  14.809  17.029
    1STR    H1I 1215   4.685  14.950  17.371
    1STR    H1J 1216   4.514  14.979  17.373
    1STR    H1K 1217   4.573  15.228  17.412
    1STR    H1M 1218   4.862  15.202  17.314
    1STR    H1N 1219   4.794  15.127   0.019
    1STR    H1O 1220   4.813  15.301   0.011
    1STR    H1P 1221   4.713  15.379  17.183
    1STR    H1Q 1222   4.541  15.377  17.209
    1STR    H1R 1223   4.730  15.637  17.214
    1STR    H1S 1224   4.511  15.752  17.164
    1STR    H1T 1225   4.430  15.640  17.272
    1STR    H1U 1226   4.506  15.582  17.124
    1STR    H1V 1227   4.756  15.747   0.001
    1STR    H1W 1228   4.584  15.757   0.019
    1STR    H1X 1229   4.696  16.097  17.234
    1STR    H1Y 1230   4.699  16.292  17.129
    1STR    H1Z 1231   4.658  16.530  17.116
    1STR    H20 1232   4.461  16.722  17.334
    1STR    H21 1233   4.633  16.765  17.347
    1STR    H22 1234   4.563  16.725  17.191
    1STR    H23 1235   4.517  16.486   0.198
    1STR    H27 1236   4.582  16.292   0.102
    1STR    H28 1237   4.727  14.407  17.033
    1STR    H29 1238   4.784  14.194  16.944
    1STR    H2A 1239   4.719  13.878  17.085
    1STR    H2B 1240   4.799  13.967  16.957
    1STR    H2C 1241   4.636  13.909  16.930
    1STR   BCK1 1242  12.929   0.751   4.490
    1STR    O03 1243  13.046   0.717   4.506
    1STR    N04 1244  12.911   0.885   4.469
    1STR    C05 1245  12.817   0.992   4.449
    1STR    C06 1246  12.867   1.128   4.438
    1STR    C07 1247  12.783   1.245   4.420
    1STR    N08 1248  12.831   1.380   4.402
    1STR    C09 1249  12.764   1.499   4.418
    1STR    O0A 1250  12.653   1.505   4.468
    1STR    O0B 1251  12.830   1.617   4.375
    1STR    C0C 1252  12.767   1.750   4.392
    1STR    C0D 1253  12.777   1.791   4.540
    1STR    C0E 1254  12.818   1.871   4.302
    1STR    O0F 1255  12.752   2.001   4.329
    1STR    C0G 1256  12.787   2.120   4.250
    1STR    C0H 1257  12.728   2.104   4.109
    1STR    C0I 1258  12.736   2.257   4.312
    1STR    O0J 1259  12.776   2.379   4.240
    1STR    C0K 1260  12.729   2.510   4.287
    1STR    C0M 1261  12.791   2.539   4.425
    1STR    C0N 1262  12.761   2.632   4.192
    1STR    O0O 1263  12.699   2.757   4.232
    1STR    C0P 1264  12.756   2.882   4.207
    1STR    O0Q 1265  12.866   2.900   4.155
    1STR    N0R 1266  12.675   2.980   4.250
    1STR    C0S 1267  12.687   3.121   4.267
    1STR    C0T 1268  12.604   3.174   4.368
    1STR    C0U 1269  12.609   3.310   4.404
    1STR    C0V 1270  12.694   3.399   4.337
    1STR    C0W 1271  12.707   3.540   4.392
    1STR    C0X 1272  12.771   3.354   4.226
    1STR    N0Y 1273  12.851   3.445   4.154
    1STR   BCK2 1274  12.804   3.536   4.066
    1STR    O10 1275  12.831   3.520   3.947
    1STR    C13 1276  12.770   3.213   4.196
    1STR    C14 1277  12.645   1.218   4.413
    1STR    C15 1278  12.593   1.088   4.423
    1STR    C16 1279  12.677   0.976   4.438
    1STR    C17 1280  12.609   0.841   4.439
    1STR    H1B 1281  13.005   0.920   4.468
    1STR    H1C 1282  12.973   1.144   4.444
    1STR    H1D 1283  12.926   1.392   4.373
    1STR    H1E 1284  12.662   1.737   4.368
    1STR    H1F 1285  12.881   1.807   4.570
    1STR    H1G 1286  12.722   1.883   4.558
    1STR    H1H 1287  12.735   1.715   4.605
    1STR    H1I 1288  12.804   1.845   4.197
    1STR    H1J 1289  12.925   1.884   4.315
    1STR    H1K 1290  12.895   2.126   4.244
    1STR    H1M 1291  12.620   2.091   4.112
    1STR    H1N 1292  12.771   2.019   4.056
    1STR    H1O 1293  12.749   2.193   4.049
    1STR    H1P 1294  12.627   2.255   4.319
    1STR    H1Q 1295  12.773   2.263   4.414
    1STR    H1R 1296  12.620   2.504   4.298
    1STR    H1S 1297  12.761   2.638   4.460
    1STR    H1T 1298  12.900   2.539   4.419
    1STR    H1U 1299  12.760   2.468   4.501
    1STR    H1V 1300  12.725   2.610   4.091
    1STR    H1W 1301  12.869   2.645   4.182
    1STR    H1X 1302  12.590   2.940   4.284
    1STR    H1Y 1303  12.538   3.110   4.425
    1STR    H1Z 1304  12.549   3.344   4.486
    1STR    H20 1305  12.812   3.562   4.414
    1STR    H21 1306  12.670   3.614   4.322
    1STR    H22 1307  12.652   3.553   4.485
    1STR    H23 1308  12.938   3.405   4.122
    1STR    H27 1309  12.832   3.175   4.115
    1STR    H28 1310  12.573   1.298   4.398
    1STR    H29 1311  12.486   1.075   4.415
    1STR    H2A 1312  12.653   0.778   4.362
    1STR    H2B 1313  12.503   0.849   4.416
    1STR    H2C 1314  12.617   0.795   4.537
    1STR   BCK1 1315  13.160   5.169   0.250
    1STR    O03 1316  13.176   5.164   0.372
    1STR    N04 1317  13.170   5.285   0.180
    1STR    C05 1318  13.253   5.398   0.206
    1STR    C06 1319  13.207   5.535   0.196
    1STR    C07 1320  13.294   5.649   0.210
    1STR    N08 1321  13.250   5.785   0.201
    1STR    C09 1322  13.313   5.901   0.238
    1STR    O0A 1323  13.422   5.903   0.294
    1STR    O0B 1324  13.245   6.021   0.207
    1STR    C0C 1325  13.312   6.151   0.225
    1STR    C0D 1326  13.407   6.173   0.106
    1STR    C0E 1327  13.219   6.278   0.242
    1STR    O0F 1328  13.289   6.407   0.258
    1STR    C0G 1329  13.211   6.528   0.287
    1STR    C0H 1330  13.164   6.520   0.433
    1STR    C0I 1331  13.288   6.665   0.263
    1STR    O0J 1332  13.205   6.786   0.270
    1STR    C0K 1333  13.266   6.918   0.252
    1STR    C0M 1334  13.331   6.928   0.114
    1STR    C0N 1335  13.165   7.040   0.268
    1STR    O0O 1336  13.221   7.173   0.247
    1STR    C0P 1337  13.148   7.280   0.193
    1STR    O0Q 1338  13.037   7.270   0.142
    1STR    N0R 1339  13.216   7.396   0.205
    1STR    C0S 1340  13.201   7.533   0.168
    1STR    C0T 1341  13.296   7.617   0.230
    1STR    C0U 1342  13.307   7.753   0.196
    1STR    C0V 1343  13.222   7.812   0.101
    1STR    C0W 1344  13.257   7.954   0.058
    1STR    C0X 1345  13.116   7.737   0.043
    1STR    N0Y 1346  13.033   7.799  17.384
    1STR   BCK2 1347  12.971   7.921  17.382
    1STR    O10 1348  12.961   7.993   0.041
    1STR    C13 1349  13.109   7.596   0.076
    1STR    C14 1350  13.431   5.619   0.230
    1STR    C15 1351  13.478   5.487   0.239
    1STR    C16 1352  13.392   5.377   0.228
    1STR    C17 1353  13.455   5.239   0.232
    1STR    H1B 1354  13.114   5.288   0.097
    1STR    H1C 1355  13.102   5.551   0.177
    1STR    H1D 1356  13.158   5.802   0.163
    1STR    H1E 1357  13.372   6.145   0.315
    1STR    H1F 1358  13.353   6.181   0.012
    1STR    H1G 1359  13.465   6.265   0.119
    1STR    H1H 1360  13.478   6.091   0.096
    1STR    H1I 1361  13.155   6.260   0.329
    1STR    H1J 1362  13.152   6.286   0.157
    1STR    H1K 1363  13.124   6.528   0.221
    1STR    H1M 1364  13.248   6.507   0.501
    1STR    H1N 1365  13.095   6.437   0.450
    1STR    H1O 1366  13.112   6.611   0.462
    1STR    H1P 1367  13.370   6.673   0.335
    1STR    H1Q 1368  13.335   6.659   0.165
    1STR    H1R 1369  13.344   6.930   0.328
    1STR    H1S 1370  13.375   7.027   0.098
    1STR    H1T 1371  13.257   6.912   0.035
    1STR    H1U 1372  13.412   6.856   0.100
    1STR    H1V 1373  13.124   7.038   0.369
    1STR    H1W 1374  13.080   7.025   0.202
    1STR    H1X 1375  13.300   7.376   0.255
    1STR    H1Y 1376  13.366   7.578   0.302
    1STR    H1Z 1377  13.385   7.812   0.243
    1STR    H20 1378  13.238   7.969  17.392
    1STR    H21 1379  13.199   8.026   0.115
    1STR    H22 1380  13.363   7.975   0.075
    1STR    H23 1381  13.018   7.745  17.300
    1STR    H27 1382  13.034   7.534   0.030
    1STR    H28 1383  13.506   5.697   0.237
    1STR    H29 1384  13.584   5.472   0.253
    1STR    H2A 1385  13.424   5.186   0.322
    1STR    H2B 1386  13.563   5.243   0.233
    1STR    H2C 1387  13.425   5.180   0.145
    1STR   BCK1 1388  12.953   5.242  12.975
    1STR    O03 1389  12.833   5.250  12.953
    1STR    N04 1390  13.039   5.344  12.955
    1STR    C05 1391  13.018   5.453  12.867
    1STR    C06 1392  13.031   5.591  12.904
    1STR    C07 1393  13.016   5.697  12.808
    1STR    N08 1394  13.035   5.834  12.841
    1STR    C09 1395  13.012   5.946  12.767
    1STR    O0A 1396  12.961   5.945  12.655
    1STR    O0B 1397  13.052   6.064  12.827
    1STR    C0C 1398  13.028   6.190  12.759
    1STR    C0D 1399  12.881   6.231  12.776
    1STR    C0E 1400  13.122   6.306  12.805
    1STR    O0F 1401  13.095   6.428  12.734
    1STR    C0G 1402  13.176   6.543  12.766
    1STR    C0H 1403  13.312   6.529  12.695
    1STR    C0I 1404  13.104   6.674  12.721
    1STR    O0J 1405  13.168   6.795  12.771
    1STR    C0K 1406  13.103   6.920  12.737
    1STR    C0M 1407  12.970   6.933  12.812
    1STR    C0N 1408  13.191   7.044  12.770
    1STR    O0O 1409  13.134   7.161  12.708
    1STR    C0P 1410  13.121   7.282  12.770
    1STR    O0Q 1411  13.142   7.306  12.888
    1STR    N0R 1412  13.087   7.370  12.676
    1STR    C0S 1413  13.068   7.509  12.666
    1STR    C0T 1414  13.095   7.559  12.538
    1STR    C0U 1415  13.074   7.693  12.507
    1STR    C0V 1416  13.020   7.782  12.600
    1STR    C0W 1417  12.999   7.922  12.547
    1STR    C0X 1418  12.987   7.738  12.732
    1STR    N0Y 1419  12.916   7.814  12.830
    1STR   BCK2 1420  12.864   7.936  12.858
    1STR    O10 1421  12.783   7.943  12.949
    1STR    C13 1422  13.015   7.600  12.763
    1STR    C14 1423  12.986   5.658  12.675
    1STR    C15 1424  12.977   5.523  12.638
    1STR    C16 1425  12.997   5.421  12.731
    1STR    C17 1426  13.002   5.278  12.680
    1STR    H1B 1427  13.133   5.329  12.989
    1STR    H1C 1428  13.053   5.615  13.007
    1STR    H1D 1429  13.070   5.857  12.933
    1STR    H1E 1430  13.047   6.176  12.652
    1STR    H1F 1431  12.855   6.247  12.881
    1STR    H1G 1432  12.859   6.323  12.722
    1STR    H1H 1433  12.814   6.154  12.736
    1STR    H1I 1434  13.226   6.275  12.788
    1STR    H1J 1435  13.111   6.322  12.912
    1STR    H1K 1436  13.190   6.549  12.874
    1STR    H1M 1437  13.300   6.517  12.588
    1STR    H1N 1438  13.369   6.443  12.732
    1STR    H1O 1439  13.374   6.617  12.711
    1STR    H1P 1440  13.098   6.678  12.612
    1STR    H1Q 1441  13.002   6.669  12.757
    1STR    H1R 1442  13.085   6.920  12.629
    1STR    H1S 1443  12.925   7.030  12.793
    1STR    H1T 1444  12.985   6.924  12.920
    1STR    H1U 1445  12.897   6.858  12.782
    1STR    H1V 1446  13.291   7.031  12.730
    1STR    H1W 1447  13.202   7.058  12.878
    1STR    H1X 1448  13.081   7.321  12.589
    1STR    H1Y 1449  13.134   7.494  12.461
    1STR    H1Z 1450  13.097   7.726  12.407
    1STR    H20 1451  12.894   7.948  12.552
    1STR    H21 1452  13.062   7.991  12.603
    1STR    H22 1453  13.029   7.932  12.443
    1STR    H23 1454  12.889   7.757  12.909
    1STR    H27 1455  12.993   7.561  12.861
    1STR    H28 1456  12.972   5.728  12.596
    1STR    H29 1457  12.957   5.499  12.534
    1STR    H2A 1458  13.086   5.225  12.723
    1STR    H2B 1459  13.014   5.275  12.571
    1STR    H2C 1460  12.910   5.225  12.705
    1STR   BCK1 1461  13.217  13.838   8.869
    1STR    O03 1462  13.267  13.833   8.981
    1STR    N04 1463  13.149  13.949   8.823
    1STR    C05 1464  13.089  14.058   8.894
    1STR    C06 1465  13.099  14.200   8.858
    1STR    C07 1466  13.026  14.308   8.925
    1STR    N08 1467  13.028  14.450   8.889
    1STR    C09 1468  12.978  14.562   8.954
    1STR    O0A 1469  12.930  14.555   9.067
    1STR    O0B 1470  12.984  14.691   8.888
    1STR    C0C 1471  12.943  14.819   8.956
    1STR    C0D 1472  13.051  14.853   9.060
    1STR    C0E 1473  12.908  14.954   8.873
    1STR    O0F 1474  12.891  15.084   8.946
    1STR    C0G 1475  12.847  15.210   8.878
    1STR    C0H 1476  12.698  15.195   8.846
    1STR    C0I 1477  12.870  15.351   8.955
    1STR    O0J 1478  12.848  15.482   8.886
    1STR    C0K 1479  12.866  15.613   8.957
    1STR    C0M 1480  13.011  15.620   9.007
    1STR    C0N 1481  12.838  15.753   8.881
    1STR    O0O 1482  12.854  15.877   8.960
    1STR    C0P 1483  12.875  16.008   8.906
    1STR    O0Q 1484  12.898  16.031   8.788
    1STR    N0R 1485  12.863  16.106   9.001
    1STR    C0S 1486  12.862  16.250   9.013
    1STR    C0T 1487  12.768  16.296   9.107
    1STR    C0U 1488  12.764  16.429   9.150
    1STR    C0V 1489  12.855  16.525   9.102
    1STR    C0W 1490  12.850  16.661   9.169
    1STR    C0X 1491  12.950  16.491   9.001
    1STR    N0Y 1492  13.050  16.581   8.955
    1STR   BCK2 1493  13.097  16.711   8.957
    1STR    O10 1494  13.211  16.725   8.916
    1STR    C13 1495  12.950  16.351   8.958
    1STR    C14 1496  12.942  14.264   9.030
    1STR    C15 1497  12.927  14.128   9.064
    1STR    C16 1498  12.996  14.026   8.997
    1STR    C17 1499  12.961  13.882   9.033
    1STR    H1B 1500  13.126  13.943   8.725
    1STR    H1C 1501  13.166  14.225   8.777
    1STR    H1D 1502  13.073  14.473   8.802
    1STR    H1E 1503  12.852  14.794   9.012
    1STR    H1F 1504  13.145  14.880   9.011
    1STR    H1G 1505  13.020  14.938   9.121
    1STR    H1H 1506  13.070  14.770   9.128
    1STR    H1I 1507  12.817  14.934   8.816
    1STR    H1J 1508  12.986  14.969   8.798
    1STR    H1K 1509  12.903  15.217   8.784
    1STR    H1M 1510  12.639  15.181   8.937
    1STR    H1N 1511  12.677  15.111   8.780
    1STR    H1O 1512  12.659  15.284   8.796
    1STR    H1P 1513  12.808  15.351   9.045
    1STR    H1Q 1514  12.973  15.350   8.991
    1STR    H1R 1515  12.800  15.611   9.043
    1STR    H1S 1516  13.030  15.715   9.056
    1STR    H1T 1517  13.081  15.612   8.924
    1STR    H1U 1518  13.034  15.542   9.080
    1STR    H1V 1519  12.735  15.753   8.843
    1STR    H1W 1520  12.900  15.761   8.792
    1STR    H1X 1521  12.839  16.060   9.086
    1STR    H1Y 1522  12.697  16.228   9.151
    1STR    H1Z 1523  12.692  16.457   9.225
    1STR    H20 1524  12.950  16.690   9.201
    1STR    H21 1525  12.808  16.735   9.101
    1STR    H22 1526  12.788  16.661   9.258
    1STR    H23 1527  13.120  16.534   8.900
    1STR    H27 1528  13.023  16.319   8.885
    1STR    H28 1529  12.881  14.332   9.086
    1STR    H29 1530  12.858  14.103   9.143
    1STR    H2A 1531  12.954  13.819   8.944
    1STR    H2B 1532  12.864  13.877   9.082
    1STR    H2C 1533  13.035  13.840   9.100
    1STR   BCK1 1534  13.070  14.002  12.946
    1STR    O03 1535  13.063  14.008  12.824
    1STR    N04 1536  13.116  14.104  13.025
    1STR    C05 1537  13.210  14.207  12.996
    1STR    C06 1538  13.190  14.349  13.018
    1STR    C07 1539  13.295  14.449  13.002
    1STR    N08 1540  13.277  14.591  13.027
    1STR    C09 1541  13.360  14.699  13.007
    1STR    O0A 1542  13.471  14.688  12.957
    1STR    O0B 1543  13.310  14.827  13.046
    1STR    C0C 1544  13.382  14.953  13.015
    1STR    C0D 1545  13.364  14.980  12.864
    1STR    C0E 1546  13.343  15.085  13.099
    1STR    O0F 1547  13.397  15.216  13.056
    1STR    C0G 1548  13.373  15.338  13.137
    1STR    C0H 1549  13.463  15.325  13.262
    1STR    C0I 1550  13.398  15.481  13.067
    1STR    O0J 1551  13.346  15.606  13.130
    1STR    C0K 1552  13.366  15.740  13.066
    1STR    C0M 1553  13.306  15.734  12.925
    1STR    C0N 1554  13.307  15.872  13.139
    1STR    O0O 1555  13.325  16.003  13.072
    1STR    C0P 1556  13.252  16.122  13.104
    1STR    O0Q 1557  13.159  16.126  13.184
    1STR    N0R 1558  13.299  16.233  13.038
    1STR    C0S 1559  13.277  16.376  13.029
    1STR    C0T 1560  13.395  16.445  12.993
    1STR    C0U 1561  13.395  16.582  12.964
    1STR    C0V 1562  13.277  16.659  12.967
    1STR    C0W 1563  13.287  16.803  12.919
    1STR    C0X 1564  13.154  16.601  13.008
    1STR    N0Y 1565  13.034  16.681  13.010
    1STR   BCK2 1566  13.012  16.811  13.048
    1STR    O10 1567  12.968  16.828  13.161
    1STR    C13 1568  13.157  16.457  13.038
    1STR    C14 1569  13.421  14.398  12.964
    1STR    C15 1570  13.444  14.260  12.946
    1STR    C16 1571  13.342  14.165  12.964
    1STR    C17 1572  13.379  14.017  12.958
    1STR    H1B 1573  13.099  14.088  13.123
    1STR    H1C 1574  13.092  14.381  13.048
    1STR    H1D 1575  13.189  14.619  13.066
    1STR    H1E 1576  13.488  14.934  13.032
    1STR    H1F 1577  13.259  14.995  12.839
    1STR    H1G 1578  13.419  15.069  12.834
    1STR    H1H 1579  13.402  14.897  12.804
    1STR    H1I 1580  13.373  15.066  13.201
    1STR    H1J 1581  13.234  15.093  13.101
    1STR    H1K 1582  13.268  15.337  13.168
    1STR    H1M 1583  13.567  15.312  13.235
    1STR    H1N 1584  13.435  15.241  13.325
    1STR    H1O 1585  13.456  15.415  13.325
    1STR    H1P 1586  13.505  15.493  13.051
    1STR    H1Q 1587  13.355  15.473  12.967
    1STR    H1R 1588  13.474  15.755  13.057
    1STR    H1S 1589  13.310  15.832  12.877
    1STR    H1T 1590  13.201  15.703  12.929
    1STR    H1U 1591  13.360  15.665  12.860
    1STR    H1V 1592  13.353  15.881  13.238
    1STR    H1W 1593  13.200  15.859  13.158
    1STR    H1X 1594  13.378  16.202  12.985
    1STR    H1Y 1595  13.489  16.393  12.987
    1STR    H1Z 1596  13.488  16.629  12.934
    1STR    H20 1597  13.207  16.826  12.849
    1STR    H21 1598  13.282  16.872  13.004
    1STR    H22 1599  13.381  16.822  12.867
    1STR    H23 1600  12.952  16.627  13.029
    1STR    H27 1601  13.066  16.407  13.066
    1STR    H28 1602  13.507  14.461  12.950
    1STR    H29 1603  13.543  14.227  12.920
    1STR    H2A 1604  13.336  13.963  13.042
    1STR    H2B 1605  13.487  14.002  12.962
    1STR    H2C 1606  13.341  13.972  12.866
    1STR   BCK1 1607   0.045  13.154   5.232
    1STR    O03 1608  17.396  13.233   5.205
    1STR    N04 1609   0.113  13.154   5.350
    1STR    C05 1610   0.113  13.253   5.450
    1STR    C06 1611   0.106  13.221   5.590
    1STR    C07 1612   0.115  13.321   5.692
    1STR    N08 1613   0.114  13.289   5.831
    1STR    C09 1614   0.143  13.366   5.938
    1STR    O0A 1615   0.179  13.483   5.931
    1STR    O0B 1616   0.129  13.301   6.058
    1STR    C0C 1617   0.147  13.374   6.182
    1STR    C0D 1618   0.016  13.445   6.220
    1STR    C0E 1619   0.196  13.284   6.299
    1STR    O0F 1620   0.216  13.360   6.419
    1STR    C0G 1621   0.264  13.289   6.534
    1STR    C0H 1622   0.415  13.265   6.520
    1STR    C0I 1623   0.233  13.368   6.664
    1STR    O0J 1624   0.265  13.290   6.780
    1STR    C0K 1625   0.239  13.350   6.908
    1STR    C0M 1626   0.087  13.353   6.936
    1STR    C0N 1627   0.311  13.267   7.017
    1STR    O0O 1628   0.297  13.323   7.148
    1STR    C0P 1629   0.227  13.260   7.245
    1STR    O0Q 1630   0.163  13.157   7.231
    1STR    N0R 1631   0.240  13.327   7.360
    1STR    C0S 1632   0.187  13.308   7.489
    1STR    C0T 1633   0.227  13.400   7.587
    1STR    C0U 1634   0.174  13.394   7.717
    1STR    C0V 1635   0.079  13.296   7.753
    1STR    C0W 1636   0.017  13.307   7.891
    1STR    C0X 1637   0.040  13.198   7.657
    1STR    N0Y 1638  17.378  13.104   7.681
    1STR   BCK2 1639  17.344  13.031   7.788
    1STR    O10 1640  17.408  13.020   7.892
    1STR    C13 1641   0.095  13.206   7.526
    1STR    C14 1642   0.124  13.455   5.649
    1STR    C15 1643   0.135  13.488   5.513
    1STR    C16 1644   0.134  13.389   5.414
    1STR    C17 1645   0.162  13.433   5.271
    1STR    H1B 1646   0.177  13.077   5.361
    1STR    H1C 1647   0.095  13.117   5.618
    1STR    H1D 1648   0.089  13.195   5.857
    1STR    H1E 1649   0.225  13.450   6.168
    1STR    H1F 1650  17.375  13.374   6.236
    1STR    H1G 1651   0.028  13.504   6.311
    1STR    H1H 1652  17.425  13.514   6.141
    1STR    H1I 1653   0.290  13.236   6.269
    1STR    H1J 1654   0.124  13.204   6.317
    1STR    H1K 1655   0.211  13.193   6.542
    1STR    H1M 1656   0.469  13.359   6.508
    1STR    H1N 1657   0.439  13.201   6.436
    1STR    H1O 1658   0.455  13.216   6.609
    1STR    H1P 1659   0.288  13.462   6.665
    1STR    H1Q 1660   0.127  13.395   6.664
    1STR    H1R 1661   0.279  13.452   6.910
    1STR    H1S 1662   0.067  13.393   7.035
    1STR    H1T 1663   0.046  13.252   6.933
    1STR    H1U 1664   0.033  13.414   6.865
    1STR    H1V 1665   0.418  13.264   6.994
    1STR    H1W 1666   0.278  13.163   7.014
    1STR    H1X 1667   0.300  13.407   7.347
    1STR    H1Y 1668   0.298  13.479   7.565
    1STR    H1Z 1669   0.205  13.468   7.789
    1STR    H20 1670  17.351  13.282   7.888
    1STR    H21 1671   0.068  13.240   7.961
    1STR    H22 1672   0.025  13.409   7.930
    1STR    H23 1673  17.319  13.085   7.602
    1STR    H27 1674   0.064  13.134   7.452
    1STR    H28 1675   0.126  13.538   5.717
    1STR    H29 1676   0.147  13.592   5.485
    1STR    H2A 1677   0.219  13.358   5.217
    1STR    H2B 1678   0.220  13.525   5.270
    1STR    H2C 1679   0.069  13.452   5.218
    1STR   BCK1 1680   4.368   4.346  13.971
    1STR    O03 1681   4.387   4.228  13.940
    1STR    N04 1682   4.307   4.387  14.084
    1STR    C05 1683   4.225   4.315  14.174
    1STR    C06 1684   4.238   4.329  14.316
    1STR    C07 1685   4.147   4.269  14.409
    1STR    N08 1686   4.159   4.288  14.550
    1STR    C09 1687   4.081   4.246  14.652
    1STR    O0A 1688   3.979   4.179  14.639
    1STR    O0B 1689   4.125   4.288  14.776
    1STR    C0C 1690   4.057   4.245  14.897
    1STR    C0D 1691   4.102   4.103  14.934
    1STR    C0E 1692   4.080   4.343  15.016
    1STR    O0F 1693   4.014   4.299  15.138
    1STR    C0G 1694   4.027   4.385  15.252
    1STR    C0H 1695   3.930   4.504  15.237
    1STR    C0I 1696   3.997   4.309  15.385
    1STR    O0J 1697   4.025   4.391  15.500
    1STR    C0K 1698   3.999   4.334  15.630
    1STR    C0M 1699   4.102   4.224  15.661
    1STR    C0N 1700   4.007   4.445  15.740
    1STR    O0O 1701   3.963   4.396  15.867
    1STR    C0P 1702   4.024   4.432  15.983
    1STR    O0Q 1703   4.124   4.502  15.992
    1STR    N0R 1704   3.961   4.376  16.087
    1STR    C0S 1705   3.990   4.368  16.224
    1STR    C0T 1706   3.932   4.261  16.294
    1STR    C0U 1707   3.964   4.237  16.428
    1STR    C0V 1708   4.054   4.320  16.497
    1STR    C0W 1709   4.102   4.276  16.634
    1STR    C0X 1710   4.106   4.436  16.433
    1STR    N0Y 1711   4.203   4.517  16.494
    1STR   BCK2 1712   4.217   4.579  16.613
    1STR    O10 1713   4.323   4.636  16.635
    1STR    C13 1714   4.076   4.456  16.295
    1STR    C14 1715   4.042   4.192  14.353
    1STR    C15 1716   4.026   4.179  14.215
    1STR    C16 1717   4.114   4.242  14.125
    1STR    C17 1718   4.081   4.234  13.977
    1STR    H1B 1719   4.315   4.485  14.100
    1STR    H1C 1720   4.320   4.388  14.354
    1STR    H1D 1721   4.238   4.341  14.583
    1STR    H1E 1722   3.949   4.243  14.877
    1STR    H1F 1723   4.209   4.099  14.954
    1STR    H1G 1724   4.050   4.068  15.023
    1STR    H1H 1725   4.080   4.032  14.854
    1STR    H1I 1726   4.042   4.441  14.987
    1STR    H1J 1727   4.186   4.354  15.034
    1STR    H1K 1728   4.130   4.422  15.259
    1STR    H1M 1729   3.828   4.470  15.225
    1STR    H1N 1730   3.955   4.567  15.152
    1STR    H1O 1731   3.933   4.568  15.326
    1STR    H1P 1732   3.893   4.276  15.386
    1STR    H1Q 1733   4.059   4.219  15.387
    1STR    H1R 1734   3.898   4.293  15.631
    1STR    H1S 1735   4.088   4.186  15.762
    1STR    H1T 1736   4.203   4.263  15.655
    1STR    H1U 1737   4.094   4.139  15.594
    1STR    H1V 1738   3.942   4.528  15.713
    1STR    H1W 1739   4.108   4.485  15.745
    1STR    H1X 1740   3.881   4.324  16.054
    1STR    H1Y 1741   3.866   4.192  16.244
    1STR    H1Z 1742   3.923   4.150  16.477
    1STR    H20 1743   4.208   4.296  16.646
    1STR    H21 1744   4.045   4.328  16.711
    1STR    H22 1745   4.088   4.169  16.648
    1STR    H23 1746   4.283   4.536  16.437
    1STR    H27 1747   4.120   4.540  16.243
    1STR    H28 1748   3.968   4.142  14.414
    1STR    H29 1749   3.942   4.122  14.177
    1STR    H2A 1750   4.100   4.328  13.927
    1STR    H2B 1751   3.976   4.210  13.960
    1STR    H2C 1752   4.141   4.156  13.929
    1STR   BCK1 1753   8.599  17.173  13.779
    1STR    O03 1754   8.636  17.057  13.762
    1STR    N04 1755   8.626  17.242  13.897
    1STR    C05 1756   8.725  17.229  14.006
    1STR    C06 1757   8.700  17.231  14.152
    1STR    C07 1758   8.803  17.239  14.258
    1STR    N08 1759   8.784  17.242  14.406
    1STR    C09 1760   8.872  17.245  14.516
    1STR    O0A 1761   8.994  17.244  14.499
    1STR    O0B 1762   8.820  17.250  14.657
    1STR    C0C 1763   8.906  17.260  14.784
    1STR    C0D 1764   8.976  17.397  14.785
    1STR    C0E 1765   8.846  17.232  14.937
    1STR    O0F 1766   8.921  17.259  15.068
    1STR    C0G 1767   8.871  17.214  15.206
    1STR    C0H 1768   8.893  17.062  15.207
    1STR    C0I 1769   8.927  17.271  15.351
    1STR    O0J 1770   8.854  17.244  15.483
    1STR    C0K 1771   8.907  17.273  15.623
    1STR    C0M 1772   8.963  17.416  15.628
    1STR    C0N 1773   8.811  17.252  15.756
    1STR    O0O 1774   8.853  17.288  15.896
    1STR    C0P 1775   8.762  17.304  16.011
    1STR    O0Q 1776   8.640  17.298  16.002
    1STR    N0R 1777   8.825  17.324  16.132
    1STR    C0S 1778   8.804  17.353  16.275
    1STR    C0T 1779   8.925  17.340  16.345
    1STR    C0U 1780   8.941  17.388  16.475
    1STR    C0V 1781   8.836   0.009  16.546
    1STR    C0W 1782   8.886   0.094  16.662
    1STR    C0X 1783   8.700   0.002  16.499
    1STR    N0Y 1784   8.585   0.033  16.585
    1STR   BCK2 1785   8.561   0.081  16.714
    1STR    O10 1786   8.648   0.127  16.785
    1STR    C13 1787   8.690  17.397  16.358
    1STR    C14 1788   8.935  17.249  14.206
    1STR    C15 1789   8.962  17.247  14.068
    1STR    C16 1790   8.862  17.237  13.969
    1STR    C17 1791   8.911  17.245  13.825
    1STR    H1B 1792   8.577  17.330  13.900
    1STR    H1C 1793   8.597  17.227  14.183
    1STR    H1D 1794   8.688  17.241  14.437
    1STR    H1E 1795   8.986  17.186  14.769
    1STR    H1F 1796   8.905   0.039  14.797
    1STR    H1G 1797   9.048  17.403  14.866
    1STR    H1H 1798   9.032  17.415  14.693
    1STR    H1I 1799   8.817  17.127  14.938
    1STR    H1J 1800   8.753  17.288  14.945
    1STR    H1K 1801   8.764  17.234  15.206
    1STR    H1M 1802   8.999  17.037  15.196
    1STR    H1N 1803   8.839  17.010  15.128
    1STR    H1O 1804   8.860  17.018  15.302
    1STR    H1P 1805   9.030  17.235  15.364
    1STR    H1Q 1806   8.937  17.379  15.343
    1STR    H1R 1807   8.992  17.206  15.637
    1STR    H1S 1808   9.007  17.436  15.726
    1STR    H1T 1809   8.885   0.049  15.612
    1STR    H1U 1810   9.042  17.432  15.554
    1STR    H1V 1811   8.785  17.146  15.761
    1STR    H1W 1812   8.716  17.302  15.738
    1STR    H1X 1813   8.923  17.317  16.111
    1STR    H1Y 1814   9.012  17.298  16.298
    1STR    H1Z 1815   9.039  17.385  16.519
    1STR    H20 1816   8.835   0.190  16.663
    1STR    H21 1817   8.876   0.045  16.759
    1STR    H22 1818   8.991   0.120  16.651
    1STR    H23 1819   8.496   0.011  16.542
    1STR    H27 1820   8.593  17.397  16.310
    1STR    H28 1821   9.020  17.259  14.271
    1STR    H29 1822   9.065  17.257  14.037
    1STR    H2A 1823   8.834  17.255  13.750
    1STR    H2B 1824   8.969  17.156  13.800
    1STR    H2C 1825   8.977  17.331  13.812
    1STR   BCK1 1826   8.814  13.107   9.323
    1STR    O03 1827   8.704  13.072   9.284
    1STR    N04 1828   8.839  13.144   9.456
    1STR    C05 1829   8.758  13.185   9.573
    1STR    C06 1830   8.793  13.167   9.716
    1STR    C07 1831   8.717  13.222   9.831
    1STR    N08 1832   8.745  13.212   9.975
    1STR    C09 1833   8.694  13.283  10.085
    1STR    O0A 1834   8.618  13.378  10.070
    1STR    O0B 1835   8.731  13.246  10.222
    1STR    C0C 1836   8.669  13.312  10.345
    1STR    C0D 1837   8.525  13.260  10.361
    1STR    C0E 1838   8.739  13.305  10.493
    1STR    O0F 1839   8.667  13.358  10.613
    1STR    C0G 1840   8.732  13.366  10.748
    1STR    C0H 1841   8.833  13.481  10.745
    1STR    C0I 1842   8.643  13.386  10.882
    1STR    O0J 1843   8.715  13.387  11.011
    1STR    C0K 1844   8.647  13.416  11.140
    1STR    C0M 1845   8.545  13.306  11.174
    1STR    C0N 1846   8.742  13.430  11.267
    1STR    O0O 1847   8.678  13.461  11.395
    1STR    C0P 1848   8.711  13.396  11.514
    1STR    O0Q 1849   8.782  13.297  11.521
    1STR    N0R 1850   8.654  13.454  11.622
    1STR    C0S 1851   8.649  13.422  11.761
    1STR    C0T 1852   8.575  13.509  11.844
    1STR    C0U 1853   8.552  13.480  11.980
    1STR    C0V 1854   8.603  13.363  12.039
    1STR    C0W 1855   8.558  13.328  12.181
    1STR    C0X 1856   8.688  13.278  11.963
    1STR    N0Y 1857   8.745  13.162  12.019
    1STR   BCK2 1858   8.806  13.144  12.137
    1STR    O10 1859   8.836  13.236  12.213
    1STR    C13 1860   8.707  13.308  11.824
    1STR    C14 1861   8.600  13.291   9.792
    1STR    C15 1862   8.565  13.312   9.659
    1STR    C16 1863   8.643  13.265   9.552
    1STR    C17 1864   8.601  13.316   9.416
    1STR    H1B 1865   8.938  13.142   9.475
    1STR    H1C 1866   8.881  13.110   9.739
    1STR    H1D 1867   8.812  13.143  10.003
    1STR    H1E 1868   8.662  13.418  10.321
    1STR    H1F 1869   8.523  13.155  10.388
    1STR    H1G 1870   8.473  13.315  10.440
    1STR    H1H 1871   8.467  13.273  10.270
    1STR    H1I 1872   8.834  13.357  10.485
    1STR    H1J 1873   8.764  13.201  10.514
    1STR    H1K 1874   8.786  13.272  10.763
    1STR    H1M 1875   8.783  13.577  10.730
    1STR    H1N 1876   8.908  13.470  10.667
    1STR    H1O 1877   8.886  13.488  10.840
    1STR    H1P 1878   8.587  13.480  10.873
    1STR    H1Q 1879   8.567  13.308  10.886
    1STR    H1R 1880   8.594  13.511  11.129
    1STR    H1S 1881   8.494  13.329  11.268
    1STR    H1T 1882   8.595  13.210  11.188
    1STR    H1U 1883   8.468  13.295  11.098
    1STR    H1V 1884   8.814  13.510  11.249
    1STR    H1W 1885   8.802  13.340  11.278
    1STR    H1X 1886   8.605  13.538  11.595
    1STR    H1Y 1887   8.531  13.600  11.806
    1STR    H1Z 1888   8.491  13.546  12.040
    1STR    H20 1889   8.552  13.220  12.196
    1STR    H21 1890   8.626  13.369  12.255
    1STR    H22 1891   8.458  13.367  12.202
    1STR    H23 1892   8.743  13.079  11.961
    1STR    H27 1893   8.768  13.241  11.764
    1STR    H28 1894   8.531  13.332   9.865
    1STR    H29 1895   8.477  13.371   9.639
    1STR    H2A 1896   8.690  13.344   9.363
    1STR    H2B 1897   8.540  13.406   9.423
    1STR    H2C 1898   8.544  13.241   9.361
    1STR   BCK1 1899  13.157   4.322  14.038
    1STR    O03 1900  13.251   4.245  14.022
    1STR    N04 1901  13.064   4.309  14.132
    1STR    C05 1902  13.046   4.201  14.218
    1STR    C06 1903  13.042   4.219  14.359
    1STR    C07 1904  13.018   4.111  14.449
    1STR    N08 1905  13.010   4.135  14.588
    1STR    C09 1906  12.993   4.050  14.691
    1STR    O0A 1907  12.983   3.928  14.681
    1STR    O0B 1908  12.988   4.115  14.812
    1STR    C0C 1909  12.983   4.040  14.935
    1STR    C0D 1910  13.126   3.992  14.968
    1STR    C0E 1911  12.923   4.124  15.052
    1STR    O0F 1912  12.922   4.052  15.178
    1STR    C0G 1913  12.863   4.120  15.291
    1STR    C0H 1914  12.710   4.112  15.278
    1STR    C0I 1915  12.911   4.056  15.426
    1STR    O0J 1916  12.885   4.138  15.543
    1STR    C0K 1917  12.934   4.088  15.671
    1STR    C0M 1918  13.088   4.082  15.669
    1STR    C0N 1919  12.890   4.176  15.794
    1STR    O0O 1920  12.947   4.124  15.916
    1STR    C0P 1921  12.962   4.198  16.030
    1STR    O0Q 1922  12.935   4.317  16.043
    1STR    N0R 1923  13.006   4.117  16.127
    1STR    C0S 1924  13.015   4.123  16.268
    1STR    C0T 1925  12.953   4.014  16.329
    1STR    C0U 1926  12.961   3.996  16.467
    1STR    C0V 1927  13.034   4.085  16.548
    1STR    C0W 1928  13.025   4.049  16.692
    1STR    C0X 1929  13.105   4.196  16.493
    1STR    N0Y 1930  13.190   4.283  16.569
    1STR   BCK2 1931  13.201   4.314  16.701
    1STR    O10 1932  13.157   4.422  16.740
    1STR    C13 1933  13.091   4.214  16.350
    1STR    C14 1934  13.001   3.983  14.392
    1STR    C15 1935  13.004   3.963  14.252
    1STR    C16 1936  13.023   4.072  14.165
    1STR    C17 1937  13.014   4.047  14.015
    1STR    H1B 1938  12.996   4.384  14.136
    1STR    H1C 1939  13.057   4.319  14.398
    1STR    H1D 1940  13.019   4.230  14.619
    1STR    H1E 1941  12.919   3.953  14.921
    1STR    H1F 1942  13.194   4.076  14.982
    1STR    H1G 1943  13.127   3.933  15.060
    1STR    H1H 1944  13.165   3.929  14.888
    1STR    H1I 1945  12.822   4.152  15.024
    1STR    H1J 1946  12.979   4.216  15.064
    1STR    H1K 1947  12.895   4.224  15.291
    1STR    H1M 1948  12.676   4.009  15.267
    1STR    H1N 1949  12.673   4.169  15.193
    1STR    H1O 1950  12.661   4.154  15.367
    1STR    H1P 1951  12.867   3.957  15.438
    1STR    H1Q 1952  13.018   4.040  15.415
    1STR    H1R 1953  12.894   3.988  15.686
    1STR    H1S 1954  13.127   4.052  15.766
    1STR    H1T 1955  13.130   4.180  15.645
    1STR    H1U 1956  13.127   4.010  15.597
    1STR    H1V 1957  12.781   4.176  15.803
    1STR    H1W 1958  12.920   4.280  15.780
    1STR    H1X 1959  13.015   4.025  16.088
    1STR    H1Y 1960  12.896   3.942  16.272
    1STR    H1Z 1961  12.910   3.912  16.511
    1STR    H20 1962  13.079   4.117  16.754
    1STR    H21 1963  12.921   4.052  16.724
    1STR    H22 1964  13.061   3.948  16.709
    1STR    H23 1965  13.229   4.358  16.514
    1STR    H27 1966  13.140   4.296  16.301
    1STR    H28 1967  12.985   3.895  14.452
    1STR    H29 1968  12.989   3.864  14.212
    1STR    H2A 1969  12.966   4.130  13.964
    1STR    H2B 1970  12.956   3.957  13.993
    1STR    H2C 1971  13.114   4.033  13.972
    1STR   BCK1 1972  13.054   8.962   0.688
    1STR    O03 1973  13.067   9.083   0.673
    1STR    N04 1974  13.085   8.898   0.808
    1STR    C05 1975  13.164   8.933   0.927
    1STR    C06 1976  13.131   8.897   1.067
    1STR    C07 1977  13.218   8.918   1.184
    1STR    N08 1978  13.196   8.879   1.323
    1STR    C09 1979  13.262   8.920   1.440
    1STR    O0A 1980  13.341   9.013   1.440
    1STR    O0B 1981  13.236   8.851   1.564
    1STR    C0C 1982  13.303   8.891   1.692
    1STR    C0D 1983  13.244   9.025   1.742
    1STR    C0E 1984  13.308   8.792   1.819
    1STR    O0F 1985  13.363   8.849   1.945
    1STR    C0G 1986  13.373   8.767   2.068
    1STR    C0H 1987  13.491   8.669   2.054
    1STR    C0I 1988  13.394   8.849   2.203
    1STR    O0J 1989  13.399   8.767   2.324
    1STR    C0K 1990  13.424   8.832   2.453
    1STR    C0M 1991  13.302   8.914   2.497
    1STR    C0N 1992  13.458   8.731   2.568
    1STR    O0O 1993  13.498   8.796   2.692
    1STR    C0P 1994  13.430   8.776   2.809
    1STR    O0Q 1995  13.326   8.712   2.820
    1STR    N0R 1996  13.492   8.838   2.912
    1STR    C0S 1997  13.457   8.854   3.048
    1STR    C0T 1998  13.533   8.944   3.127
    1STR    C0U 1999  13.498   8.972   3.260
    1STR    C0V 2000  13.387   8.910   3.320
    1STR    C0W 2001  13.343   8.955   3.460
    1STR    C0X 2002  13.316   8.812   3.247
    1STR    N0Y 2003  13.207   8.745   3.300
    1STR   BCK2 2004  13.198   8.661   3.403
    1STR    O10 2005  13.092   8.604   3.424
    1STR    C13 2006  13.349   8.788   3.111
    1STR    C14 2007  13.343   8.976   1.153
    1STR    C15 2008  13.378   9.012   1.023
    1STR    C16 2009  13.294   8.991   0.912
    1STR    C17 2010  13.363   9.019   0.780
    1STR    H1B 2011  13.042   8.807   0.813
    1STR    H1C 2012  13.036   8.850   1.084
    1STR    H1D 2013  13.125   8.811   1.342
    1STR    H1E 2014  13.408   8.910   1.666
    1STR    H1F 2015  13.141   9.013   1.773
    1STR    H1G 2016  13.301   9.062   1.827
    1STR    H1H 2017  13.249   9.102   1.665
    1STR    H1I 2018  13.365   8.703   1.793
    1STR    H1J 2019  13.207   8.757   1.841
    1STR    H1K 2020  13.281   8.711   2.079
    1STR    H1M 2021  13.586   8.722   2.043
    1STR    H1N 2022  13.479   8.601   1.970
    1STR    H1O 2023  13.499   8.607   2.144
    1STR    H1P 2024  13.485   8.907   2.197
    1STR    H1Q 2025  13.312   8.921   2.213
    1STR    H1R 2026  13.510   8.898   2.443
    1STR    H1S 2027  13.319   8.960   2.594
    1STR    H1T 2028  13.214   8.849   2.509
    1STR    H1U 2029  13.277   8.993   2.428
    1STR    H1V 2030  13.541   8.668   2.538
    1STR    H1W 2031  13.375   8.663   2.585
    1STR    H1X 2032  13.577   8.883   2.881
    1STR    H1Y 2033  13.619   8.995   3.085
    1STR    H1Z 2034  13.556   9.044   3.317
    1STR    H20 2035  13.235   8.947   3.471
    1STR    H21 2036  13.389   8.894   3.537
    1STR    H22 2037  13.370   9.059   3.479
    1STR    H23 2038  13.120   8.748   3.248
    1STR    H27 2039  13.291   8.716   3.057
    1STR    H28 2040  13.419   8.992   1.227
    1STR    H29 2041  13.478   9.052   1.008
    1STR    H2A 2042  13.426   8.934   0.756
    1STR    H2B 2043  13.430   9.105   0.789
    1STR    H2C 2044  13.298   9.040   0.696
    1HEX    C01 2045   0.278  17.286  16.750
    1HEX    C02 2046   0.216  17.289  16.890
    1HEX    C03 2047   0.064  17.289  16.880
    1HEX    O04 2048   0.002  17.190  16.843
    1HEX    O05 2049   0.011  17.408  16.914
    1HEX    C06 2050  17.310  17.423  16.920
    1HEX    C07 2051  17.260  17.420  17.066
    1HEX    C08 2052  17.309   0.109  17.136
    1HEX    O09 2053  17.243   0.230  17.101
    1HEX    C0A 2054  17.178   0.298  17.195
    1HEX    O0B 2055  17.132   0.251  17.299
    1HEX    C0C 2056  17.171   0.448  17.166
    1HEX    C0D 2057  17.182   0.530  17.296
    1HEX    C0F 2058  17.104  17.419  17.067
    1HEX    O0G 2059  17.057  17.297  17.010
    1HEX    C0H 2060  17.006  17.294  16.886
    1HEX    O0I 2061  16.973  17.392  16.819
    1HEX    C0J 2062  16.996  17.153  16.831
    1HEX    C0K 2063  16.876  17.077  16.889
    1HEX    C0N 2064  17.305  17.290  17.141
    1HEX    O0O 2065   0.002  17.272  17.184
    1HEX    C0P 2066   0.068  17.353  17.283
    1HEX    C0Q 2067   0.033  17.342  17.435
    1HEX    C0R 2068   0.067  17.199   0.044
    1HEX    O0S 2069   0.208  17.174   0.039
    1HEX    C0T 2070   0.280  17.167   0.154
    1HEX    O0U 2071   0.235  17.176   0.268
    1HEX    C0V 2072   0.428  17.145   0.129
    1HEX    C0W 2073   0.511  17.275   0.121
    1HEX    C0Y 2074   0.123   0.005   0.067
    1HEX    O0Z 2075   0.101   0.001   0.207
    1HEX    C10 2076   0.188   0.059   0.289
    1HEX    O11 2077   0.289   0.119   0.255
    1HEX    C12 2078   0.147   0.042   0.434
    1HEX    C13 2079   0.253   0.092   0.532
    1HEX    C15 2080  17.325  17.380   0.027
    1HEX    O16 2081  17.287  17.360   0.163
    1HEX    C17 2082  17.213  17.254   0.199
    1HEX    O18 2083  17.180  17.161   0.125
    1HEX    C19 2084  17.167  17.262   0.343
    1HEX    C1A 2085  17.086  17.390   0.366
    1HEX    H1C 2086   0.485  17.290  16.635
    1HEX    H1D 2087   0.249  17.195  16.697
    1HEX    H1E 2088   0.242  17.371  16.691
    1HEX    H1F 2089   0.248  17.376  16.946
    1HEX    H1G 2090   0.246  17.201  16.947
    1HEX    H1H 2091  17.261  17.348  16.859
    1HEX    H1I 2092  17.284   0.078  16.873
    1HEX    H1J 2093  17.413   0.126  17.110
    1HEX    H1K 2094  17.306   0.095  17.244
    1HEX    H1M 2095  17.080   0.471  17.112
    1HEX    H1N 2096  17.254   0.471  17.100
    1HEX    H1O 2097  17.257   0.487  17.363
    1HEX    H1P 2098  17.088   0.528  17.350
    1HEX    H1Q 2099  17.357   0.678  17.228
    1HEX    H1R 2100  17.064   0.067  17.014
    1HEX    H1S 2101  17.066  17.427  17.168
    1HEX    H1T 2102  17.089  17.101  16.853
    1HEX    H1U 2103  16.989  17.159  16.722
    1HEX    H1V 2104  16.783  17.129  16.866
    1HEX    H1W 2105  16.884  17.072  16.998
    1HEX    H1X 2106  16.858  16.943  16.693
    1HEX    H1Y 2107  17.291  17.208  17.071
    1HEX    H1Z 2108  17.235  17.261  17.219
    1HEX    H20 2109   0.076   0.017  17.252
    1HEX    H21 2110   0.172  17.320  17.274
    1HEX    H22 2111   0.016  17.125  17.422
    1HEX    H23 2112   0.029  17.183   0.145
    1HEX    H24 2113   0.438  17.090   0.035
    1HEX    H25 2114   0.467  17.080   0.207
    1HEX    H26 2115   0.464  17.348   0.055
    1HEX    H27 2116   0.609  17.254   0.080
    1HEX    H28 2117   0.422  17.422   0.285
    1HEX    H29 2118   0.105   0.107   0.032
    1HEX    H2A 2119   0.229  17.425   0.046
    1HEX    H2B 2120   0.127  17.376   0.451
    1HEX    H2C 2121   0.052   0.095   0.448
    1HEX    H2D 2122   0.285   0.194   0.507
    1HEX    H2E 2123   0.342   0.029   0.527
    1HEX    H2F 2124   0.088   0.180   0.680
    1HEX    H2G 2125  17.254  17.329  17.405
    1HEX    H2H 2126  17.309   0.046   0.009
    1HEX    H2I 2127  17.256  17.260   0.407
    1HEX    H2J 2128  17.109  17.173   0.366
    1HEX    H2K 2129  17.000  17.393   0.299
    1HEX    H2M 2130  17.146   0.038   0.344
    1HEX    H2N 2131  16.944  17.296   0.533
    1STR    S00 2132   0.458  17.295  16.766
    1STR    S0E 2133  17.229   0.701  17.258
    1STR    S0M 2134  16.874  16.909  16.821
    1STR    S0X 2135   0.535  17.350   0.285
    1STR    S14 2136   0.185   0.090   0.700
    1STR    S1B 2137  17.030  17.398   0.538
    1HEX    C01 2138   0.273  17.287   3.673
    1HEX    C02 2139   0.213  17.290   3.814
    1HEX    C03 2140   0.061  17.289   3.807
    1HEX    O04 2141  17.440  17.189   3.771
    1HEX    O05 2142   0.008  17.408   3.841
    1HEX    C06 2143  17.307  17.423   3.845
    1HEX    C07 2144  17.255  17.428   3.991
    1HEX    C08 2145  17.302   0.119   4.055
    1HEX    O09 2146  17.233   0.238   4.019
    1HEX    C0A 2147  17.172   0.308   4.116
    1HEX    O0B 2148  17.127   0.262   4.220
    1HEX    C0C 2149  17.172   0.458   4.088
    1HEX    C0D 2150  17.186   0.538   4.220
    1HEX    C0F 2151  17.099  17.424   3.989
    1HEX    O0G 2152  17.055  17.300   3.933
    1HEX    C0H 2153  17.003  17.295   3.809
    1HEX    O0I 2154  16.967  17.391   3.742
    1HEX    C0J 2155  16.996  17.153   3.755
    1HEX    C0K 2156  16.875  17.077   3.811
    1HEX    C0N 2157  17.302  17.304   4.076
    1HEX    O0O 2158  17.440  17.292   4.117
    1HEX    C0P 2159   0.068  17.380   4.209
    1HEX    C0Q 2160   0.036  17.379   4.363
    1HEX    C0R 2161   0.044  17.232   4.415
    1HEX    O0S 2162   0.161  17.154   4.386
    1HEX    C0T 2163   0.205  17.067   4.480
    1HEX    O0U 2164   0.197  17.085   4.602
    1HEX    C0V 2165   0.273  16.942   4.424
    1HEX    C0W 2166   0.243  16.810   4.503
    1HEX    C0Y 2167   0.140   0.034   4.434
    1HEX    O0Z 2168   0.091   0.169   4.461
    1HEX    C10 2169   0.175   0.273   4.490
    1HEX    O11 2170   0.297   0.271   4.476
    1HEX    C12 2171   0.103   0.395   4.553
    1HEX    C13 2172   0.179   0.533   4.565
    1HEX    C15 2173  17.332  17.430   4.395
    1HEX    O16 2174  17.290  17.401   4.528
    1HEX    C17 2175  17.203  17.300   4.551
    1HEX    O18 2176  17.157  17.223   4.466
    1HEX    C19 2177  17.163  17.289   4.696
    1HEX    C1A 2178  17.076  17.409   4.735
    1HEX    H1C 2179   0.479  17.289   3.555
    1HEX    H1D 2180   0.243  17.196   3.621
    1HEX    H1E 2181   0.236  17.371   3.615
    1HEX    H1F 2182   0.246  17.378   3.869
    1HEX    H1G 2183   0.244  17.203   3.872
    1HEX    H1H 2184  17.258  17.344   3.788
    1HEX    H1I 2185  17.280   0.075   3.794
    1HEX    H1J 2186  17.406   0.138   4.025
    1HEX    H1K 2187  17.304   0.109   4.163
    1HEX    H1M 2188  17.081   0.486   4.034
    1HEX    H1N 2189  17.256   0.480   4.023
    1HEX    H1O 2190  17.262   0.494   4.284
    1HEX    H1P 2191  17.092   0.534   4.276
    1HEX    H1Q 2192  17.359   0.689   4.157
    1HEX    H1R 2193  17.059   0.070   3.934
    1HEX    H1S 2194  17.059  17.433   4.089
    1HEX    H1T 2195  17.089  17.102   3.779
    1HEX    H1U 2196  16.990  17.159   3.646
    1HEX    H1V 2197  16.782  17.129   3.787
    1HEX    H1W 2198  16.882  17.070   3.919
    1HEX    H1X 2199  16.857  16.945   3.612
    1HEX    H1Y 2200  17.287  17.216   4.012
    1HEX    H1Z 2201  17.235  17.282   4.158
    1HEX    H20 2202   0.077   0.041   4.173
    1HEX    H21 2203   0.171  17.343   4.201
    1HEX    H22 2204  17.401  17.175   4.372
    1HEX    H23 2205   0.026  17.231   4.522
    1HEX    H24 2206   0.380  16.962   4.429
    1HEX    H25 2207   0.248  16.930   4.319
    1HEX    H26 2208   0.251  16.830   4.610
    1HEX    H27 2209   0.323  16.739   4.482
    1HEX    H29 2210   0.232   0.041   4.376
    1HEX    H2A 2211   0.171  17.431   4.529
    1HEX    H2B 2212   0.088   0.360   4.656
    1HEX    H2C 2213   0.003   0.406   4.512
    1HEX    H2D 2214   0.286   0.515   4.577
    1HEX    H2E 2215   0.148   0.578   4.659
    1HEX    H2G 2216  17.259  17.392   4.326
    1HEX    H2H 2217  17.324   0.098   4.382
    1HEX    H2I 2218  17.253  17.284   4.758
    1HEX    H2J 2219  17.109  17.195   4.711
    1HEX    H2K 2220  16.988  17.415   4.670
    1HEX    H2M 2221  17.132   0.062   4.720
    1HEX    H2N 2222  16.942  17.292   4.893
    1STR    S00 2223   0.454  17.295   3.686
    1STR    S0E 2224  17.230   0.710   4.185
    1STR    S0M 2225  16.872  16.909   3.740
    1STR    S0X 2226   0.080  16.728   4.472
    1STR    S14 2227   0.156   0.664   4.434
    1STR    S1B 2228  17.025  17.396   4.908
    1HEX    C01 2229   0.278  17.286   8.030
    1HEX    C02 2230   0.216  17.289   8.170
    1HEX    C03 2231   0.064  17.289   8.160
    1HEX    O04 2232   0.002  17.190   8.123
    1HEX    O05 2233   0.011  17.408   8.194
    1HEX    C06 2234  17.310  17.423   8.200
    1HEX    C07 2235  17.260  17.420   8.346
    1HEX    C08 2236  17.309   0.109   8.416
    1HEX    O09 2237  17.243   0.230   8.381
    1HEX    C0A 2238  17.178   0.298   8.476
    1HEX    O0B 2239  17.132   0.251   8.580
    1HEX    C0C 2240  17.171   0.448   8.446
    1HEX    C0D 2241  17.182   0.530   8.576
    1HEX    C0F 2242  17.104  17.419   8.347
    1HEX    O0G 2243  17.057  17.297   8.290
    1HEX    C0H 2244  17.006  17.294   8.166
    1HEX    O0I 2245  16.973  17.392   8.099
    1HEX    C0J 2246  16.996  17.153   8.111
    1HEX    C0K 2247  16.876  17.077   8.169
    1HEX    C0N 2248  17.305  17.290   8.421
    1HEX    O0O 2249   0.002  17.272   8.464
    1HEX    C0P 2250   0.068  17.353   8.563
    1HEX    C0Q 2251   0.033  17.342   8.715
    1HEX    C0R 2252   0.067  17.199   8.764
    1HEX    O0S 2253   0.208  17.174   8.759
    1HEX    C0T 2254   0.280  17.167   8.874
    1HEX    O0U 2255   0.235  17.176   8.988
    1HEX    C0V 2256   0.428  17.145   8.849
    1HEX    C0W 2257   0.511  17.275   8.841
    1HEX    C0Y 2258   0.123   0.005   8.787
    1HEX    O0Z 2259   0.101   0.001   8.927
    1HEX    C10 2260   0.188   0.059   9.009
    1HEX    O11 2261   0.289   0.119   8.975
    1HEX    C12 2262   0.147   0.042   9.154
    1HEX    C13 2263   0.253   0.092   9.252
    1HEX    C15 2264  17.325  17.380   8.747
    1HEX    O16 2265  17.287  17.360   8.883
    1HEX    C17 2266  17.213  17.254   8.919
    1HEX    O18 2267  17.180  17.161   8.845
    1HEX    C19 2268  17.167  17.262   9.063
    1HEX    C1A 2269  17.086  17.390   9.086
    1HEX    H1C 2270   0.485  17.290   7.915
    1HEX    H1D 2271   0.249  17.195   7.977
    1HEX    H1E 2272   0.242  17.371   7.971
    1HEX    H1F 2273   0.248  17.376   8.226
    1HEX    H1G 2274   0.246  17.201   8.227
    1HEX    H1H 2275  17.261  17.348   8.139
    1HEX    H1I 2276  17.284   0.078   8.153
    1HEX    H1J 2277  17.413   0.126   8.390
    1HEX    H1K 2278  17.306   0.095   8.524
    1HEX    H1M 2279  17.080   0.471   8.392
    1HEX    H1N 2280  17.254   0.471   8.380
    1HEX    H1O 2281  17.257   0.487   8.643
    1HEX    H1P 2282  17.087   0.528   8.630
    1HEX    H1Q 2283  17.357   0.678   8.508
    1HEX    H1R 2284  17.064   0.067   8.294
    1HEX    H1S 2285  17.066  17.427   8.448
    1HEX    H1T 2286  17.089  17.101   8.133
    1HEX    H1U 2287  16.989  17.159   8.002
    1HEX    H1V 2288  16.783  17.129   8.146
    1HEX    H1W 2289  16.884  17.072   8.278
    1HEX    H1X 2290  16.858  16.943   7.973
    1HEX    H1Y 2291  17.291  17.208   8.351
    1HEX    H1Z 2292  17.235  17.261   8.499
    1HEX    H20 2293   0.076   0.017   8.532
    1HEX    H21 2294   0.172  17.320   8.554
    1HEX    H22 2295   0.016  17.125   8.702
    1HEX    H23 2296   0.029  17.183   8.865
    1HEX    H24 2297   0.438  17.090   8.755
    1HEX    H25 2298   0.467  17.080   8.927
    1HEX    H26 2299   0.464  17.348   8.775
    1HEX    H27 2300   0.609  17.254   8.800
    1HEX    H28 2301   0.422  17.422   9.005
    1HEX    H29 2302   0.105   0.107   8.752
    1HEX    H2A 2303   0.229  17.425   8.766
    1HEX    H2B 2304   0.127  17.376   9.171
    1HEX    H2C 2305   0.052   0.095   9.168
    1HEX    H2D 2306   0.285   0.194   9.227
    1HEX    H2E 2307   0.342   0.029   9.247
    1HEX    H2F 2308   0.088   0.180   9.400
    1HEX    H2G 2309  17.254  17.329   8.685
    1HEX    H2H 2310  17.309   0.046   8.730
    1HEX    H2I 2311  17.256  17.260   9.127
    1HEX    H2J 2312  17.109  17.173   9.086
    1HEX    H2K 2313  17.000  17.393   9.019
    1HEX    H2M 2314  17.146   0.038   9.064
    1HEX    H2N 2315  16.944  17.296   9.253
    1STR    S00 2316   0.458  17.295   8.045
    1STR    S0E 2317  17.229   0.701   8.538
    1STR    S0M 2318  16.874  16.909   8.101
    1STR    S0X 2319   0.535  17.350   9.005
    1STR    S14 2320   0.185   0.090   9.420
    1STR    S1B 2321  17.030  17.398   9.258
    1HEX    C01 2322   0.278  17.286  12.390
    1HEX    C02 2323   0.216  17.289  12.530
    1HEX    C03 2324   0.064  17.289  12.520
    1HEX    O04 2325   0.002  17.190  12.483
    1HEX    O05 2326   0.011  17.408  12.554
    1HEX    C06 2327  17.310  17.423  12.560
    1HEX    C07 2328  17.260  17.420  12.706
    1HEX    C08 2329  17.309   0.109  12.776
    1HEX    O09 2330  17.243   0.230  12.741
    1HEX    C0A 2331  17.178   0.298  12.835
    1HEX    O0B 2332  17.132   0.251  12.940
    1HEX    C0C 2333  17.171   0.448  12.806
    1HEX    C0D 2334  17.182   0.530  12.936
    1HEX    C0F 2335  17.104  17.420  12.707
    1HEX    O0G 2336  17.057  17.297  12.650
    1HEX    C0H 2337  17.006  17.294  12.526
    1HEX    O0I 2338  16.973  17.392  12.459
    1HEX    C0J 2339  16.996  17.153  12.471
    1HEX    C0K 2340  16.876  17.077  12.529
    1HEX    C0N 2341  17.305  17.290  12.781
    1HEX    O0O 2342   0.002  17.272  12.824
    1HEX    C0P 2343   0.068  17.353  12.923
    1HEX    C0Q 2344   0.033  17.342  13.075
    1HEX    C0R 2345   0.067  17.199  13.124
    1HEX    O0S 2346   0.208  17.174  13.119
    1HEX    C0T 2347   0.280  17.167  13.234
    1HEX    O0U 2348   0.235  17.176  13.348
    1HEX    C0V 2349   0.428  17.145  13.209
    1HEX    C0W 2350   0.511  17.275  13.201
    1HEX    C0Y 2351   0.123   0.005  13.147
    1HEX    O0Z 2352   0.101   0.001  13.287
    1HEX    C10 2353   0.188   0.059  13.369
    1HEX    O11 2354   0.289   0.119  13.335
    1HEX    C12 2355   0.147   0.042  13.514
    1HEX    C13 2356   0.253   0.092  13.612
    1HEX    C15 2357  17.325  17.380  13.107
    1HEX    O16 2358  17.287  17.360  13.243
    1HEX    C17 2359  17.213  17.254  13.279
    1HEX    O18 2360  17.180  17.161  13.205
    1HEX    C19 2361  17.167  17.262  13.423
    1HEX    C1A 2362  17.085  17.390  13.446
    1HEX    H1C 2363   0.485  17.290  12.275
    1HEX    H1D 2364   0.249  17.195  12.337
    1HEX    H1E 2365   0.242  17.371  12.331
    1HEX    H1F 2366   0.248  17.376  12.586
    1HEX    H1G 2367   0.246  17.201  12.587
    1HEX    H1H 2368  17.261  17.348  12.499
    1HEX    H1I 2369  17.284   0.078  12.513
    1HEX    H1J 2370  17.413   0.126  12.750
    1HEX    H1K 2371  17.306   0.095  12.884
    1HEX    H1M 2372  17.080   0.471  12.752
    1HEX    H1N 2373  17.255   0.471  12.740
    1HEX    H1O 2374  17.257   0.487  13.003
    1HEX    H1P 2375  17.088   0.528  12.990
    1HEX    H1Q 2376  17.357   0.678  12.868
    1HEX    H1R 2377  17.064   0.067  12.654
    1HEX    H1S 2378  17.066  17.427  12.808
    1HEX    H1T 2379  17.089  17.101  12.493
    1HEX    H1U 2380  16.989  17.159  12.362
    1HEX    H1V 2381  16.783  17.129  12.505
    1HEX    H1W 2382  16.884  17.072  12.638
    1HEX    H1X 2383  16.858  16.943  12.333
    1HEX    H1Y 2384  17.291  17.208  12.711
    1HEX    H1Z 2385  17.235  17.261  12.859
    1HEX    H20 2386   0.076   0.017  12.892
    1HEX    H21 2387   0.172  17.320  12.914
    1HEX    H22 2388   0.016  17.125  13.062
    1HEX    H23 2389   0.029  17.183  13.225
    1HEX    H24 2390   0.438  17.090  13.115
    1HEX    H25 2391   0.467  17.080  13.287
    1HEX    H26 2392   0.464  17.348  13.135
    1HEX    H27 2393   0.609  17.254  13.160
    1HEX    H28 2394   0.422  17.422  13.365
    1HEX    H29 2395   0.105   0.107  13.112
    1HEX    H2A 2396   0.229  17.425  13.126
    1HEX    H2B 2397   0.127  17.376  13.531
    1HEX    H2C 2398   0.052   0.095  13.528
    1HEX    H2D 2399   0.285   0.194  13.587
    1HEX    H2E 2400   0.342   0.029  13.607
    1HEX    H2F 2401   0.088   0.180  13.760
    1HEX    H2G 2402  17.254  17.329  13.045
    1HEX    H2H 2403  17.309   0.046  13.089
    1HEX    H2I 2404  17.256  17.260  13.487
    1HEX    H2J 2405  17.109  17.173  13.446
    1HEX    H2K 2406  17.000  17.393  13.379
    1HEX    H2M 2407  17.146   0.038  13.424
    1HEX    H2N 2408  16.943  17.296  13.612
    1STR    S00 2409   0.458  17.295  12.406
    1STR    S0E 2410  17.229   0.701  12.898
    1STR    S0M 2411  16.873  16.909  12.461
    1STR    S0X 2412   0.535  17.350  13.365
    1STR    S14 2413   0.185   0.090  13.780
    1STR    S1B 2414  17.029  17.398  13.618
    1HEX    C01 2415   0.044   4.878  17.052
    1HEX    C02 2416   0.112   4.742  17.095
    1HEX    C03 2417   0.069   4.601  17.044
    1HEX    O04 2418   0.157   4.516  17.027
    1HEX    O05 2419  17.377   4.574  17.027
    1HEX    C06 2420  17.332   4.440  16.989
    1HEX    C07 2421  17.248   4.362  17.097
    1HEX    C08 2422  17.219   4.456  17.215
    1HEX    O09 2423  17.145   4.564  17.164
    1HEX    C0A 2424  17.125   4.671  17.236
    1HEX    O0B 2425  17.145   4.682  17.357
    1HEX    C0C 2426  17.079   4.785  17.148
    1HEX    C0D 2427  17.076   4.919  17.222
    1HEX    C0F 2428  17.106   4.326  17.042
    1HEX    O0G 2429  17.106   4.214  16.955
    1HEX    C0H 2430  17.011   4.203  16.861
    1HEX    O0I 2431  16.935   4.292  16.824
    1HEX    C0J 2432  17.001   4.062  16.804
    1HEX    C0K 2433  16.884   3.988  16.869
    1HEX    C0N 2434  17.311   4.225  17.142
    1HEX    O0O 2435   0.008   4.211  17.181
    1HEX    C0P 2436   0.069   4.293  17.281
    1HEX    C0Q 2437   0.041   4.266  17.432
    1HEX    C0R 2438   0.078   4.121   0.031
    1HEX    O0S 2439   0.219   4.099   0.031
    1HEX    C0T 2440   0.287   4.087   0.148
    1HEX    O0U 2441   0.238   4.090   0.261
    1HEX    C0V 2442   0.436   4.065   0.127
    1HEX    C0W 2443   0.517   4.197   0.121
    1HEX    C0Y 2444   0.130   4.367   0.068
    1HEX    O0Z 2445   0.108   4.359   0.207
    1HEX    C10 2446   0.192   4.419   0.290
    1HEX    O11 2447   0.292   4.482   0.258
    1HEX    C12 2448   0.148   4.402   0.435
    1HEX    C13 2449   0.254   4.452   0.534
    1HEX    C15 2450  17.333   4.295   0.030
    1HEX    O16 2451  17.299   4.270   0.165
    1HEX    C17 2452  17.216   4.169   0.197
    1HEX    O18 2453  17.174   4.082   0.121
    1HEX    C19 2454  17.170   4.178   0.342
    1HEX    C1A 2455  17.089   4.307   0.363
    1HEX    H1D 2456   0.119   4.934  16.996
    1HEX    H1E 2457  17.402   4.862  16.982
    1HEX    H1F 2458   0.123   4.736  17.203
    1HEX    H1G 2459   0.215   4.748  17.058
    1HEX    H1H 2460  17.414   4.377  16.953
    1HEX    H1I 2461  17.270   4.452  16.899
    1HEX    H1J 2462  17.311   4.496  17.258
    1HEX    H1K 2463  17.161   4.409  17.294
    1HEX    H1M 2464  16.983   4.761  17.103
    1HEX    H1N 2465  17.151   4.791  17.067
    1HEX    H1O 2466  17.166   4.929  17.282
    1HEX    H1P 2467  16.991   4.924  17.291
    1HEX    H1Q 2468  17.140   5.140  17.165
    1HEX    H1R 2469  17.060   4.413  16.995
    1HEX    H1S 2470  17.039   4.301  17.125
    1HEX    H1T 2471  17.095   4.009  16.821
    1HEX    H1U 2472  16.987   4.070  16.696
    1HEX    H1V 2473  16.789   4.039  16.848
    1HEX    H1W 2474  16.895   3.985  16.978
    1HEX    H1X 2475  16.852   3.848  16.679
    1HEX    H1Y 2476  17.309   4.158  17.055
    1HEX    H1Z 2477  17.246   4.172  17.212
    1HEX    H20 2478   0.059   4.397  17.254
    1HEX    H21 2479   0.176   4.273  17.265
    1HEX    H22 2480   0.031   4.050  17.403
    1HEX    H23 2481   0.037   4.097   0.130
    1HEX    H24 2482   0.448   4.010   0.035
    1HEX    H25 2483   0.473   4.001   0.207
    1HEX    H26 2484   0.469   4.269   0.055
    1HEX    H27 2485   0.616   4.177   0.081
    1HEX    H28 2486   0.424   4.343   0.284
    1HEX    H29 2487   0.111   4.470   0.036
    1HEX    H2A 2488   0.236   4.349   0.046
    1HEX    H2B 2489   0.127   4.296   0.451
    1HEX    H2C 2490   0.054   4.456   0.446
    1HEX    H2D 2491   0.286   4.554   0.508
    1HEX    H2E 2492   0.343   4.389   0.529
    1HEX    H2F 2493   0.087   4.540   0.679
    1HEX    H2G 2494  17.265   4.242  17.405
    1HEX    H2H 2495  17.314   4.402   0.017
    1HEX    H2I 2496  17.258   4.176   0.406
    1HEX    H2J 2497  17.110   4.090   0.365
    1HEX    H2K 2498  17.004   4.310   0.296
    1HEX    H2M 2499  17.151   4.394   0.340
    1HEX    H2N 2500  16.945   4.217   0.530
    1STR    S00 2501  17.432   4.991  17.192
    1STR    S0E 2502  17.068   5.050  17.097
    1STR    S0M 2503  16.877   3.818  16.806
    1STR    S0X 2504   0.538   4.271   0.285
    1STR    S14 2505   0.184   4.450   0.701
    1STR    S1B 2506  17.033   4.318   0.535
    1HEX    C01 2507   0.270   4.210   3.663
    1HEX    C02 2508   0.208   4.216   3.803
    1HEX    C03 2509   0.058   4.195   3.798
    1HEX    O04 2510   0.010   4.087   3.767
    1HEX    O05 2511  17.429   4.305   3.835
    1HEX    C06 2512  17.290   4.294   3.863
    1HEX    C07 2513  17.262   4.282   4.016
    1HEX    C08 2514  17.265   4.425   4.078
    1HEX    O09 2515  17.177   4.529   4.035
    1HEX    C0A 2516  17.148   4.624   4.128
    1HEX    O0B 2517  17.123   4.600   4.246
    1HEX    C0C 2518  17.160   4.768   4.078
    1HEX    C0D 2519  17.176   4.867   4.196
    1HEX    C0F 2520  17.126   4.207   4.034
    1HEX    O0G 2521  17.147   4.064   4.032
    1HEX    C0H 2522  17.126   3.990   3.920
    1HEX    O0I 2523  17.057   4.029   3.825
    1HEX    C0J 2524  17.202   3.856   3.911
    1HEX    C0K 2525  17.214   3.764   4.037
    1HEX    C0N 2526  17.367   4.198   4.096
    1HEX    O0O 2527   0.062   4.244   4.097
    1HEX    C0P 2528   0.110   4.337   4.194
    1HEX    C0Q 2529   0.164   4.285   4.331
    1HEX    C0R 2530   0.213   4.137   4.301
    1HEX    O0S 2531   0.310   4.065   4.380
    1HEX    C0T 2532   0.289   3.930   4.400
    1HEX    O0U 2533   0.179   3.875   4.392
    1HEX    C0V 2534   0.411   3.837   4.412
    1HEX    C0W 2535   0.531   3.865   4.505
    1HEX    C0Y 2536   0.272   4.395   4.370
    1HEX    O0Z 2537   0.253   4.445   4.502
    1HEX    C10 2538   0.253   4.572   4.542
    1HEX    O11 2539   0.294   4.668   4.479
    1HEX    C12 2540   0.191   4.586   4.682
    1HEX    C13 2541   0.294   4.578   4.797
    1HEX    C15 2542   0.051   4.280   4.440
    1HEX    O16 2543   0.106   4.272   4.572
    1HEX    C17 2544   0.170   4.163   4.613
    1HEX    O18 2545   0.117   4.052   4.607
    1HEX    C19 2546   0.301   4.184   4.694
    1HEX    C1A 2547   0.436   4.257   4.648
    1HEX    H1C 2548   0.479   4.207   3.550
    1HEX    H1D 2549   0.241   4.118   3.612
    1HEX    H1E 2550   0.235   4.294   3.602
    1HEX    H1F 2551   0.230   4.310   3.852
    1HEX    H1G 2552   0.249   4.137   3.865
    1HEX    H1H 2553  17.246   4.211   3.807
    1HEX    H1I 2554  17.241   4.382   3.822
    1HEX    H1J 2555  17.361   4.467   4.051
    1HEX    H1K 2556  17.262   4.415   4.186
    1HEX    H1M 2557  17.074   4.794   4.017
    1HEX    H1N 2558  17.248   4.774   4.013
    1HEX    H1O 2559  17.252   4.831   4.267
    1HEX    H1P 2560  17.083   4.874   4.252
    1HEX    H1Q 2561  17.357   5.012   4.134
    1HEX    H1R 2562  17.052   4.240   3.960
    1HEX    H1S 2563  17.082   4.233   4.131
    1HEX    H1T 2564  17.302   3.882   3.875
    1HEX    H1U 2565  17.157   3.799   3.830
    1HEX    H1V 2566  17.123   3.703   4.045
    1HEX    H1W 2567  17.217   3.823   4.128
    1HEX    H1Y 2568  17.375   4.100   4.049
    1HEX    H1Z 2569  17.332   4.178   4.198
    1HEX    H20 2570   0.049   4.426   4.208
    1HEX    H21 2571   0.196   4.374   4.138
    1HEX    H22 2572   0.249   4.128   4.199
    1HEX    H23 2573   0.120   4.079   4.299
    1HEX    H24 2574   0.448   3.827   4.311
    1HEX    H25 2575   0.371   3.740   4.440
    1HEX    H26 2576   0.592   3.946   4.468
    1HEX    H27 2577   0.598   3.779   4.500
    1HEX    H28 2578   0.490   4.017   4.679
    1HEX    H29 2579   0.269   4.482   4.305
    1HEX    H2A 2580   0.372   4.354   4.362
    1HEX    H2B 2581   0.118   4.505   4.692
    1HEX    H2C 2582   0.133   4.678   4.688
    1HEX    H2D 2583   0.323   4.678   4.830
    1HEX    H2E 2584   0.385   4.529   4.764
    1HEX    H2F 2585   0.136   4.573   4.978
    1HEX    H2G 2586  17.418   4.200   4.424
    1HEX    H2H 2587  17.432   4.372   4.436
    1HEX    H2I 2588   0.323   4.085   4.734
    1HEX    H2J 2589   0.264   4.239   4.781
    1HEX    H2K 2590   0.492   4.265   4.741
    1HEX    H2M 2591   0.420   4.360   4.623
    1STR    S00 2592   0.451   4.217   3.680
    1STR    S0E 2593  17.224   5.032   4.138
    1STR    S0M 2594  17.361   3.648   4.034
    1STR    S0X 2595   0.492   3.883   4.681
    1STR    S14 2596   0.227   4.484   4.938
    1STR    S1B 2597   0.567   4.192   4.529
    1HEX    C01 2598   0.296   4.198   8.023
    1HEX    C02 2599   0.240   4.193   8.165
    1HEX    C03 2600   0.090   4.214   8.160
    1HEX    O04 2601   0.014   4.125   8.123
    1HEX    O05 2602   0.056   4.338   8.196
    1HEX    C06 2603  17.360   4.372   8.211
    1HEX    C07 2604  17.318   4.367   8.359
    1HEX    C08 2605  17.382   4.491   8.435
    1HEX    O09 2606   0.083   4.521   8.410
    1HEX    C0A 2607   0.161   4.595   8.500
    1HEX    O0B 2608   0.118   4.635   8.608
    1HEX    C0C 2609   0.307   4.629   8.455
    1HEX    C0D 2610   0.425   4.605   8.559
    1HEX    C0F 2611  17.161   4.377   8.355
    1HEX    O0G 2612  17.106   4.254   8.303
    1HEX    C0H 2613  17.033   4.250   8.189
    1HEX    O0I 2614  16.985   4.347   8.132
    1HEX    C0J 2615  17.020   4.108   8.133
    1HEX    C0K 2616  16.894   4.035   8.183
    1HEX    C0N 2617  17.341   4.224   8.424
    1HEX    O0O 2618   0.027   4.177   8.472
    1HEX    C0P 2619   0.095   4.244   8.578
    1HEX    C0Q 2620   0.049   4.235   8.726
    1HEX    C0R 2621   0.080   4.093   8.780
    1HEX    O0S 2622   0.221   4.068   8.775
    1HEX    C0T 2623   0.296   4.073   8.887
    1HEX    O0U 2624   0.254   4.086   9.002
    1HEX    C0V 2625   0.445   4.062   8.857
    1HEX    C0W 2626   0.518   4.198   8.848
    1HEX    C0Y 2627   0.134   4.341   8.799
    1HEX    O0Z 2628   0.111   4.341   8.938
    1HEX    C10 2629   0.189   4.413   9.016
    1HEX    O11 2630   0.285   4.481   8.979
    1HEX    C12 2631   0.147   4.405   9.162
    1HEX    C13 2632   0.256   4.454   9.257
    1HEX    C15 2633  17.339   4.270   8.750
    1HEX    O16 2634  17.297   4.260   8.886
    1HEX    C17 2635  17.214   4.162   8.925
    1HEX    O18 2636  17.173   4.069   8.855
    1HEX    C19 2637  17.169   4.178   9.069
    1HEX    C1A 2638  17.089   4.308   9.085
    1HEX    H1C 2639   0.498   4.207   7.900
    1HEX    H1D 2640   0.262   4.111   7.966
    1HEX    H1E 2641   0.260   4.287   7.971
    1HEX    H1F 2642   0.283   4.272   8.227
    1HEX    H1G 2643   0.261   4.099   8.214
    1HEX    H1H 2644  17.298   4.309   8.148
    1HEX    H1I 2645  17.347   4.473   8.172
    1HEX    H1J 2646  17.365   4.481   8.542
    1HEX    H1K 2647  17.327   4.581   8.408
    1HEX    H1M 2648   0.304   4.735   8.429
    1HEX    H1N 2649   0.325   4.576   8.363
    1HEX    H1O 2650   0.412   4.509   8.609
    1HEX    H1P 2651   0.416   4.679   8.639
    1HEX    H1R 2652  17.126   4.463   8.299
    1HEX    H1S 2653  17.120   4.389   8.456
    1HEX    H1T 2654  17.110   4.052   8.157
    1HEX    H1U 2655  17.017   4.115   8.024
    1HEX    H1V 2656  16.804   4.087   8.154
    1HEX    H1W 2657  16.895   4.029   8.292
    1HEX    H1X 2658  16.873   3.898   7.987
    1HEX    H1Y 2659  17.320   4.151   8.345
    1HEX    H1Z 2660  17.262   4.200   8.494
    1HEX    H20 2661   0.113   4.346   8.550
    1HEX    H21 2662   0.195   4.202   8.572
    1HEX    H22 2663   0.028   4.018   8.721
    1HEX    H23 2664   0.042   4.082   8.882
    1HEX    H24 2665   0.455   4.008   8.763
    1HEX    H25 2666   0.490   4.000   8.934
    1HEX    H26 2667   0.466   4.267   8.781
    1HEX    H27 2668   0.617   4.183   8.804
    1HEX    H28 2669   0.425   4.346   9.008
    1HEX    H29 2670   0.112   4.441   8.763
    1HEX    H2A 2671   0.240   4.325   8.780
    1HEX    H2B 2672   0.122   4.301   9.182
    1HEX    H2C 2673   0.055   4.463   9.172
    1HEX    H2D 2674   0.289   4.555   9.230
    1HEX    H2E 2675   0.343   4.389   9.251
    1HEX    H2F 2676   0.091   4.543   9.404
    1HEX    H2G 2677  17.274   4.208   8.690
    1HEX    H2H 2678  17.320   4.373   8.721
    1HEX    H2I 2679  17.257   4.177   9.133
    1HEX    H2J 2680  17.109   4.091   9.096
    1HEX    H2K 2681  17.005   4.310   9.016
    1HEX    H2M 2682  17.152   4.394   9.061
    1HEX    H2N 2683  16.943   4.221   9.252
    1STR    S00 2684   0.477   4.202   8.032
    1STR    S0E 2685   0.603   4.617   8.492
    1STR    S0M 2686  16.891   3.866   8.115
    1STR    S0X 2687   0.539   4.275   9.010
    1STR    S14 2688   0.189   4.455   9.426
    1STR    S1B 2689  17.029   4.323   9.255
    1HEX    C01 2690   0.264   4.214  12.400
    1HEX    C02 2691   0.204   4.226  12.540
    1HEX    C03 2692   0.053   4.245  12.532
    1HEX    O04 2693  17.421   4.157  12.485
    1HEX    O05 2694   0.012   4.365  12.579
    1HEX    C06 2695  17.313   4.398  12.580
    1HEX    C07 2696  17.251   4.389  12.722
    1HEX    C08 2697  17.293   4.513  12.808
    1HEX    O09 2698  17.247   4.649  12.785
    1HEX    C0A 2699  17.262   4.740  12.890
    1HEX    O0B 2700  17.280   4.706  13.007
    1HEX    C0C 2701  17.260   4.892  12.856
    1HEX    C0D 2702  17.300   4.983  12.979
    1HEX    C0F 2703  17.096   4.384  12.707
    1HEX    O0G 2704  17.056   4.256  12.654
    1HEX    C0H 2705  17.010   4.242  12.528
    1HEX    O0I 2706  16.978   4.334  12.454
    1HEX    C0J 2707  17.007   4.097  12.481
    1HEX    C0K 2708  16.886   4.020  12.537
    1HEX    C0N 2709  17.289   4.251  12.789
    1HEX    O0O 2710  17.422   4.221  12.836
    1HEX    C0P 2711   0.050   4.292  12.939
    1HEX    C0Q 2712   0.011   4.279  13.090
    1HEX    C0R 2713   0.039   4.134  13.138
    1HEX    O0S 2714   0.179   4.102  13.128
    1HEX    C0T 2715   0.256   4.093  13.239
    1HEX    O0U 2716   0.217   4.103  13.355
    1HEX    C0V 2717   0.403   4.066  13.208
    1HEX    C0W 2718   0.492   4.192  13.201
    1HEX    C0Y 2719   0.106   4.376  13.163
    1HEX    O0Z 2720   0.085   4.373  13.302
    1HEX    C10 2721   0.179   4.420  13.382
    1HEX    O11 2722   0.284   4.473  13.346
    1HEX    C12 2723   0.142   4.402  13.528
    1HEX    C13 2724   0.252   4.453  13.623
    1HEX    C15 2725  17.304   4.327  13.119
    1HEX    O16 2726  17.234   4.287  13.237
    1HEX    C17 2727  17.126   4.204  13.225
    1HEX    O18 2728  17.115   4.118  13.138
    1HEX    C19 2729  17.010   4.232  13.322
    1HEX    C1A 2730  16.894   4.309  13.251
    1HEX    H1C 2731   0.471   4.204  12.282
    1HEX    H1D 2732   0.229   4.123  12.351
    1HEX    H1E 2733   0.233   4.298  12.337
    1HEX    H1F 2734   0.247   4.311  12.594
    1HEX    H1G 2735   0.224   4.137  12.599
    1HEX    H1H 2736  17.260   4.334  12.509
    1HEX    H1I 2737  17.301   4.499  12.540
    1HEX    H1J 2738  17.400   4.524  12.799
    1HEX    H1K 2739  17.271   4.488  12.911
    1HEX    H1M 2740  17.160   4.917  12.819
    1HEX    H1N 2741  17.329   4.909  12.773
    1HEX    H1O 2742  17.401   4.957  13.011
    1HEX    H1P 2743  17.236   4.956  13.063
    1HEX    H1R 2744  17.058   4.467  12.647
    1HEX    H1S 2745  17.048   4.394  12.804
    1HEX    H1T 2746  17.100   4.049  12.510
    1HEX    H1U 2747  17.004   4.097  12.372
    1HEX    H1V 2748  16.793   4.070  12.511
    1HEX    H1W 2749  16.892   4.015  12.646
    1HEX    H1X 2750  16.865   3.883  12.341
    1HEX    H1Y 2751  17.277   4.175  12.711
    1HEX    H1Z 2752  17.214   4.216  12.860
    1HEX    H20 2753   0.065   4.396  12.912
    1HEX    H21 2754   0.152   4.253  12.930
    1HEX    H22 2755  17.423   4.062  13.077
    1HEX    H23 2756   0.003   4.120  13.240
    1HEX    H24 2757   0.408   4.013  13.113
    1HEX    H25 2758   0.443   3.997  13.283
    1HEX    H26 2759   0.447   4.269  13.139
    1HEX    H27 2760   0.588   4.167  13.157
    1HEX    H28 2761   0.417   4.342  13.370
    1HEX    H29 2762   0.093   4.479  13.129
    1HEX    H2A 2763   0.210   4.351  13.141
    1HEX    H2B 2764   0.123   4.296  13.545
    1HEX    H2C 2765   0.049   4.455  13.544
    1HEX    H2D 2766   0.285   4.553  13.594
    1HEX    H2E 2767   0.339   4.387  13.618
    1HEX    H2F 2768   0.090   4.548  13.769
    1HEX    H2G 2769  17.240   4.303  13.036
    1HEX    H2H 2770  17.304   4.436  13.122
    1HEX    H2I 2771  17.048   4.285  13.410
    1HEX    H2J 2772  16.975   4.135  13.357
    1HEX    H2K 2773  16.891   4.283  13.146
    1HEX    H2M 2774  16.914   4.416  13.255
    1STR    S00 2775   0.445   4.213  12.413
    1STR    S0E 2776  17.289   5.169  12.965
    1STR    S0M 2777  16.886   3.851  12.469
    1STR    S0X 2778   0.525   4.262  13.366
    1STR    S14 2779   0.185   4.457  13.792
    1STR    S1B 2780  16.724   4.282  13.320
    1HEX    C01 2781   0.273   8.566  16.746
    1HEX    C02 2782   0.208   8.567  16.885
    1HEX    C03 2783   0.057   8.556  16.874
    1HEX    O04 2784   0.004   8.451  16.836
    1HEX    O05 2785  17.434   8.668  16.909
    1HEX    C06 2786  17.292   8.667  16.925
    1HEX    C07 2787  17.254   8.658  17.074
    1HEX    C08 2788  17.281   8.796  17.138
    1HEX    O09 2789  17.202   8.909  17.102
    1HEX    C0A 2790  17.166   8.994  17.201
    1HEX    O0B 2791  17.140   8.961  17.317
    1HEX    C0C 2792  17.169   9.142  17.160
    1HEX    C0D 2793  17.180   9.234  17.284
    1HEX    C0F 2794  17.104   8.616  17.086
    1HEX    O0G 2795  17.092   8.473  17.073
    1HEX    C0H 2796  17.058   8.414  16.956
    1HEX    O0I 2797  17.004   8.473  16.863
    1HEX    C0J 2798  17.099   8.266  16.944
    1HEX    C0K 2799  17.082   8.181  17.073
    1HEX    C0N 2800  17.334   8.546  17.151
    1HEX    O0O 2801   0.033   8.564  17.183
    1HEX    C0P 2802   0.080   8.651  17.287
    1HEX    C0Q 2803   0.040   8.630  17.436
    1HEX    C0R 2804   0.072   8.484   0.039
    1HEX    O0S 2805   0.213   8.459   0.037
    1HEX    C0T 2806   0.282   8.448   0.152
    1HEX    O0U 2807   0.235   8.454   0.266
    1HEX    C0V 2808   0.431   8.425   0.129
    1HEX    C0W 2809   0.513   8.555   0.122
    1HEX    C0Y 2810   0.130   8.729   0.075
    1HEX    O0Z 2811   0.105   8.721   0.214
    1HEX    C10 2812   0.189   8.780   0.297
    1HEX    O11 2813   0.290   8.844   0.265
    1HEX    C12 2814   0.147   8.761   0.442
    1HEX    C13 2815   0.253   8.812   0.541
    1HEX    C15 2816  17.332   8.668   0.028
    1HEX    O16 2817  17.292   8.643   0.162
    1HEX    C17 2818  17.214   8.539   0.193
    1HEX    O18 2819  17.179   8.450   0.115
    1HEX    C19 2820  17.169   8.543   0.337
    1HEX    C1A 2821  17.087   8.670   0.363
    1HEX    H1C 2822   0.484   8.572  16.636
    1HEX    H1D 2823   0.249   8.473  16.694
    1HEX    H1E 2824   0.236   8.648  16.686
    1HEX    H1F 2825   0.233   8.658  16.940
    1HEX    H1G 2826   0.243   8.484  16.945
    1HEX    H1H 2827  17.247   8.588  16.866
    1HEX    H1I 2828  17.253   8.759  16.882
    1HEX    H1J 2829  17.382   8.826  17.111
    1HEX    H1K 2830  17.281   8.784  17.245
    1HEX    H1M 2831  17.080   9.166  17.102
    1HEX    H1N 2832  17.255   9.156  17.095
    1HEX    H1O 2833  17.255   9.197  17.354
    1HEX    H1P 2834  17.086   9.235  17.338
    1HEX    H1Q 2835  17.356   9.382  17.219
    1HEX    H1R 2836  17.042   8.670  17.014
    1HEX    H1S 2837  17.065   8.644  17.184
    1HEX    H1T 2838  17.203   8.264  16.911
    1HEX    H1U 2839  17.041   8.224  16.863
    1HEX    H1V 2840  16.981   8.194  17.110
    1HEX    H1W 2841  17.148   8.216  17.152
    1HEX    H1Y 2842  17.335   8.458  17.085
    1HEX    H1Z 2843  17.281   8.507  17.237
    1HEX    H20 2844   0.070   8.755  17.259
    1HEX    H21 2845   0.188   8.634  17.281
    1HEX    H22 2846   0.023   8.413  17.413
    1HEX    H23 2847   0.031   8.464   0.138
    1HEX    H24 2848   0.441   8.369   0.036
    1HEX    H25 2849   0.469   8.360   0.209
    1HEX    H26 2850   0.467   8.627   0.054
    1HEX    H27 2851   0.612   8.533   0.081
    1HEX    H28 2852   0.422   8.702   0.285
    1HEX    H29 2853   0.112   8.832   0.043
    1HEX    H2A 2854   0.235   8.709   0.056
    1HEX    H2B 2855   0.128   8.655   0.458
    1HEX    H2C 2856   0.053   8.814   0.455
    1HEX    H2D 2857   0.285   8.913   0.515
    1HEX    H2E 2858   0.342   8.749   0.536
    1HEX    H2F 2859   0.087   8.901   0.687
    1HEX    H2G 2860  17.260   8.623  17.401
    1HEX    H2H 2861  17.319   8.776   0.015
    1HEX    H2I 2862  17.257   8.539   0.402
    1HEX    H2J 2863  17.110   8.453   0.358
    1HEX    H2K 2864  17.000   8.675   0.297
    1HEX    H2M 2865  17.147   8.759   0.342
    1HEX    H2N 2866  16.945   8.574   0.529
    1STR    S00 2867   0.453   8.580  16.766
    1STR    S0E 2868  17.225   9.403  17.235
    1STR    S0M 2869  17.104   7.998  17.049
    1STR    S0X 2870   0.536   8.631   0.285
    1STR    S14 2871   0.183   8.810   0.708
    1STR    S1B 2872  17.032   8.675   0.536
    1HEX    C01 2873   0.278   8.566   3.670
    1HEX    C02 2874   0.216   8.569   3.810
    1HEX    C03 2875   0.064   8.570   3.800
    1HEX    O04 2876   0.002   8.470   3.763
    1HEX    O05 2877   0.011   8.688   3.834
    1HEX    C06 2878  17.310   8.704   3.840
    1HEX    C07 2879  17.260   8.701   3.986
    1HEX    C08 2880  17.309   8.829   4.056
    1HEX    O09 2881  17.243   8.950   4.021
    1HEX    C0A 2882  17.178   9.019   4.116
    1HEX    O0B 2883  17.132   8.972   4.220
    1HEX    C0C 2884  17.171   9.168   4.086
    1HEX    C0D 2885  17.182   9.250   4.216
    1HEX    C0F 2886  17.104   8.700   3.987
    1HEX    O0G 2887  17.057   8.578   3.930
    1HEX    C0H 2888  17.006   8.574   3.806
    1HEX    O0I 2889  16.973   8.672   3.739
    1HEX    C0J 2890  16.996   8.433   3.751
    1HEX    C0K 2891  16.876   8.358   3.809
    1HEX    C0N 2892  17.306   8.570   4.061
    1HEX    O0O 2893   0.002   8.553   4.104
    1HEX    C0P 2894   0.068   8.634   4.203
    1HEX    C0Q 2895   0.033   8.622   4.355
    1HEX    C0R 2896   0.067   8.479   4.404
    1HEX    O0S 2897   0.208   8.454   4.399
    1HEX    C0T 2898   0.280   8.447   4.514
    1HEX    O0U 2899   0.235   8.456   4.628
    1HEX    C0V 2900   0.428   8.425   4.489
    1HEX    C0W 2901   0.511   8.555   4.481
    1HEX    C0Y 2902   0.123   8.725   4.427
    1HEX    O0Z 2903   0.101   8.721   4.567
    1HEX    C10 2904   0.188   8.779   4.649
    1HEX    O11 2905   0.289   8.840   4.615
    1HEX    C12 2906   0.146   8.762   4.794
    1HEX    C13 2907   0.253   8.812   4.892
    1HEX    C15 2908  17.325   8.661   4.387
    1HEX    O16 2909  17.287   8.641   4.523
    1HEX    C17 2910  17.213   8.535   4.559
    1HEX    O18 2911  17.180   8.441   4.485
    1HEX    C19 2912  17.167   8.543   4.703
    1HEX    C1A 2913  17.085   8.670   4.726
    1HEX    H1C 2914   0.485   8.569   3.555
    1HEX    H1D 2915   0.249   8.475   3.617
    1HEX    H1E 2916   0.242   8.651   3.611
    1HEX    H1F 2917   0.248   8.656   3.866
    1HEX    H1G 2918   0.246   8.481   3.867
    1HEX    H1H 2919  17.261   8.628   3.779
    1HEX    H1I 2920  17.284   8.799   3.793
    1HEX    H1J 2921  17.413   8.846   4.030
    1HEX    H1K 2922  17.306   8.815   4.164
    1HEX    H1M 2923  17.080   9.192   4.032
    1HEX    H1N 2924  17.254   9.192   4.020
    1HEX    H1O 2925  17.257   9.208   4.283
    1HEX    H1P 2926  17.087   9.249   4.270
    1HEX    H1Q 2927  17.357   9.398   4.148
    1HEX    H1R 2928  17.064   8.787   3.935
    1HEX    H1S 2929  17.066   8.708   4.089
    1HEX    H1T 2930  17.089   8.381   3.773
    1HEX    H1U 2931  16.989   8.440   3.642
    1HEX    H1V 2932  16.783   8.409   3.786
    1HEX    H1W 2933  16.884   8.353   3.918
    1HEX    H1X 2934  16.858   8.224   3.612
    1HEX    H1Y 2935  17.291   8.488   3.991
    1HEX    H1Z 2936  17.236   8.542   4.139
    1HEX    H20 2937   0.076   8.737   4.173
    1HEX    H21 2938   0.172   8.601   4.194
    1HEX    H22 2939   0.016   8.405   4.342
    1HEX    H23 2940   0.029   8.463   4.505
    1HEX    H24 2941   0.437   8.370   4.395
    1HEX    H25 2942   0.467   8.360   4.567
    1HEX    H26 2943   0.464   8.628   4.415
    1HEX    H27 2944   0.609   8.534   4.440
    1HEX    H28 2945   0.422   8.703   4.645
    1HEX    H29 2946   0.105   8.827   4.392
    1HEX    H2A 2947   0.229   8.705   4.406
    1HEX    H2B 2948   0.126   8.656   4.811
    1HEX    H2C 2949   0.053   8.816   4.808
    1HEX    H2D 2950   0.285   8.913   4.867
    1HEX    H2E 2951   0.342   8.748   4.887
    1HEX    H2F 2952   0.089   8.901   5.040
    1HEX    H2G 2953  17.254   8.609   4.325
    1HEX    H2H 2954  17.309   8.767   4.370
    1HEX    H2I 2955  17.256   8.541   4.767
    1HEX    H2J 2956  17.109   8.454   4.726
    1HEX    H2K 2957  17.000   8.673   4.659
    1HEX    H2M 2958  17.146   8.758   4.704
    1HEX    H2N 2959  16.943   8.577   4.892
    1STR    S00 2960   0.458   8.575   3.685
    1STR    S0E 2961  17.229   9.422   4.178
    1STR    S0M 2962  16.873   8.190   3.741
    1STR    S0X 2963   0.535   8.630   4.645
    1STR    S14 2964   0.185   8.810   5.060
    1STR    S1B 2965  17.030   8.679   4.898
    1HEX    C01 2966   0.278   8.566   8.030
    1HEX    C02 2967   0.216   8.569   8.170
    1HEX    C03 2968   0.064   8.570   8.160
    1HEX    O04 2969   0.002   8.470   8.123
    1HEX    O05 2970   0.011   8.688   8.194
    1HEX    C06 2971  17.310   8.704   8.200
    1HEX    C07 2972  17.260   8.701   8.346
    1HEX    C08 2973  17.309   8.829   8.416
    1HEX    O09 2974  17.243   8.950   8.381
    1HEX    C0A 2975  17.178   9.019   8.476
    1HEX    O0B 2976  17.132   8.972   8.580
    1HEX    C0C 2977  17.171   9.168   8.446
    1HEX    C0D 2978  17.182   9.250   8.576
    1HEX    C0F 2979  17.104   8.700   8.347
    1HEX    O0G 2980  17.057   8.578   8.290
    1HEX    C0H 2981  17.006   8.574   8.166
    1HEX    O0I 2982  16.973   8.672   8.099
    1HEX    C0J 2983  16.996   8.433   8.111
    1HEX    C0K 2984  16.876   8.358   8.169
    1HEX    C0N 2985  17.306   8.570   8.421
    1HEX    O0O 2986   0.002   8.553   8.464
    1HEX    C0P 2987   0.068   8.634   8.563
    1HEX    C0Q 2988   0.033   8.622   8.715
    1HEX    C0R 2989   0.067   8.479   8.764
    1HEX    O0S 2990   0.208   8.454   8.759
    1HEX    C0T 2991   0.280   8.447   8.874
    1HEX    O0U 2992   0.235   8.456   8.988
    1HEX    C0V 2993   0.428   8.425   8.849
    1HEX    C0W 2994   0.511   8.555   8.841
    1HEX    C0Y 2995   0.123   8.725   8.787
    1HEX    O0Z 2996   0.101   8.722   8.927
    1HEX    C10 2997   0.188   8.779   9.009
    1HEX    O11 2998   0.289   8.839   8.975
    1HEX    C12 2999   0.146   8.762   9.154
    1HEX    C13 3000   0.253   8.812   9.252
    1HEX    C15 3001  17.325   8.661   8.747
    1HEX    O16 3002  17.287   8.641   8.883
    1HEX    C17 3003  17.213   8.535   8.919
    1HEX    O18 3004  17.180   8.441   8.845
    1HEX    C19 3005  17.167   8.543   9.063
    1HEX    C1A 3006  17.085   8.670   9.086
    1HEX    H1C 3007   0.485   8.569   7.915
    1HEX    H1D 3008   0.249   8.475   7.977
    1HEX    H1E 3009   0.242   8.651   7.971
    1HEX    H1F 3010   0.248   8.657   8.226
    1HEX    H1G 3011   0.246   8.481   8.227
    1HEX    H1H 3012  17.261   8.628   8.139
    1HEX    H1I 3013  17.284   8.799   8.153
    1HEX    H1J 3014  17.413   8.846   8.390
    1HEX    H1K 3015  17.306   8.815   8.524
    1HEX    H1M 3016  17.080   9.192   8.392
    1HEX    H1N 3017  17.254   9.192   8.380
    1HEX    H1O 3018  17.257   9.208   8.643
    1HEX    H1P 3019  17.087   9.249   8.630
    1HEX    H1Q 3020  17.357   9.398   8.508
    1HEX    H1R 3021  17.064   8.787   8.295
    1HEX    H1S 3022  17.066   8.708   8.449
    1HEX    H1T 3023  17.089   8.381   8.133
    1HEX    H1U 3024  16.989   8.440   8.002
    1HEX    H1V 3025  16.783   8.409   8.146
    1HEX    H1W 3026  16.884   8.353   8.278
    1HEX    H1X 3027  16.858   8.224   7.972
    1HEX    H1Y 3028  17.291   8.488   8.351
    1HEX    H1Z 3029  17.236   8.542   8.499
    1HEX    H20 3030   0.076   8.737   8.533
    1HEX    H21 3031   0.172   8.601   8.554
    1HEX    H22 3032   0.016   8.405   8.702
    1HEX    H23 3033   0.029   8.463   8.865
    1HEX    H24 3034   0.437   8.370   8.755
    1HEX    H25 3035   0.467   8.360   8.927
    1HEX    H26 3036   0.464   8.628   8.775
    1HEX    H27 3037   0.609   8.534   8.800
    1HEX    H28 3038   0.422   8.703   9.005
    1HEX    H29 3039   0.105   8.827   8.752
    1HEX    H2A 3040   0.229   8.705   8.766
    1HEX    H2B 3041   0.126   8.656   9.171
    1HEX    H2C 3042   0.053   8.816   9.168
    1HEX    H2D 3043   0.285   8.913   9.227
    1HEX    H2E 3044   0.342   8.748   9.247
    1HEX    H2F 3045   0.089   8.901   9.400
    1HEX    H2G 3046  17.254   8.609   8.685
    1HEX    H2H 3047  17.309   8.767   8.730
    1HEX    H2I 3048  17.256   8.541   9.127
    1HEX    H2J 3049  17.109   8.454   9.086
    1HEX    H2K 3050  17.000   8.673   9.019
    1HEX    H2M 3051  17.146   8.758   9.064
    1HEX    H2N 3052  16.943   8.577   9.252
    1STR    S00 3053   0.458   8.575   8.046
    1STR    S0E 3054  17.229   9.422   8.538
    1STR    S0M 3055  16.873   8.190   8.101
    1STR    S0X 3056   0.535   8.630   9.005
    1STR    S14 3057   0.185   8.810   9.420
    1STR    S1B 3058  17.030   8.679   9.258
    1HEX    C01 3059   0.268   8.569  12.389
    1HEX    C02 3060   0.209   8.570  12.530
    1HEX    C03 3061   0.060   8.540  12.527
    1HEX    O04 3062   0.019   8.427  12.501
    1HEX    O05 3063  17.424   8.646  12.559
    1HEX    C06 3064  17.286   8.627  12.589
    1HEX    C07 3065  17.263   8.632  12.742
    1HEX    C08 3066  17.277   8.780  12.786
    1HEX    O09 3067  17.182   8.881  12.752
    1HEX    C0A 3068  17.154   8.973  12.848
    1HEX    O0B 3069  17.137   8.948  12.967
    1HEX    C0C 3070  17.158   9.118  12.798
    1HEX    C0D 3071  17.173   9.218  12.914
    1HEX    C0F 3072  17.123   8.569  12.775
    1HEX    O0G 3073  17.135   8.426  12.798
    1HEX    C0H 3074  17.109   8.335  12.700
    1HEX    O0I 3075  17.051   8.363  12.595
    1HEX    C0J 3076  17.166   8.193  12.723
    1HEX    C0K 3077  17.168   8.133  12.867
    1HEX    C0N 3078  17.367   8.547  12.824
    1HEX    O0O 3079   0.060   8.597  12.845
    1HEX    C0P 3080   0.095   8.698  12.941
    1HEX    C0Q 3081   0.061   8.685  13.093
    1HEX    C0R 3082   0.098   8.542  13.138
    1HEX    O0S 3083   0.237   8.517  13.131
    1HEX    C0T 3084   0.302   8.465  13.237
    1HEX    O0U 3085   0.254   8.444  13.348
    1HEX    C0V 3086   0.448   8.436  13.208
    1HEX    C0W 3087   0.530   8.566  13.196
    1HEX    C0Y 3088   0.145   8.795  13.170
    1HEX    O0Z 3089   0.085   8.927  13.175
    1HEX    C10 3090   0.158   9.042  13.201
    1HEX    O11 3091   0.279   9.052  13.191
    1HEX    C12 3092   0.069   9.156  13.258
    1HEX    C13 3093   0.115   9.308  13.271
    1HEX    C15 3094  17.350   8.708  13.125
    1HEX    O16 3095  17.311   8.672  13.257
    1HEX    C17 3096  17.233   8.564  13.277
    1HEX    O18 3097  17.203   8.479  13.193
    1HEX    C19 3098  17.177   8.557  13.419
    1HEX    C1A 3099  17.086   8.678  13.445
    1HEX    H1C 3100   0.476   8.573  12.272
    1HEX    H1D 3101   0.242   8.476  12.337
    1HEX    H1E 3102   0.229   8.652  12.329
    1HEX    H1F 3103   0.226   8.666  12.579
    1HEX    H1G 3104   0.255   8.494  12.592
    1HEX    H1H 3105  17.247   8.535  12.545
    1HEX    H1I 3106  17.231   8.708  12.540
    1HEX    H1J 3107  17.371   8.818  12.745
    1HEX    H1K 3108  17.291   8.783  12.893
    1HEX    H1M 3109  17.068   9.139  12.739
    1HEX    H1N 3110  17.243   9.128  12.731
    1HEX    H1O 3111  17.263   9.197  12.972
    1HEX    H1P 3112  17.089   9.212  12.983
    1HEX    H1Q 3113  17.251   9.442  12.949
    1HEX    H1R 3114  17.050   8.592  12.697
    1HEX    H1S 3115  17.083   8.613  12.866
    1HEX    H1T 3116  17.268   8.196  12.684
    1HEX    H1U 3117  17.111   8.127  12.656
    1HEX    H1V 3118  17.066   8.120  12.904
    1HEX    H1W 3119  17.218   8.200  12.937
    1HEX    H1Y 3120  17.380   8.454  12.767
    1HEX    H1Z 3121  17.326   8.511  12.918
    1HEX    H20 3122   0.072   8.798  12.905
    1HEX    H21 3123   0.204   8.695  12.933
    1HEX    H22 3124   0.047   8.467  13.077
    1HEX    H23 3125   0.060   8.523  13.239
    1HEX    H24 3126   0.451   8.380  13.114
    1HEX    H25 3127   0.488   8.371  13.285
    1HEX    H26 3128   0.479   8.637  13.130
    1HEX    H27 3129   0.627   8.545  13.151
    1HEX    H28 3130   0.425   8.654  13.391
    1HEX    H29 3131   0.246   8.802  13.128
    1HEX    H2A 3132   0.161   8.762  13.273
    1HEX    H2B 3133   0.058   9.122  13.361
    1HEX    H2C 3134  17.410   9.148  13.215
    1HEX    H2D 3135   0.198   9.311  13.342
    1HEX    H2E 3136   0.034   9.362  13.321
    1HEX    H2G 3137  17.285   8.656  13.056
    1HEX    H2H 3138  17.323   8.813  13.112
    1HEX    H2I 3139  17.261   8.555  13.488
    1HEX    H2J 3140  17.123   8.463  13.431
    1HEX    H2K 3141  17.000   8.677  13.377
    1HEX    H2M 3142  17.140   8.770  13.426
    1HEX    H2N 3143  16.948   8.571  13.607
    1STR    S00 3144   0.449   8.582  12.402
    1STR    S0E 3145  17.185   9.386  12.846
    1STR    S0M 3146  17.252   7.967  12.869
    1STR    S0X 3147   0.555   8.641  13.359
    1STR    S14 3148   0.168   9.420  13.131
    1STR    S1B 3149  17.029   8.677  13.617
    1HEX    C01 3150   0.278  12.927  16.750
    1HEX    C02 3151   0.216  12.929  16.890
    1HEX    C03 3152   0.064  12.930  16.880
    1HEX    O04 3153   0.002  12.830  16.843
    1HEX    O05 3154   0.011  13.048  16.914
    1HEX    C06 3155  17.310  13.064  16.920
    1HEX    C07 3156  17.260  13.061  17.066
    1HEX    C08 3157  17.309  13.189  17.136
    1HEX    O09 3158  17.243  13.310  17.101
    1HEX    C0A 3159  17.178  13.379  17.196
    1HEX    O0B 3160  17.132  13.332  17.300
    1HEX    C0C 3161  17.171  13.528  17.166
    1HEX    C0D 3162  17.182  13.610  17.296
    1HEX    C0F 3163  17.104  13.060  17.067
    1HEX    O0G 3164  17.057  12.938  17.010
    1HEX    C0H 3165  17.006  12.935  16.886
    1HEX    O0I 3166  16.973  13.032  16.819
    1HEX    C0J 3167  16.996  12.793  16.831
    1HEX    C0K 3168  16.876  12.718  16.889
    1HEX    C0N 3169  17.305  12.930  17.141
    1HEX    O0O 3170   0.002  12.913  17.184
    1HEX    C0P 3171   0.068  12.994  17.283
    1HEX    C0Q 3172   0.033  12.982  17.435
    1HEX    C0R 3173   0.067  12.839   0.044
    1HEX    O0S 3174   0.208  12.815   0.039
    1HEX    C0T 3175   0.280  12.808   0.154
    1HEX    O0U 3176   0.235  12.817   0.268
    1HEX    C0V 3177   0.428  12.785   0.129
    1HEX    C0W 3178   0.511  12.915   0.121
    1HEX    C0Y 3179   0.123  13.085   0.067
    1HEX    O0Z 3180   0.101  13.082   0.207
    1HEX    C10 3181   0.188  13.139   0.289
    1HEX    O11 3182   0.289  13.200   0.255
    1HEX    C12 3183   0.146  13.122   0.434
    1HEX    C13 3184   0.253  13.172   0.532
    1HEX    C15 3185  17.325  13.021   0.027
    1HEX    O16 3186  17.287  13.001   0.163
    1HEX    C17 3187  17.213  12.895   0.198
    1HEX    O18 3188  17.180  12.802   0.125
    1HEX    C19 3189  17.167  12.903   0.343
    1HEX    C1A 3190  17.086  13.031   0.366
    1HEX    H1C 3191   0.485  12.930  16.635
    1HEX    H1D 3192   0.249  12.836  16.697
    1HEX    H1E 3193   0.242  13.011  16.691
    1HEX    H1F 3194   0.248  13.017  16.946
    1HEX    H1G 3195   0.246  12.841  16.947
    1HEX    H1H 3196  17.261  12.988  16.859
    1HEX    H1I 3197  17.284  13.159  16.873
    1HEX    H1J 3198  17.413  13.206  17.110
    1HEX    H1K 3199  17.306  13.175  17.244
    1HEX    H1M 3200  17.080  13.552  17.112
    1HEX    H1N 3201  17.254  13.552  17.100
    1HEX    H1O 3202  17.257  13.568  17.363
    1HEX    H1P 3203  17.087  13.609  17.350
    1HEX    H1Q 3204  17.357  13.758  17.228
    1HEX    H1R 3205  17.064  13.147  17.015
    1HEX    H1S 3206  17.066  13.068  17.169
    1HEX    H1T 3207  17.089  12.741  16.853
    1HEX    H1U 3208  16.989  12.800  16.722
    1HEX    H1V 3209  16.783  12.769  16.866
    1HEX    H1W 3210  16.884  12.713  16.998
    1HEX    H1X 3211  16.858  12.584  16.693
    1HEX    H1Y 3212  17.291  12.848  17.071
    1HEX    H1Z 3213  17.235  12.902  17.219
    1HEX    H20 3214   0.076  13.097  17.252
    1HEX    H21 3215   0.172  12.961  17.274
    1HEX    H22 3216   0.016  12.765  17.422
    1HEX    H23 3217   0.029  12.823   0.145
    1HEX    H24 3218   0.437  12.730   0.035
    1HEX    H25 3219   0.467  12.720   0.207
    1HEX    H26 3220   0.464  12.988   0.055
    1HEX    H27 3221   0.609  12.894   0.080
    1HEX    H28 3222   0.422  13.063   0.285
    1HEX    H29 3223   0.105  13.187   0.032
    1HEX    H2A 3224   0.229  13.066   0.046
    1HEX    H2B 3225   0.126  13.017   0.451
    1HEX    H2C 3226   0.053  13.176   0.448
    1HEX    H2D 3227   0.285  13.274   0.507
    1HEX    H2E 3228   0.342  13.109   0.527
    1HEX    H2F 3229   0.089  13.261   0.680
    1HEX    H2G 3230  17.254  12.969  17.405
    1HEX    H2H 3231  17.309  13.127   0.010
    1HEX    H2I 3232  17.256  12.901   0.407
    1HEX    H2J 3233  17.109  12.814   0.366
    1HEX    H2K 3234  17.000  13.034   0.299
    1HEX    H2M 3235  17.146  13.119   0.344
    1HEX    H2N 3236  16.943  12.937   0.533
    1STR    S00 3237   0.458  12.935  16.766
    1STR    S0E 3238  17.229  13.782  17.258
    1STR    S0M 3239  16.874  12.550  16.821
    1STR    S0X 3240   0.535  12.990   0.285
    1STR    S14 3241   0.185  13.170   0.700
    1STR    S1B 3242  17.030  13.039   0.538
    1HEX    C01 3243   0.269  12.931   3.678
    1HEX    C02 3244   0.213  12.937   3.821
    1HEX    C03 3245   0.061  12.939   3.819
    1HEX    O04 3246  17.438  12.840   3.783
    1HEX    O05 3247   0.009  13.058   3.855
    1HEX    C06 3248  17.308  13.076   3.856
    1HEX    C07 3249  17.249  13.084   3.999
    1HEX    C08 3250  17.284  13.219   4.063
    1HEX    O09 3251  17.214  13.334   4.020
    1HEX    C0A 3252  17.152  13.407   4.114
    1HEX    O0B 3253  17.101  13.363   4.217
    1HEX    C0C 3254  17.161  13.557   4.088
    1HEX    C0D 3255  17.185  13.634   4.219
    1HEX    C0F 3256  17.094  13.071   3.988
    1HEX    O0G 3257  17.060  12.944   3.932
    1HEX    C0H 3258  17.005  12.935   3.809
    1HEX    O0I 3259  16.966  13.030   3.741
    1HEX    C0J 3260  17.000  12.793   3.757
    1HEX    C0K 3261  16.879  12.717   3.811
    1HEX    C0N 3262  17.299  12.971   4.094
    1HEX    O0O 3263  17.434  12.977   4.147
    1HEX    C0P 3264   0.044  13.073   4.244
    1HEX    C0Q 3265   0.024  13.055   4.400
    1HEX    C0R 3266   0.168  13.066   4.459
    1HEX    O0S 3267   0.221  13.193   4.412
    1HEX    C0T 3268   0.264  13.293   4.496
    1HEX    O0U 3269   0.289  13.277   4.615
    1HEX    C0V 3270   0.294  13.427   4.423
    1HEX    C0W 3271   0.251  13.564   4.493
    1HEX    C0Y 3272  17.386  13.169   4.473
    1HEX    O0Z 3273  17.379  13.135   4.613
    1HEX    C10 3274  17.425  13.211   4.716
    1HEX    O11 3275   0.018  13.329   4.707
    1HEX    C12 3276  17.428  13.134   4.849
    1HEX    C13 3277   0.103  13.174   4.946
    1HEX    C15 3278  17.386  12.921   4.420
    1HEX    O16 3279  17.344  12.891   4.553
    1HEX    C17 3280  17.219  12.844   4.574
    1HEX    O18 3281  17.146  12.793   4.489
    1HEX    C19 3282  17.167  12.870   4.715
    1HEX    C1A 3283  17.091  13.004   4.720
    1HEX    H1C 3284   0.473  12.930   3.555
    1HEX    H1D 3285   0.238  12.839   3.629
    1HEX    H1E 3286   0.231  13.014   3.618
    1HEX    H1F 3287   0.248  13.026   3.873
    1HEX    H1G 3288   0.245  12.851   3.878
    1HEX    H1H 3289  17.260  12.999   3.796
    1HEX    H1I 3290  17.286  13.168   3.801
    1HEX    H1J 3291  17.389  13.240   4.040
    1HEX    H1K 3292  17.275  13.208   4.171
    1HEX    H1M 3293  17.071  13.590   4.037
    1HEX    H1N 3294  17.245  13.572   4.020
    1HEX    H1O 3295  17.258  13.583   4.282
    1HEX    H1P 3296  17.093  13.638   4.278
    1HEX    H1Q 3297  17.367  13.766   4.144
    1HEX    H1R 3298  17.052  13.154   3.931
    1HEX    H1S 3299  17.048  13.079   4.087
    1HEX    H1T 3300  17.093  12.742   3.783
    1HEX    H1U 3301  16.997  12.797   3.648
    1HEX    H1V 3302  16.786  12.769   3.786
    1HEX    H1W 3303  16.884  12.711   3.920
    1HEX    H1X 3304  16.860  12.585   3.613
    1HEX    H1Y 3305  17.295  12.878   4.036
    1HEX    H1Z 3306  17.226  12.954   4.173
    1HEX    H20 3307   0.039  13.178   4.217
    1HEX    H21 3308   0.149  13.055   4.223
    1HEX    H22 3309   0.230  12.983   4.423
    1HEX    H23 3310   0.168  13.057   4.568
    1HEX    H24 3311   0.257  13.421   4.321
    1HEX    H25 3312   0.403  13.426   4.414
    1HEX    H26 3313   0.343  13.617   4.516
    1HEX    H27 3314   0.206  13.544   4.591
    1HEX    H29 3315  17.285  13.180   4.434
    1HEX    H2A 3316  17.433  13.267   4.460
    1HEX    H2B 3317  17.439  13.028   4.825
    1HEX    H2C 3318  17.332  13.146   4.899
    1HEX    H2D 3319   0.092  13.279   4.975
    1HEX    H2E 3320   0.198  13.168   4.892
    1HEX    H2G 3321  17.435  12.834   4.375
    1HEX    H2H 3322  17.294  12.934   4.364
    1HEX    H2I 3323  17.251  12.869   4.784
    1HEX    H2J 3324  17.101  12.788   4.743
    1HEX    H2K 3325  17.005  13.002   4.653
    1HEX    H2M 3326  17.155  13.085   4.686
    1HEX    H2N 3327  16.940  12.948   4.895
    1STR    S00 3328   0.450  12.940   3.687
    1STR    S0E 3329  17.244  13.801   4.183
    1STR    S0M 3330  16.876  12.550   3.741
    1STR    S0X 3331   0.148  13.689   4.397
    1STR    S14 3332   0.116  13.069   5.098
    1STR    S1B 3333  17.038  13.038   4.889
    1HEX    C01 3334   0.283  12.934   8.026
    1HEX    C02 3335   0.244  12.930   8.174
    1HEX    C03 3336   0.094  12.935   8.185
    1HEX    O04 3337   0.024  12.837   8.157
    1HEX    O05 3338   0.050  13.057   8.222
    1HEX    C06 3339  17.351  13.085   8.213
    1HEX    C07 3340  17.276  13.068   8.347
    1HEX    C08 3341  17.307  13.193   8.433
    1HEX    O09 3342  17.246  13.314   8.393
    1HEX    C0A 3343  17.177  13.386   8.484
    1HEX    O0B 3344  17.129  13.341   8.588
    1HEX    C0C 3345  17.171  13.534   8.450
    1HEX    C0D 3346  17.182  13.619   8.578
    1HEX    C0F 3347  17.124  13.064   8.315
    1HEX    O0G 3348  17.101  12.973   8.207
    1HEX    C0H 3349  16.995  12.992   8.128
    1HEX    O0I 3350  16.896  13.056   8.160
    1HEX    C0J 3351  17.004  12.931   7.987
    1HEX    C0K 3352  17.141  12.874   7.938
    1HEX    C0N 3353  17.309  12.935   8.423
    1HEX    O0O 3354   0.000  12.906   8.475
    1HEX    C0P 3355   0.070  12.988   8.570
    1HEX    C0Q 3356   0.037  12.979   8.723
    1HEX    C0R 3357   0.070  12.836   8.773
    1HEX    O0S 3358   0.211  12.811   8.767
    1HEX    C0T 3359   0.285  12.806   8.881
    1HEX    O0U 3360   0.242  12.817   8.995
    1HEX    C0V 3361   0.433  12.784   8.853
    1HEX    C0W 3362   0.514  12.914   8.843
    1HEX    C0Y 3363   0.128  13.083   8.793
    1HEX    O0Z 3364   0.105  13.082   8.932
    1HEX    C10 3365   0.191  13.140   9.014
    1HEX    O11 3366   0.293  13.200   8.980
    1HEX    C12 3367   0.149  13.125   9.159
    1HEX    C13 3368   0.256  13.174   9.257
    1HEX    C15 3369  17.329  13.017   8.755
    1HEX    O16 3370  17.291  12.996   8.890
    1HEX    C17 3371  17.214  12.891   8.925
    1HEX    O18 3372  17.181  12.799   8.851
    1HEX    C19 3373  17.166  12.900   9.068
    1HEX    C1A 3374  17.084  13.029   9.089
    1HEX    H1C 3375   0.470  12.937   7.881
    1HEX    H1D 3376   0.245  12.846   7.974
    1HEX    H1E 3377   0.239  13.021   7.976
    1HEX    H1F 3378   0.286  13.015   8.228
    1HEX    H1G 3379   0.279  12.839   8.222
    1HEX    H1H 3380  17.311  13.023   8.134
    1HEX    H1I 3381  17.338  13.186   8.175
    1HEX    H1J 3382  17.413  13.216   8.423
    1HEX    H1K 3383  17.289  13.171   8.537
    1HEX    H1M 3384  17.080  13.556   8.396
    1HEX    H1N 3385  17.255  13.556   8.384
    1HEX    H1O 3386  17.255  13.576   8.647
    1HEX    H1P 3387  17.087  13.620   8.631
    1HEX    H1Q 3388  17.360  13.762   8.509
    1HEX    H1R 3389  17.088  13.163   8.286
    1HEX    H1S 3390  17.063  13.035   8.402
    1HEX    H1T 3391  16.927  12.855   7.980
    1HEX    H1U 3392  16.973  13.011   7.921
    1HEX    H1V 3393  17.129  12.768   7.918
    1HEX    H1W 3394  17.221  12.879   8.011
    1HEX    H1Y 3395  17.291  12.854   8.352
    1HEX    H1Z 3396  17.234  12.914   8.498
    1HEX    H20 3397   0.080  13.090   8.538
    1HEX    H21 3398   0.173  12.952   8.560
    1HEX    H22 3399   0.018  12.762   8.714
    1HEX    H23 3400   0.033  12.822   8.875
    1HEX    H24 3401   0.441  12.728   8.760
    1HEX    H25 3402   0.473  12.720   8.931
    1HEX    H26 3403   0.466  12.986   8.777
    1HEX    H27 3404   0.612  12.893   8.800
    1HEX    H28 3405   0.426  13.062   9.008
    1HEX    H29 3406   0.109  13.184   8.756
    1HEX    H2A 3407   0.233  13.062   8.772
    1HEX    H2B 3408   0.128  13.019   9.177
    1HEX    H2C 3409   0.056  13.179   9.172
    1HEX    H2D 3410   0.288  13.275   9.232
    1HEX    H2E 3411   0.345  13.111   9.252
    1HEX    H2F 3412   0.090  13.261   9.404
    1HEX    H2G 3413  17.258  12.966   8.691
    1HEX    H2H 3414  17.314  13.124   8.739
    1HEX    H2I 3415  17.252  12.898   9.134
    1HEX    H2J 3416  17.106  12.812   9.090
    1HEX    H2K 3417  16.999  13.031   9.021
    1HEX    H2M 3418  17.145  13.116   9.067
    1HEX    H2N 3419  16.940  12.937   9.256
    1STR    S00 3420   0.464  12.940   8.015
    1STR    S0E 3421  17.232  13.789   8.538
    1STR    S0M 3422  17.190  12.952   7.779
    1STR    S0X 3423   0.541  12.992   9.005
    1STR    S14 3424   0.187  13.172   9.425
    1STR    S1B 3425  17.027  13.039   9.261
    1HEX    C01 3426   0.353  12.939  12.340
    1HEX    C02 3427   0.276  12.944  12.472
    1HEX    C03 3428   0.126  12.947  12.449
    1HEX    O04 3429   0.072  12.861  12.380
    1HEX    O05 3430   0.064  13.043  12.522
    1HEX    C06 3431  17.362  13.040  12.536
    1HEX    C07 3432  17.311  12.976  12.671
    1HEX    C08 3433  17.274  13.086  12.777
    1HEX    O09 3434  17.139  13.083  12.831
    1HEX    C0A 3435  17.074  12.981  12.899
    1HEX    O0B 3436  16.952  12.978  12.912
    1HEX    C0C 3437  17.159  12.875  12.969
    1HEX    C0D 3438  17.136  12.717  12.963
    1HEX    C0F 3439  17.173  12.914  12.630
    1HEX    O0G 3440  17.159  12.834  12.514
    1HEX    C0H 3441  17.045  12.846  12.443
    1HEX    O0I 3442  16.979  12.949  12.429
    1HEX    C0J 3443  16.994  12.715  12.388
    1HEX    C0K 3444  16.880  12.663  12.478
    1HEX    C0N 3445  17.419  12.872  12.729
    1HEX    O0O 3446   0.008  12.862  12.871
    1HEX    C0P 3447   0.114  12.939  12.933
    1HEX    C0Q 3448   0.119  12.927  13.091
    1HEX    C0R 3449   0.202  12.803  13.134
    1HEX    O0S 3450   0.344  12.823  13.116
    1HEX    C0T 3451   0.426  12.833  13.225
    1HEX    O0U 3452   0.390  12.828  13.342
    1HEX    C0V 3453   0.574  12.854  13.190
    1HEX    C0W 3454   0.597  12.986  13.113
    1HEX    C0Y 3455   0.182  13.056  13.151
    1HEX    O0Z 3456   0.171  13.051  13.292
    1HEX    C10 3457   0.221  13.146  13.369
    1HEX    O11 3458   0.297  13.235  13.333
    1HEX    C12 3459   0.167  13.135  13.511
    1HEX    C13 3460   0.268  13.179  13.617
    1HEX    C15 3461  17.414  12.912  13.149
    1HEX    O16 3462  17.393  12.912  13.291
    1HEX    C17 3463  17.273  12.870  13.339
    1HEX    O18 3464  17.190  12.803  13.277
    1HEX    C19 3465  17.238  12.920  13.478
    1HEX    C1A 3466  17.134  13.033  13.468
    1HEX    H1C 3467   0.573  12.934  12.251
    1HEX    H1D 3468   0.327  12.848  12.284
    1HEX    H1E 3469   0.326  13.024  12.277
    1HEX    H1F 3470   0.305  13.031  12.530
    1HEX    H1G 3471   0.299  12.856  12.532
    1HEX    H1H 3472  17.322  12.988  12.449
    1HEX    H1I 3473  17.323  13.141  12.520
    1HEX    H1J 3474  17.280  13.184  12.729
    1HEX    H1K 3475  17.346  13.096  12.858
    1HEX    H1M 3476  17.140  12.906  13.071
    1HEX    H1N 3477  17.258  12.904  12.951
    1HEX    H1O 3478  17.150  12.684  13.066
    1HEX    H1P 3479  17.031  12.698  12.943
    1HEX    H1R 3480  17.102  12.997  12.621
    1HEX    H1S 3481  17.135  12.849  12.707
    1HEX    H1T 3482  17.077  12.644  12.385
    1HEX    H1U 3483  16.959  12.730  12.286
    1HEX    H1V 3484  16.790  12.726  12.467
    1HEX    H1W 3485  16.908  12.668  12.583
    1HEX    H1X 3486  16.808  12.514  12.307
    1HEX    H1Y 3487   0.077  12.882  12.684
    1HEX    H1Z 3488  17.386  12.774  12.695
    1HEX    H20 3489   0.105  13.043  12.904
    1HEX    H21 3490   0.210  12.907  12.892
    1HEX    H22 3491   0.171  12.716  13.077
    1HEX    H23 3492   0.179  12.778  13.238
    1HEX    H24 3493   0.610  12.769  13.132
    1HEX    H25 3494   0.630  12.853  13.283
    1HEX    H26 3495   0.518  13.055  13.144
    1HEX    H27 3496   0.583  12.970  13.007
    1HEX    H29 3497   0.131  13.146  13.116
    1HEX    H2A 3498   0.287  13.066  13.122
    1HEX    H2B 3499   0.138  13.031  13.529
    1HEX    H2C 3500   0.076  13.195  13.516
    1HEX    H2D 3501   0.302  13.281  13.598
    1HEX    H2E 3502   0.356  13.115  13.615
    1HEX    H2F 3503   0.094  13.263  13.760
    1HEX    H2G 3504  17.374  12.818  13.110
    1HEX    H2H 3505  17.355  12.996  13.114
    1HEX    H2I 3506  17.327  12.950  13.533
    1HEX    H2J 3507  17.195  12.835  13.532
    1HEX    H2K 3508  17.056  13.008  13.395
    1HEX    H2M 3509  17.181  13.125  13.434
    1HEX    H2N 3510  16.967  12.960  13.622
    1STR    S00 3511   0.530  12.941  12.378
    1STR    S0E 3512  17.242  12.593  12.865
    1STR    S0M 3513  16.843  12.491  12.434
    1STR    S0X 3514   0.752  13.081  13.142
    1STR    S14 3515   0.188  13.170  13.780
    1STR    S1B 3516  17.054  13.061  13.629
    1HEX    C01 3517   4.643  17.292  16.742
    1HEX    C02 3518   4.575  17.300  16.879
    1HEX    C03 3519   4.424  17.308  16.862
    1HEX    O04 3520   4.360  17.211  16.821
    1HEX    O05 3521   4.374  17.428  16.895
    1HEX    C06 3522   4.234   0.006  16.907
    1HEX    C07 3523   4.189  17.437  17.056
    1HEX    C08 3524   4.232   0.125  17.130
    1HEX    O09 3525   4.167   0.245  17.092
    1HEX    C0A 3526   4.091   0.309  17.183
    1HEX    O0B 3527   4.036   0.257  17.280
    1HEX    C0C 3528   4.088   0.460  17.161
    1HEX    C0D 3529   4.101   0.535  17.295
    1HEX    C0F 3530   4.035  17.423  17.062
    1HEX    O0G 3531   3.996  17.298  17.005
    1HEX    C0H 3532   3.931  17.292  16.888
    1HEX    O0I 3533   3.886  17.388  16.826
    1HEX    C0J 3534   3.921  17.151  16.832
    1HEX    C0K 3535   3.800  17.076  16.889
    1HEX    C0N 3536   4.252  17.314  17.128
    1HEX    O0O 3537   4.389  17.324  17.173
    1HEX    C0P 3538   4.431  17.383  17.299
    1HEX    C0Q 3539   4.395  17.302  17.428
    1HEX    C0R 3540   4.457  17.160  17.408
    1HEX    O0S 3541   4.595  17.158  17.365
    1HEX    C0T 3542   4.698  17.148   0.013
    1HEX    O0U 3543   4.689  17.156   0.133
    1HEX    C0V 3544   4.835  17.122  17.393
    1HEX    C0W 3545   4.942  17.227  17.431
    1HEX    C0Y 3546   4.455  17.362   0.120
    1HEX    O0Z 3547   4.412  17.268   0.220
    1HEX    C10 3548   4.491  17.212   0.311
    1HEX    O11 3549   4.582  17.269   0.371
    1HEX    C12 3550   4.449  17.066   0.340
    1HEX    C13 3551   4.548  16.949   0.305
    1HEX    C15 3552   4.239  17.303   0.003
    1HEX    O16 3553   4.180  17.316   0.132
    1HEX    C17 3554   4.120  17.211   0.191
    1HEX    O18 3555   4.107  17.099   0.141
    1HEX    C19 3556   4.067  17.241   0.330
    1HEX    C1A 3557   4.006  17.381   0.343
    1HEX    H1C 3558   4.856  17.286  16.638
    1HEX    H1D 3559   4.612  17.202  16.690
    1HEX    H1E 3560   4.615  17.377  16.680
    1HEX    H1F 3561   4.608  17.388  16.935
    1HEX    H1G 3562   4.597  17.213  16.940
    1HEX    H1H 3563   4.181  17.372  16.846
    1HEX    H1I 3564   4.206   0.102  16.865
    1HEX    H1J 3565   4.339   0.141  17.113
    1HEX    H1K 3566   4.219   0.110  17.237
    1HEX    H1M 3567   3.996   0.487  17.109
    1HEX    H1N 3568   4.171   0.485  17.095
    1HEX    H1O 3569   4.175   0.487  17.359
    1HEX    H1P 3570   4.006   0.532  17.349
    1HEX    H1Q 3571   4.277   0.682  17.230
    1HEX    H1R 3572   3.986   0.068  17.012
    1HEX    H1S 3573   3.999  17.427  17.165
    1HEX    H1T 3574   4.014  17.098  16.855
    1HEX    H1U 3575   3.915  17.158  16.724
    1HEX    H1V 3576   3.707  17.129  16.865
    1HEX    H1W 3577   3.806  17.070  16.998
    1HEX    H1X 3578   3.778  16.943  16.692
    1HEX    H1Y 3579   4.250  17.231  17.057
    1HEX    H1Z 3580   4.183  17.276  17.202
    1HEX    H20 3581   4.404   0.047  17.310
    1HEX    H21 3582   4.540  17.387  17.292
    1HEX    H22 3583   4.400  17.107  17.332
    1HEX    H23 3584   4.444  17.099   0.057
    1HEX    H24 3585   4.825  17.114  17.285
    1HEX    H25 3586   4.866  17.024  17.429
    1HEX    H26 3587   4.908  17.327  17.405
    1HEX    H27 3588   5.033  17.208  17.376
    1HEX    H28 3589   4.867  17.256   0.217
    1HEX    H29 3590   4.415   0.021   0.142
    1HEX    H2A 3591   4.563  17.372   0.117
    1HEX    H2B 3592   4.349  17.049   0.300
    1HEX    H2C 3593   4.438  17.068   0.449
    1HEX    H2D 3594   4.545  16.880   0.389
    1HEX    H2E 3595   4.650  16.987   0.307
    1HEX    H2G 3596   4.197  17.216  17.394
    1HEX    H2H 3597   4.198  17.391  17.392
    1HEX    H2I 3598   4.150  17.230   0.400
    1HEX    H2J 3599   3.994  17.165   0.355
    1HEX    H2K 3600   3.925  17.395   0.272
    1HEX    H2M 3601   4.081   0.018   0.321
    1HEX    H2N 3602   3.851  17.309   0.510
    1STR    S00 3603   4.823  17.291  16.767
    1STR    S0E 3604   4.150   0.707  17.266
    1STR    S0M 3605   3.795  16.909  16.820
    1STR    S0X 3606   4.988  17.226   0.168
    1STR    S14 3607   4.530  16.843   0.150
    1STR    S1B 3608   3.945  17.405   0.512
    1HEX    C01 3609   4.638  17.286   3.670
    1HEX    C02 3610   4.576  17.289   3.810
    1HEX    C03 3611   4.424  17.289   3.800
    1HEX    O04 3612   4.362  17.190   3.763
    1HEX    O05 3613   4.371  17.408   3.834
    1HEX    C06 3614   4.230  17.423   3.840
    1HEX    C07 3615   4.180  17.420   3.986
    1HEX    C08 3616   4.229   0.108   4.056
    1HEX    O09 3617   4.163   0.230   4.021
    1HEX    C0A 3618   4.098   0.298   4.116
    1HEX    O0B 3619   4.052   0.251   4.220
    1HEX    C0C 3620   4.091   0.448   4.086
    1HEX    C0D 3621   4.102   0.530   4.216
    1HEX    C0F 3622   4.024  17.419   3.987
    1HEX    O0G 3623   3.977  17.297   3.930
    1HEX    C0H 3624   3.926  17.294   3.806
    1HEX    O0I 3625   3.893  17.392   3.739
    1HEX    C0J 3626   3.916  17.153   3.751
    1HEX    C0K 3627   3.796  17.077   3.809
    1HEX    C0N 3628   4.225  17.290   4.061
    1HEX    O0O 3629   4.362  17.272   4.104
    1HEX    C0P 3630   4.428  17.353   4.203
    1HEX    C0Q 3631   4.393  17.342   4.355
    1HEX    C0R 3632   4.427  17.199   4.404
    1HEX    O0S 3633   4.568  17.174   4.399
    1HEX    C0T 3634   4.640  17.167   4.514
    1HEX    O0U 3635   4.595  17.176   4.628
    1HEX    C0V 3636   4.788  17.145   4.489
    1HEX    C0W 3637   4.871  17.275   4.481
    1HEX    C0Y 3638   4.483   0.005   4.427
    1HEX    O0Z 3639   4.461   0.001   4.567
    1HEX    C10 3640   4.548   0.059   4.649
    1HEX    O11 3641   4.649   0.119   4.615
    1HEX    C12 3642   4.507   0.042   4.794
    1HEX    C13 3643   4.613   0.092   4.892
    1HEX    C15 3644   4.245  17.380   4.387
    1HEX    O16 3645   4.207  17.360   4.523
    1HEX    C17 3646   4.133  17.254   4.559
    1HEX    O18 3647   4.100  17.161   4.485
    1HEX    C19 3648   4.087  17.262   4.703
    1HEX    C1A 3649   4.006  17.390   4.726
    1HEX    H1C 3650   4.845  17.289   3.555
    1HEX    H1D 3651   4.609  17.195   3.617
    1HEX    H1E 3652   4.602  17.371   3.611
    1HEX    H1F 3653   4.608  17.376   3.866
    1HEX    H1G 3654   4.606  17.201   3.867
    1HEX    H1H 3655   4.181  17.348   3.779
    1HEX    H1I 3656   4.204   0.078   3.793
    1HEX    H1J 3657   4.333   0.126   4.030
    1HEX    H1K 3658   4.226   0.095   4.164
    1HEX    H1M 3659   4.000   0.471   4.032
    1HEX    H1N 3660   4.175   0.471   4.020
    1HEX    H1O 3661   4.177   0.487   4.283
    1HEX    H1P 3662   4.007   0.528   4.270
    1HEX    H1Q 3663   4.277   0.678   4.148
    1HEX    H1R 3664   3.984   0.067   3.935
    1HEX    H1S 3665   3.986  17.427   4.088
    1HEX    H1T 3666   4.009  17.101   3.773
    1HEX    H1U 3667   3.909  17.159   3.642
    1HEX    H1V 3668   3.703  17.129   3.785
    1HEX    H1W 3669   3.803  17.072   3.918
    1HEX    H1X 3670   3.778  16.943   3.613
    1HEX    H1Y 3671   4.211  17.208   3.991
    1HEX    H1Z 3672   4.155  17.261   4.139
    1HEX    H20 3673   4.436   0.017   4.172
    1HEX    H21 3674   4.532  17.320   4.194
    1HEX    H22 3675   4.376  17.124   4.342
    1HEX    H23 3676   4.389  17.183   4.505
    1HEX    H24 3677   4.798  17.090   4.395
    1HEX    H25 3678   4.827  17.080   4.567
    1HEX    H26 3679   4.824  17.348   4.415
    1HEX    H27 3680   4.969  17.253   4.440
    1HEX    H28 3681   4.782  17.422   4.645
    1HEX    H29 3682   4.465   0.107   4.392
    1HEX    H2A 3683   4.589  17.425   4.406
    1HEX    H2B 3684   4.487  17.376   4.811
    1HEX    H2C 3685   4.412   0.095   4.808
    1HEX    H2D 3686   4.645   0.194   4.867
    1HEX    H2E 3687   4.702   0.029   4.887
    1HEX    H2F 3688   4.448   0.180   5.040
    1HEX    H2G 3689   4.174  17.328   4.325
    1HEX    H2H 3690   4.229   0.046   4.369
    1HEX    H2I 3691   4.176  17.260   4.767
    1HEX    H2J 3692   4.029  17.173   4.726
    1HEX    H2K 3693   3.920  17.393   4.659
    1HEX    H2M 3694   4.066   0.038   4.703
    1HEX    H2N 3695   3.864  17.296   4.893
    1STR    S00 3696   4.818  17.295   3.686
    1STR    S0E 3697   4.149   0.701   4.178
    1STR    S0M 3698   3.793  16.909   3.741
    1STR    S0X 3699   4.895  17.350   4.645
    1STR    S14 3700   4.545   0.090   5.060
    1STR    S1B 3701   3.950  17.398   4.898
    1HEX    C01 3702   4.638  17.286   8.030
    1HEX    C02 3703   4.576  17.289   8.170
    1HEX    C03 3704   4.424  17.289   8.160
    1HEX    O04 3705   4.362  17.190   8.123
    1HEX    O05 3706   4.371  17.408   8.194
    1HEX    C06 3707   4.230  17.423   8.200
    1HEX    C07 3708   4.180  17.420   8.346
    1HEX    C08 3709   4.229   0.109   8.416
    1HEX    O09 3710   4.163   0.230   8.381
    1HEX    C0A 3711   4.098   0.298   8.475
    1HEX    O0B 3712   4.052   0.251   8.579
    1HEX    C0C 3713   4.091   0.448   8.446
    1HEX    C0D 3714   4.102   0.530   8.576
    1HEX    C0F 3715   4.024  17.420   8.347
    1HEX    O0G 3716   3.977  17.297   8.290
    1HEX    C0H 3717   3.926  17.294   8.166
    1HEX    O0I 3718   3.893  17.392   8.099
    1HEX    C0J 3719   3.916  17.153   8.111
    1HEX    C0K 3720   3.796  17.077   8.169
    1HEX    C0N 3721   4.225  17.290   8.421
    1HEX    O0O 3722   4.362  17.272   8.464
    1HEX    C0P 3723   4.428  17.353   8.563
    1HEX    C0Q 3724   4.393  17.342   8.715
    1HEX    C0R 3725   4.427  17.199   8.764
    1HEX    O0S 3726   4.568  17.174   8.759
    1HEX    C0T 3727   4.640  17.167   8.874
    1HEX    O0U 3728   4.595  17.176   8.988
    1HEX    C0V 3729   4.788  17.145   8.849
    1HEX    C0W 3730   4.871  17.275   8.841
    1HEX    C0Y 3731   4.483   0.005   8.787
    1HEX    O0Z 3732   4.461   0.001   8.927
    1HEX    C10 3733   4.548   0.059   9.009
    1HEX    O11 3734   4.649   0.119   8.975
    1HEX    C12 3735   4.507   0.042   9.154
    1HEX    C13 3736   4.613   0.092   9.252
    1HEX    C15 3737   4.245  17.380   8.747
    1HEX    O16 3738   4.207  17.360   8.883
    1HEX    C17 3739   4.133  17.254   8.919
    1HEX    O18 3740   4.100  17.161   8.845
    1HEX    C19 3741   4.087  17.262   9.063
    1HEX    C1A 3742   4.005  17.390   9.086
    1HEX    H1C 3743   4.845  17.290   7.915
    1HEX    H1D 3744   4.609  17.195   7.977
    1HEX    H1E 3745   4.602  17.371   7.971
    1HEX    H1F 3746   4.608  17.376   8.226
    1HEX    H1G 3747   4.606  17.201   8.227
    1HEX    H1H 3748   4.181  17.348   8.139
    1HEX    H1I 3749   4.204   0.078   8.153
    1HEX    H1J 3750   4.333   0.126   8.390
    1HEX    H1K 3751   4.226   0.095   8.524
    1HEX    H1M 3752   4.000   0.471   8.392
    1HEX    H1N 3753   4.174   0.471   8.380
    1HEX    H1O 3754   4.177   0.487   8.643
    1HEX    H1P 3755   4.007   0.528   8.630
    1HEX    H1Q 3756   4.277   0.678   8.508
    1HEX    H1R 3757   3.984   0.067   8.294
    1HEX    H1S 3758   3.986  17.427   8.448
    1HEX    H1T 3759   4.009  17.101   8.133
    1HEX    H1U 3760   3.909  17.159   8.002
    1HEX    H1V 3761   3.703  17.129   8.146
    1HEX    H1W 3762   3.804  17.072   8.278
    1HEX    H1X 3763   3.778  16.943   7.973
    1HEX    H1Y 3764   4.211  17.208   8.351
    1HEX    H1Z 3765   4.155  17.261   8.499
    1HEX    H20 3766   4.436   0.017   8.532
    1HEX    H21 3767   4.532  17.320   8.554
    1HEX    H22 3768   4.376  17.125   8.702
    1HEX    H23 3769   4.389  17.183   8.865
    1HEX    H24 3770   4.798  17.090   8.755
    1HEX    H25 3771   4.827  17.080   8.927
    1HEX    H26 3772   4.824  17.348   8.775
    1HEX    H27 3773   4.969  17.254   8.800
    1HEX    H28 3774   4.782  17.422   9.005
    1HEX    H29 3775   4.465   0.107   8.752
    1HEX    H2A 3776   4.589  17.425   8.766
    1HEX    H2B 3777   4.487  17.376   9.171
    1HEX    H2C 3778   4.412   0.095   9.168
    1HEX    H2D 3779   4.645   0.194   9.227
    1HEX    H2E 3780   4.702   0.029   9.247
    1HEX    H2F 3781   4.448   0.180   9.400
    1HEX    H2G 3782   4.174  17.329   8.685
    1HEX    H2H 3783   4.229   0.046   8.729
    1HEX    H2I 3784   4.175  17.260   9.127
    1HEX    H2J 3785   4.029  17.173   9.086
    1HEX    H2K 3786   3.919  17.393   9.019
    1HEX    H2M 3787   4.066   0.038   9.064
    1HEX    H2N 3788   3.863  17.296   9.252
    1STR    S00 3789   4.818  17.295   8.046
    1STR    S0E 3790   4.149   0.701   8.538
    1STR    S0M 3791   3.794  16.909   8.101
    1STR    S0X 3792   4.895  17.350   9.005
    1STR    S14 3793   4.545   0.090   9.420
    1STR    S1B 3794   3.949  17.398   9.258
    1HEX    C01 3795   4.638  17.286  12.390
    1HEX    C02 3796   4.576  17.289  12.530
    1HEX    C03 3797   4.424  17.289  12.520
    1HEX    O04 3798   4.362  17.190  12.483
    1HEX    O05 3799   4.371  17.408  12.554
    1HEX    C06 3800   4.230  17.423  12.560
    1HEX    C07 3801   4.180  17.420  12.706
    1HEX    C08 3802   4.229   0.109  12.776
    1HEX    O09 3803   4.163   0.230  12.741
    1HEX    C0A 3804   4.098   0.298  12.836
    1HEX    O0B 3805   4.052   0.251  12.940
    1HEX    C0C 3806   4.091   0.448  12.806
    1HEX    C0D 3807   4.102   0.530  12.936
    1HEX    C0F 3808   4.024  17.419  12.707
    1HEX    O0G 3809   3.977  17.297  12.650
    1HEX    C0H 3810   3.926  17.294  12.526
    1HEX    O0I 3811   3.893  17.392  12.459
    1HEX    C0J 3812   3.916  17.153  12.471
    1HEX    C0K 3813   3.796  17.077  12.529
    1HEX    C0N 3814   4.225  17.290  12.781
    1HEX    O0O 3815   4.362  17.272  12.824
    1HEX    C0P 3816   4.428  17.353  12.923
    1HEX    C0Q 3817   4.393  17.342  13.075
    1HEX    C0R 3818   4.427  17.199  13.124
    1HEX    O0S 3819   4.568  17.174  13.119
    1HEX    C0T 3820   4.640  17.167  13.234
    1HEX    O0U 3821   4.595  17.176  13.348
    1HEX    C0V 3822   4.788  17.145  13.209
    1HEX    C0W 3823   4.871  17.275  13.201
    1HEX    C0Y 3824   4.483   0.005  13.147
    1HEX    O0Z 3825   4.461   0.001  13.287
    1HEX    C10 3826   4.548   0.059  13.369
    1HEX    O11 3827   4.649   0.119  13.335
    1HEX    C12 3828   4.506   0.042  13.514
    1HEX    C13 3829   4.613   0.092  13.612
    1HEX    C15 3830   4.245  17.380  13.107
    1HEX    O16 3831   4.207  17.360  13.243
    1HEX    C17 3832   4.133  17.254  13.279
    1HEX    O18 3833   4.100  17.161  13.205
    1HEX    C19 3834   4.087  17.262  13.423
    1HEX    C1A 3835   4.006  17.390  13.446
    1HEX    H1C 3836   4.845  17.290  12.275
    1HEX    H1D 3837   4.609  17.195  12.337
    1HEX    H1E 3838   4.602  17.371  12.331
    1HEX    H1F 3839   4.608  17.376  12.586
    1HEX    H1G 3840   4.606  17.201  12.587
    1HEX    H1H 3841   4.181  17.348  12.499
    1HEX    H1I 3842   4.204   0.078  12.513
    1HEX    H1J 3843   4.333   0.126  12.750
    1HEX    H1K 3844   4.226   0.095  12.884
    1HEX    H1M 3845   4.000   0.471  12.752
    1HEX    H1N 3846   4.175   0.471  12.740
    1HEX    H1O 3847   4.177   0.487  13.003
    1HEX    H1P 3848   4.007   0.528  12.990
    1HEX    H1Q 3849   4.277   0.678  12.868
    1HEX    H1R 3850   3.984   0.067  12.654
    1HEX    H1S 3851   3.986  17.427  12.808
    1HEX    H1T 3852   4.009  17.101  12.493
    1HEX    H1U 3853   3.909  17.159  12.362
    1HEX    H1V 3854   3.703  17.129  12.505
    1HEX    H1W 3855   3.804  17.072  12.638
    1HEX    H1X 3856   3.778  16.943  12.333
    1HEX    H1Y 3857   4.211  17.208  12.711
    1HEX    H1Z 3858   4.155  17.261  12.859
    1HEX    H20 3859   4.436   0.017  12.892
    1HEX    H21 3860   4.532  17.320  12.914
    1HEX    H22 3861   4.376  17.125  13.062
    1HEX    H23 3862   4.389  17.183  13.225
    1HEX    H24 3863   4.798  17.090  13.115
    1HEX    H25 3864   4.827  17.080  13.287
    1HEX    H26 3865   4.824  17.348  13.135
    1HEX    H27 3866   4.969  17.254  13.160
    1HEX    H28 3867   4.782  17.422  13.365
    1HEX    H29 3868   4.465   0.107  13.112
    1HEX    H2A 3869   4.589  17.425  13.126
    1HEX    H2B 3870   4.486  17.376  13.531
    1HEX    H2C 3871   4.412   0.095  13.528
    1HEX    H2D 3872   4.645   0.193  13.587
    1HEX    H2E 3873   4.702   0.029  13.607
    1HEX    H2F 3874   4.448   0.180  13.760
    1HEX    H2G 3875   4.174  17.329  13.045
    1HEX    H2H 3876   4.229   0.046  13.089
    1HEX    H2I 3877   4.176  17.260  13.487
    1HEX    H2J 3878   4.029  17.173  13.446
    1HEX    H2K 3879   3.920  17.393  13.379
    1HEX    H2M 3880   4.066   0.038  13.424
    1HEX    H2N 3881   3.864  17.296  13.613
    1STR    S00 3882   4.818  17.295  12.406
    1STR    S0E 3883   4.149   0.701  12.898
    1STR    S0M 3884   3.793  16.909  12.461
    1STR    S0X 3885   4.895  17.350  13.365
    1STR    S14 3886   4.545   0.090  13.780
    1STR    S1B 3887   3.950  17.398  13.618
    1HEX    C01 3888   4.636   4.213  16.753
    1HEX    C02 3889   4.577   4.210  16.895
    1HEX    C03 3890   4.427   4.193  16.889
    1HEX    O04 3891   4.376   4.094  16.836
    1HEX    O05 3892   4.361   4.297  16.944
    1HEX    C06 3893   4.219   4.296  16.946
    1HEX    C07 3894   4.163   4.296  17.090
    1HEX    C08 3895   4.185   4.437  17.152
    1HEX    O09 3896   4.127   4.532  17.065
    1HEX    C0A 3897   4.118   4.660  17.100
    1HEX    O0B 3898   4.136   4.703  17.214
    1HEX    C0C 3899   4.088   4.751  16.982
    1HEX    C0D 3900   4.171   4.717  16.855
    1HEX    C0F 3901   4.009   4.279  17.086
    1HEX    O0G 3902   3.975   4.161  17.014
    1HEX    C0H 3903   3.896   4.168  16.906
    1HEX    O0I 3904   3.835   4.267  16.866
    1HEX    C0J 3905   3.889   4.036  16.832
    1HEX    C0K 3906   3.777   3.950  16.890
    1HEX    C0N 3907   4.222   4.175  17.170
    1HEX    O0O 3908   4.362   4.168  17.201
    1HEX    C0P 3909   4.429   4.260  17.289
    1HEX    C0Q 3910   4.398   4.259   0.001
    1HEX    C0R 3911   4.428   4.117   0.057
    1HEX    O0S 3912   4.568   4.088   0.050
    1HEX    C0T 3913   4.643   4.085   0.162
    1HEX    O0U 3914   4.602   4.097   0.277
    1HEX    C0V 3915   4.791   4.063   0.133
    1HEX    C0W 3916   4.874   4.193   0.124
    1HEX    C0Y 3917   4.493   4.362   0.068
    1HEX    O0Z 3918   4.468   4.363   0.207
    1HEX    C10 3919   4.554   4.420   0.290
    1HEX    O11 3920   4.658   4.478   0.257
    1HEX    C12 3921   4.510   4.406   0.435
    1HEX    C13 3922   4.616   4.455   0.534
    1HEX    C15 3923   4.253   4.307   0.032
    1HEX    O16 3924   4.211   4.286   0.166
    1HEX    C17 3925   4.134   4.180   0.197
    1HEX    O18 3926   4.099   4.091   0.120
    1HEX    C19 3927   4.087   4.183   0.342
    1HEX    C1A 3928   4.005   4.311   0.367
    1HEX    H1C 3929   4.840   4.215  16.632
    1HEX    H1D 3930   4.606   4.124  16.698
    1HEX    H1E 3931   4.598   4.300  16.698
    1HEX    H1F 3932   4.602   4.301  16.949
    1HEX    H1G 3933   4.618   4.127  16.951
    1HEX    H1H 3934   4.179   4.211  16.892
    1HEX    H1I 3935   4.184   4.383  16.890
    1HEX    H1J 3936   4.290   4.465  17.156
    1HEX    H1K 3937   4.143   4.446  17.252
    1HEX    H1M 3938   3.981   4.752  16.962
    1HEX    H1N 3939   4.114   4.851  17.016
    1HEX    H1O 3940   4.266   4.674  16.885
    1HEX    H1P 3941   4.196   4.809  16.802
    1HEX    H1R 3942   3.961   4.366  17.042
    1HEX    H1S 3943   3.967   4.271  17.186
    1HEX    H1T 3944   3.985   3.986  16.839
    1HEX    H1U 3945   3.871   4.057  16.727
    1HEX    H1V 3946   3.680   4.000  16.879
    1HEX    H1W 3947   3.793   3.934  16.997
    1HEX    H1X 3948   3.751   3.838  16.682
    1HEX    H1Y 3949   4.210   4.089  17.103
    1HEX    H1Z 3950   4.160   4.143  17.253
    1HEX    H20 3951   4.432   4.360  17.249
    1HEX    H21 3952   4.534   4.229  17.279
    1HEX    H22 3953   4.373   4.042   0.000
    1HEX    H23 3954   4.392   4.108   0.159
    1HEX    H24 3955   4.799   4.008   0.040
    1HEX    H25 3956   4.832   3.998   0.211
    1HEX    H26 3957   4.826   4.265   0.058
    1HEX    H27 3958   4.972   4.171   0.081
    1HEX    H28 3959   4.789   4.342   0.288
    1HEX    H29 3960   4.478   4.463   0.029
    1HEX    H2A 3961   4.597   4.337   0.049
    1HEX    H2B 3962   4.488   4.301   0.452
    1HEX    H2C 3963   4.417   4.461   0.446
    1HEX    H2D 3964   4.649   4.556   0.509
    1HEX    H2E 3965   4.705   4.391   0.529
    1HEX    H2F 3966   4.449   4.542   0.680
    1HEX    H2G 3967   4.178   4.266  17.407
    1HEX    H2H 3968   4.247   4.415   0.016
    1HEX    H2I 3969   4.175   4.180   0.407
    1HEX    H2J 3970   4.028   4.094   0.362
    1HEX    H2K 3971   3.919   4.315   0.300
    1HEX    H2M 3972   4.066   4.399   0.348
    1HEX    H2N 3973   3.862   4.214   0.532
    1STR    S00 3974   4.817   4.221  16.764
    1STR    S0E 3975   4.094   4.604  16.733
    1STR    S0M 3976   3.775   3.791  16.804
    1STR    S0X 3977   4.901   4.268   0.287
    1STR    S14 3978   4.546   4.452   0.701
    1STR    S1B 3979   3.949   4.315   0.540
    1HEX    C01 3980   4.519   4.861   3.981
    1HEX    C02 3981   4.550   4.712   4.025
    1HEX    C03 3982   4.482   4.587   3.959
    1HEX    O04 3983   4.553   4.496   3.917
    1HEX    O05 3984   4.346   4.579   3.962
    1HEX    C06 3985   4.275   4.459   3.917
    1HEX    C07 3986   4.179   4.394   4.025
    1HEX    C08 3987   4.170   4.490   4.146
    1HEX    O09 3988   4.123   4.615   4.099
    1HEX    C0A 3989   4.074   4.703   4.185
    1HEX    O0B 3990   4.034   4.678   4.298
    1HEX    C0C 3991   4.078   4.845   4.129
    1HEX    C0D 3992   4.098   4.945   4.244
    1HEX    C0F 3993   4.028   4.385   3.976
    1HEX    O0G 3994   3.972   4.260   3.932
    1HEX    C0H 3995   3.857   4.264   3.857
    1HEX    O0I 3996   3.821   4.361   3.791
    1HEX    C0J 3997   3.772   4.136   3.856
    1HEX    C0K 3998   3.692   4.108   3.987
    1HEX    C0N 3999   4.225   4.250   4.067
    1HEX    O0O 4000   4.361   4.217   4.105
    1HEX    C0P 4001   4.443   4.293   4.194
    1HEX    C0Q 4002   4.432   4.270   4.349
    1HEX    C0R 4003   4.502   4.138   4.394
    1HEX    O0S 4004   4.644   4.133   4.370
    1HEX    C0T 4005   4.734   4.142   4.473
    1HEX    O0U 4006   4.706   4.174   4.589
    1HEX    C0V 4007   4.877   4.100   4.437
    1HEX    C0W 4008   4.976   4.215   4.401
    1HEX    C0Y 4009   4.503   4.389   4.419
    1HEX    O0Z 4010   4.480   4.380   4.559
    1HEX    C10 4011   4.556   4.446   4.644
    1HEX    O11 4012   4.649   4.522   4.615
    1HEX    C12 4013   4.513   4.420   4.788
    1HEX    C13 4014   4.618   4.462   4.891
    1HEX    C15 4015   4.282   4.267   4.390
    1HEX    O16 4016   4.254   4.238   4.527
    1HEX    C17 4017   4.149   4.160   4.559
    1HEX    O18 4018   4.089   4.085   4.482
    1HEX    C19 4019   4.104   4.176   4.703
    1HEX    C1A 4020   4.019   4.304   4.715
    1HEX    H1D 4021   4.612   4.902   3.941
    1HEX    H1E 4022   4.449   4.862   3.898
    1HEX    H1F 4023   4.549   4.700   4.133
    1HEX    H1G 4024   4.655   4.696   3.998
    1HEX    H1H 4025   4.342   4.383   3.878
    1HEX    H1I 4026   4.217   4.489   3.830
    1HEX    H1J 4027   4.266   4.508   4.193
    1HEX    H1K 4028   4.104   4.450   4.223
    1HEX    H1M 4029   3.988   4.865   4.072
    1HEX    H1N 4030   4.162   4.849   4.060
    1HEX    H1O 4031   4.177   4.910   4.311
    1HEX    H1P 4032   4.007   4.952   4.303
    1HEX    H1Q 4033   4.263   5.070   4.129
    1HEX    H1R 4034   4.008   4.465   3.905
    1HEX    H1S 4035   3.961   4.410   4.059
    1HEX    H1T 4036   3.840   4.053   3.836
    1HEX    H1U 4037   3.705   4.139   3.771
    1HEX    H1V 4038   3.703   4.002   4.010
    1HEX    H1W 4039   3.735   4.161   4.072
    1HEX    H1Y 4040   4.209   4.186   3.980
    1HEX    H1Z 4041   4.153   4.209   4.138
    1HEX    H20 4042   4.441   4.397   4.166
    1HEX    H21 4043   4.545   4.264   4.167
    1HEX    H22 4044   4.455   4.054   4.343
    1HEX    H23 4045   4.481   4.121   4.500
    1HEX    H24 4046   4.874   4.025   4.359
    1HEX    H25 4047   4.914   4.049   4.526
    1HEX    H26 4048   4.948   4.308   4.451
    1HEX    H27 4049   4.971   4.235   4.294
    1HEX    H29 4050   4.465   4.485   4.385
    1HEX    H2A 4051   4.610   4.387   4.399
    1HEX    H2B 4052   4.492   4.313   4.797
    1HEX    H2C 4053   4.419   4.473   4.803
    1HEX    H2D 4054   4.650   4.565   4.874
    1HEX    H2E 4055   4.707   4.399   4.881
    1HEX    H2F 4056   4.451   4.537   5.043
    1HEX    H2G 4057   4.231   4.195   4.328
    1HEX    H2H 4058   4.238   4.364   4.372
    1HEX    H2I 4059   4.191   4.179   4.768
    1HEX    H2J 4060   4.045   4.089   4.730
    1HEX    H2K 4061   3.935   4.301   4.647
    1HEX    H2M 4062   4.079   4.391   4.688
    1HEX    H2N 4063   3.871   4.221   4.883
    1STR    S00 4064   4.463   4.981   4.113
    1STR    S0E 4065   4.144   5.108   4.178
    1STR    S0M 4066   3.508   4.134   3.986
    1STR    S0X 4067   5.151   4.173   4.446
    1STR    S14 4068   4.548   4.445   5.057
    1STR    S1B 4069   3.960   4.322   4.886
    1HEX    C01 4070   4.636   4.208   8.028
    1HEX    C02 4071   4.571   4.212   8.167
    1HEX    C03 4072   4.420   4.217   8.154
    1HEX    O04 4073   4.357   4.120   8.112
    1HEX    O05 4074   4.369   4.335   8.192
    1HEX    C06 4075   4.228   4.354   8.195
    1HEX    C07 4076   4.173   4.346   8.339
    1HEX    C08 4077   4.224   4.468   8.419
    1HEX    O09 4078   4.168   4.593   8.381
    1HEX    C0A 4079   4.098   4.664   8.471
    1HEX    O0B 4080   4.044   4.618   8.571
    1HEX    C0C 4081   4.098   4.813   8.443
    1HEX    C0D 4082   4.107   4.892   8.575
    1HEX    C0F 4083   4.018   4.350   8.337
    1HEX    O0G 4084   3.968   4.228   8.282
    1HEX    C0H 4085   3.924   4.222   8.156
    1HEX    O0I 4086   3.898   4.317   8.084
    1HEX    C0J 4087   3.914   4.079   8.105
    1HEX    C0K 4088   3.797   4.003   8.168
    1HEX    C0N 4089   4.212   4.210   8.407
    1HEX    O0O 4090   4.344   4.185   8.458
    1HEX    C0P 4091   4.403   4.259   8.566
    1HEX    C0Q 4092   4.349   4.247   8.713
    1HEX    C0R 4093   4.435   4.143   8.790
    1HEX    O0S 4094   4.576   4.162   8.788
    1HEX    C0T 4095   4.650   4.095   8.879
    1HEX    O0U 4096   4.606   4.041   8.980
    1HEX    C0V 4097   4.797   4.085   8.843
    1HEX    C0W 4098   4.869   4.221   8.833
    1HEX    C0Y 4099   4.353   4.387   8.784
    1HEX    O0Z 4100   4.220   4.444   8.787
    1HEX    C10 4101   4.181   4.521   8.890
    1HEX    O11 4102   4.255   4.598   8.951
    1HEX    C12 4103   4.038   4.490   8.940
    1HEX    C13 4104   3.914   4.572   8.890
    1HEX    C15 4105   4.205   4.192   8.721
    1HEX    O16 4106   4.163   4.185   8.857
    1HEX    C17 4107   4.101   4.077   8.905
    1HEX    O18 4108   4.080   3.972   8.844
    1HEX    C19 4109   4.055   4.097   9.048
    1HEX    C1A 4110   3.914   4.158   9.052
    1HEX    H1C 4111   4.846   4.208   7.918
    1HEX    H1D 4112   4.607   4.117   7.975
    1HEX    H1E 4113   4.603   4.292   7.968
    1HEX    H1F 4114   4.605   4.299   8.223
    1HEX    H1G 4115   4.598   4.124   8.225
    1HEX    H1H 4116   4.178   4.283   8.129
    1HEX    H1I 4117   4.206   4.452   8.152
    1HEX    H1J 4118   4.330   4.481   8.399
    1HEX    H1K 4119   4.213   4.451   8.526
    1HEX    H1M 4120   4.009   4.839   8.386
    1HEX    H1N 4121   4.185   4.835   8.381
    1HEX    H1O 4122   4.182   4.849   8.641
    1HEX    H1P 4123   4.011   4.886   8.628
    1HEX    H1Q 4124   4.276   5.046   8.510
    1HEX    H1R 4125   3.981   4.438   8.282
    1HEX    H1S 4126   3.978   4.361   8.438
    1HEX    H1T 4127   4.008   4.028   8.127
    1HEX    H1U 4128   3.905   4.081   7.997
    1HEX    H1V 4129   3.702   4.053   8.146
    1HEX    H1W 4130   3.807   4.000   8.277
    1HEX    H1X 4131   3.775   3.865   7.974
    1HEX    H1Y 4132   4.199   4.132   8.331
    1HEX    H1Z 4133   4.136   4.181   8.478
    1HEX    H20 4134   4.420   4.362   8.538
    1HEX    H21 4135   4.506   4.223   8.565
    1HEX    H22 4136   4.416   4.043   8.750
    1HEX    H23 4137   4.400   4.138   8.894
    1HEX    H24 4138   4.803   4.032   8.748
    1HEX    H25 4139   4.847   4.021   8.917
    1HEX    H26 4140   4.811   4.290   8.772
    1HEX    H27 4141   4.966   4.208   8.785
    1HEX    H28 4142   4.767   4.302   9.034
    1HEX    H29 4143   4.423   4.457   8.738
    1HEX    H2A 4144   4.389   4.376   8.886
    1HEX    H2B 4145   4.047   4.509   9.047
    1HEX    H2C 4146   4.023   4.383   8.934
    1HEX    H2D 4147   3.950   4.669   8.857
    1HEX    H2E 4148   3.852   4.592   8.977
    1HEX    H2G 4149   4.198   4.095   8.671
    1HEX    H2H 4150   4.134   4.259   8.672
    1HEX    H2I 4151   4.128   4.162   9.096
    1HEX    H2J 4152   4.059   4.002   9.101
    1HEX    H2K 4153   3.838   4.080   9.053
    1HEX    H2M 4154   3.894   4.217   8.963
    1HEX    H2N 4155   3.891   4.165   9.289
    1STR    S00 4156   4.817   4.213   8.048
    1STR    S0E 4157   4.147   5.066   8.541
    1STR    S0M 4158   3.794   3.834   8.103
    1STR    S0X 4159   4.896   4.292   8.998
    1STR    S14 4160   3.799   4.505   8.759
    1STR    S1B 4161   3.898   4.264   9.199
    1HEX    C01 4162   4.463   4.865  12.621
    1HEX    C02 4163   4.490   4.731  12.698
    1HEX    C03 4164   4.444   4.597  12.635
    1HEX    O04 4165   4.526   4.517  12.590
    1HEX    O05 4166   4.312   4.573  12.644
    1HEX    C06 4167   4.256   4.443  12.616
    1HEX    C07 4168   4.183   4.380  12.739
    1HEX    C08 4169   4.164   4.486  12.850
    1HEX    O09 4170   4.105   4.605  12.802
    1HEX    C0A 4171   4.021   4.671  12.879
    1HEX    O0B 4172   3.938   4.620  12.955
    1HEX    C0C 4173   4.047   4.821  12.876
    1HEX    C0D 4174   4.074   4.871  13.019
    1HEX    C0F 4175   4.037   4.340  12.700
    1HEX    O0G 4176   4.033   4.225  12.617
    1HEX    C0H 4177   3.939   4.213  12.522
    1HEX    O0I 4178   3.864   4.302  12.484
    1HEX    C0J 4179   3.930   4.073  12.463
    1HEX    C0K 4180   3.809   3.999  12.521
    1HEX    C0N 4181   4.253   4.250  12.794
    1HEX    O0O 4182   4.389   4.250  12.843
    1HEX    C0P 4183   4.439   4.319  12.959
    1HEX    C0Q 4184   4.395   4.279  13.105
    1HEX    C0R 4185   4.427   4.129  13.129
    1HEX    O0S 4186   4.568   4.105  13.124
    1HEX    C0T 4187   4.638   4.082  13.238
    1HEX    O0U 4188   4.591   4.077  13.351
    1HEX    C0V 4189   4.787   4.064  13.212
    1HEX    C0W 4190   4.864   4.196  13.200
    1HEX    C0Y 4191   4.474   4.365  13.209
    1HEX    O0Z 4192   4.432   4.340  13.344
    1HEX    C10 4193   4.498   4.391  13.450
    1HEX    O11 4194   4.604   4.453  13.442
    1HEX    C12 4195   4.426   4.366  13.585
    1HEX    C13 4196   4.510   4.399  13.712
    1HEX    C15 4197   4.245   4.311  13.124
    1HEX    O16 4198   4.194   4.286  13.253
    1HEX    C17 4199   4.128   4.174  13.282
    1HEX    O18 4200   4.105   4.081  13.205
    1HEX    C19 4201   4.077   4.175  13.425
    1HEX    C1A 4202   4.000   4.305  13.454
    1HEX    H1D 4203   4.558   4.916  12.607
    1HEX    H1E 4204   4.429   4.841  12.520
    1HEX    H1F 4205   4.460   4.735  12.802
    1HEX    H1G 4206   4.598   4.719  12.701
    1HEX    H1H 4207   4.328   4.373  12.574
    1HEX    H1I 4208   4.184   4.458  12.535
    1HEX    H1J 4209   4.260   4.517  12.890
    1HEX    H1K 4210   4.106   4.444  12.932
    1HEX    H1M 4211   3.962   4.871  12.830
    1HEX    H1N 4212   4.132   4.838  12.811
    1HEX    H1O 4213   4.085   4.788  13.088
    1HEX    H1P 4214   3.990   4.930  13.056
    1HEX    H1Q 4215   4.216   5.035  12.916
    1HEX    H1R 4216   3.986   4.425  12.655
    1HEX    H1S 4217   3.978   4.317  12.789
    1HEX    H1T 4218   4.022   4.019  12.485
    1HEX    H1U 4219   3.922   4.082  12.355
    1HEX    H1V 4220   3.716   4.052  12.497
    1HEX    H1W 4221   3.815   3.994  12.630
    1HEX    H1X 4222   3.780   3.864  12.326
    1HEX    H1Y 4223   4.259   4.182  12.709
    1HEX    H1Z 4224   4.188   4.195  12.861
    1HEX    H20 4225   4.436   4.427  12.943
    1HEX    H21 4226   4.546   4.298  12.953
    1HEX    H22 4227   4.378   4.067  13.053
    1HEX    H23 4228   4.385   4.097  13.224
    1HEX    H24 4229   4.797   4.006  13.121
    1HEX    H25 4230   4.829   4.003  13.292
    1HEX    H26 4231   4.812   4.265  13.133
    1HEX    H27 4232   4.962   4.178  13.156
    1HEX    H28 4233   4.764   4.318  13.382
    1HEX    H29 4234   4.462   4.472  13.189
    1HEX    H2A 4235   4.582   4.347  13.202
    1HEX    H2B 4236   4.394   4.262  13.587
    1HEX    H2C 4237   4.336   4.427  13.582
    1HEX    H2D 4238   4.582   4.476  13.687
    1HEX    H2E 4239   4.568   4.313  13.744
    1HEX    H2G 4240   4.182   4.259  13.052
    1HEX    H2H 4241   4.230   4.417  13.108
    1HEX    H2I 4242   4.163   4.165  13.491
    1HEX    H2J 4243   4.014   4.087  13.441
    1HEX    H2K 4244   3.913   4.314  13.389
    1HEX    H2M 4245   4.063   4.392  13.433
    1HEX    H2N 4246   3.859   4.213  13.621
    1STR    S00 4247   4.345   4.993  12.691
    1STR    S0E 4248   4.229   4.965  13.030
    1STR    S0M 4249   3.803   3.831  12.454
    1STR    S0X 4250   4.889   4.276  13.361
    1STR    S14 4251   4.415   4.468  13.856
    1STR    S1B 4252   3.950   4.310  13.628
    1HEX    C01 4253   4.638   8.566  16.750
    1HEX    C02 4254   4.576   8.569  16.890
    1HEX    C03 4255   4.424   8.570  16.880
    1HEX    O04 4256   4.362   8.470  16.843
    1HEX    O05 4257   4.371   8.688  16.914
    1HEX    C06 4258   4.230   8.704  16.920
    1HEX    C07 4259   4.180   8.701  17.066
    1HEX    C08 4260   4.229   8.829  17.136
    1HEX    O09 4261   4.163   8.950  17.101
    1HEX    C0A 4262   4.098   9.019  17.196
    1HEX    O0B 4263   4.052   8.972  17.300
    1HEX    C0C 4264   4.091   9.168  17.166
    1HEX    C0D 4265   4.102   9.250  17.296
    1HEX    C0F 4266   4.024   8.700  17.067
    1HEX    O0G 4267   3.977   8.578  17.010
    1HEX    C0H 4268   3.926   8.574  16.886
    1HEX    O0I 4269   3.893   8.672  16.819
    1HEX    C0J 4270   3.916   8.433  16.831
    1HEX    C0K 4271   3.796   8.358  16.889
    1HEX    C0N 4272   4.226   8.570  17.141
    1HEX    O0O 4273   4.362   8.553  17.184
    1HEX    C0P 4274   4.428   8.634  17.283
    1HEX    C0Q 4275   4.393   8.622  17.435
    1HEX    C0R 4276   4.427   8.479   0.044
    1HEX    O0S 4277   4.568   8.454   0.039
    1HEX    C0T 4278   4.640   8.447   0.154
    1HEX    O0U 4279   4.595   8.456   0.268
    1HEX    C0V 4280   4.788   8.425   0.129
    1HEX    C0W 4281   4.871   8.555   0.121
    1HEX    C0Y 4282   4.483   8.725   0.067
    1HEX    O0Z 4283   4.461   8.722   0.207
    1HEX    C10 4284   4.548   8.779   0.289
    1HEX    O11 4285   4.649   8.840   0.255
    1HEX    C12 4286   4.506   8.762   0.434
    1HEX    C13 4287   4.613   8.812   0.532
    1HEX    C15 4288   4.245   8.661   0.027
    1HEX    O16 4289   4.207   8.641   0.163
    1HEX    C17 4290   4.133   8.535   0.198
    1HEX    O18 4291   4.100   8.441   0.125
    1HEX    C19 4292   4.087   8.542   0.343
    1HEX    C1A 4293   4.005   8.670   0.366
    1HEX    H1C 4294   4.845   8.569  16.635
    1HEX    H1D 4295   4.609   8.475  16.697
    1HEX    H1E 4296   4.602   8.651  16.691
    1HEX    H1F 4297   4.608   8.657  16.946
    1HEX    H1G 4298   4.606   8.481  16.947
    1HEX    H1H 4299   4.181   8.628  16.859
    1HEX    H1I 4300   4.204   8.799  16.873
    1HEX    H1J 4301   4.333   8.846  17.110
    1HEX    H1K 4302   4.226   8.815  17.244
    1HEX    H1M 4303   4.000   9.192  17.112
    1HEX    H1N 4304   4.174   9.192  17.100
    1HEX    H1O 4305   4.177   9.208  17.363
    1HEX    H1P 4306   4.007   9.249  17.350
    1HEX    H1Q 4307   4.277   9.398  17.228
    1HEX    H1R 4308   3.984   8.787  17.015
    1HEX    H1S 4309   3.986   8.708  17.169
    1HEX    H1T 4310   4.009   8.381  16.853
    1HEX    H1U 4311   3.909   8.440  16.722
    1HEX    H1V 4312   3.703   8.409  16.866
    1HEX    H1W 4313   3.804   8.353  16.998
    1HEX    H1X 4314   3.778   8.224  16.692
    1HEX    H1Y 4315   4.211   8.488  17.071
    1HEX    H1Z 4316   4.156   8.542  17.219
    1HEX    H20 4317   4.436   8.737  17.253
    1HEX    H21 4318   4.532   8.601  17.274
    1HEX    H22 4319   4.376   8.405  17.422
    1HEX    H23 4320   4.389   8.463   0.145
    1HEX    H24 4321   4.797   8.370   0.035
    1HEX    H25 4322   4.827   8.360   0.207
    1HEX    H26 4323   4.824   8.628   0.055
    1HEX    H27 4324   4.969   8.534   0.080
    1HEX    H28 4325   4.782   8.703   0.285
    1HEX    H29 4326   4.465   8.827   0.032
    1HEX    H2A 4327   4.589   8.705   0.046
    1HEX    H2B 4328   4.486   8.656   0.451
    1HEX    H2C 4329   4.413   8.816   0.448
    1HEX    H2D 4330   4.645   8.913   0.507
    1HEX    H2E 4331   4.702   8.748   0.527
    1HEX    H2F 4332   4.449   8.901   0.680
    1HEX    H2G 4333   4.174   8.609  17.405
    1HEX    H2H 4334   4.229   8.767   0.010
    1HEX    H2I 4335   4.176   8.541   0.407
    1HEX    H2J 4336   4.029   8.454   0.366
    1HEX    H2K 4337   3.919   8.673   0.299
    1HEX    H2M 4338   4.066   8.758   0.343
    1HEX    H2N 4339   3.864   8.577   0.533
    1STR    S00 4340   4.818   8.575  16.766
    1STR    S0E 4341   4.149   9.422  17.258
    1STR    S0M 4342   3.793   8.190  16.821
    1STR    S0X 4343   4.895   8.630   0.285
    1STR    S14 4344   4.545   8.810   0.700
    1STR    S1B 4345   3.950   8.679   0.538
    1HEX    C01 4346   4.639   8.568   3.670
    1HEX    C02 4347   4.578   8.572   3.810
    1HEX    C03 4348   4.426   8.575   3.801
    1HEX    O04 4349   4.363   8.478   3.761
    1HEX    O05 4350   4.375   8.693   3.840
    1HEX    C06 4351   4.234   8.709   3.848
    1HEX    C07 4352   4.185   8.701   3.995
    1HEX    C08 4353   4.228   8.830   4.068
    1HEX    O09 4354   4.159   8.948   4.030
    1HEX    C0A 4355   4.095   9.020   4.123
    1HEX    O0B 4356   4.050   8.975   4.229
    1HEX    C0C 4357   4.089   9.168   4.090
    1HEX    C0D 4358   4.101   9.253   4.217
    1HEX    C0F 4359   4.030   8.694   3.996
    1HEX    O0G 4360   3.986   8.572   3.936
    1HEX    C0H 4361   3.930   8.572   3.814
    1HEX    O0I 4362   3.893   8.671   3.751
    1HEX    C0J 4363   3.919   8.432   3.755
    1HEX    C0K 4364   3.799   8.357   3.811
    1HEX    C0N 4365   4.237   8.571   4.067
    1HEX    O0O 4366   4.376   8.555   4.106
    1HEX    C0P 4367   4.448   8.642   4.196
    1HEX    C0Q 4368   4.437   8.625   4.351
    1HEX    C0R 4369   4.523   8.502   4.396
    1HEX    O0S 4370   4.664   8.510   4.365
    1HEX    C0T 4371   4.758   8.521   4.464
    1HEX    O0U 4372   4.734   8.544   4.582
    1HEX    C0V 4373   4.903   8.493   4.418
    1HEX    C0W 4374   5.008   8.601   4.463
    1HEX    C0Y 4375   4.501   8.750   4.416
    1HEX    O0Z 4376   4.478   8.741   4.556
    1HEX    C10 4377   4.555   8.807   4.641
    1HEX    O11 4378   4.647   8.883   4.613
    1HEX    C12 4379   4.513   8.779   4.785
    1HEX    C13 4380   4.619   8.820   4.887
    1HEX    C15 4381   4.289   8.617   4.403
    1HEX    O16 4382   4.278   8.524   4.511
    1HEX    C17 4383   4.215   8.404   4.497
    1HEX    O18 4384   4.123   8.381   4.418
    1HEX    C19 4385   4.277   8.299   4.591
    1HEX    C1A 4386   4.237   8.150   4.594
    1HEX    H1C 4387   4.846   8.569   3.553
    1HEX    H1D 4388   4.608   8.477   3.618
    1HEX    H1E 4389   4.604   8.653   3.610
    1HEX    H1F 4390   4.612   8.660   3.865
    1HEX    H1G 4391   4.607   8.485   3.868
    1HEX    H1H 4392   4.183   8.635   3.785
    1HEX    H1I 4393   4.206   8.805   3.805
    1HEX    H1J 4394   4.330   8.853   4.040
    1HEX    H1K 4395   4.225   8.815   4.176
    1HEX    H1M 4396   3.997   9.191   4.035
    1HEX    H1N 4397   4.172   9.190   4.023
    1HEX    H1O 4398   4.175   9.211   4.286
    1HEX    H1P 4399   4.006   9.254   4.271
    1HEX    H1Q 4400   4.277   9.398   4.147
    1HEX    H1R 4401   3.986   8.781   3.948
    1HEX    H1S 4402   3.992   8.697   4.099
    1HEX    H1T 4403   4.012   8.379   3.776
    1HEX    H1U 4404   3.912   8.442   3.647
    1HEX    H1V 4405   3.706   8.410   3.789
    1HEX    H1W 4406   3.806   8.349   3.920
    1HEX    H1X 4407   3.778   8.228   3.612
    1HEX    H1Y 4408   4.223   8.489   3.995
    1HEX    H1Z 4409   4.169   8.539   4.144
    1HEX    H20 4410   4.442   8.746   4.169
    1HEX    H21 4411   4.552   8.620   4.171
    1HEX    H22 4412   4.483   8.412   4.349
    1HEX    H23 4413   4.511   8.486   4.503
    1HEX    H24 4414   4.902   8.478   4.310
    1HEX    H25 4415   4.930   8.397   4.462
    1HEX    H26 4416   4.960   8.698   4.473
    1HEX    H27 4417   5.043   8.575   4.563
    1HEX    H29 4418   4.456   8.843   4.380
    1HEX    H2A 4419   4.607   8.756   4.395
    1HEX    H2B 4420   4.492   8.672   4.793
    1HEX    H2C 4421   4.419   8.831   4.801
    1HEX    H2D 4422   4.652   8.922   4.870
    1HEX    H2E 4423   4.707   8.755   4.878
    1HEX    H2F 4424   4.453   8.899   5.038
    1HEX    H2G 4425   4.217   8.592   4.328
    1HEX    H2H 4426   4.255   8.715   4.438
    1HEX    H2I 4427   4.193   8.345   4.643
    1HEX    H2J 4428   4.327   8.299   4.493
    1HEX    H2K 4429   4.149   8.130   4.532
    1HEX    H2M 4430   4.210   8.123   4.697
    1STR    S00 4431   4.820   8.574   3.684
    1STR    S0E 4432   4.149   9.423   4.176
    1STR    S0M 4433   3.794   8.191   3.739
    1STR    S0X 4434   5.159   8.623   4.357
    1STR    S14 4435   4.547   8.806   5.054
    1STR    S1B 4436   4.376   8.039   4.546
    1HEX    C01 4437   4.638   8.567   8.030
    1HEX    C02 4438   4.576   8.569   8.170
    1HEX    C03 4439   4.424   8.570   8.160
    1HEX    O04 4440   4.362   8.470   8.123
    1HEX    O05 4441   4.371   8.688   8.194
    1HEX    C06 4442   4.230   8.704   8.200
    1HEX    C07 4443   4.180   8.701   8.346
    1HEX    C08 4444   4.229   8.829   8.416
    1HEX    O09 4445   4.163   8.950   8.381
    1HEX    C0A 4446   4.098   9.019   8.476
    1HEX    O0B 4447   4.052   8.972   8.580
    1HEX    C0C 4448   4.091   9.168   8.446
    1HEX    C0D 4449   4.102   9.250   8.576
    1HEX    C0F 4450   4.024   8.700   8.347
    1HEX    O0G 4451   3.977   8.578   8.290
    1HEX    C0H 4452   3.926   8.574   8.166
    1HEX    O0I 4453   3.893   8.672   8.099
    1HEX    C0J 4454   3.916   8.433   8.111
    1HEX    C0K 4455   3.796   8.358   8.169
    1HEX    C0N 4456   4.226   8.570   8.421
    1HEX    O0O 4457   4.362   8.553   8.464
    1HEX    C0P 4458   4.428   8.634   8.563
    1HEX    C0Q 4459   4.393   8.622   8.715
    1HEX    C0R 4460   4.427   8.479   8.764
    1HEX    O0S 4461   4.568   8.454   8.759
    1HEX    C0T 4462   4.640   8.447   8.874
    1HEX    O0U 4463   4.595   8.456   8.988
    1HEX    C0V 4464   4.788   8.425   8.849
    1HEX    C0W 4465   4.871   8.555   8.841
    1HEX    C0Y 4466   4.483   8.725   8.787
    1HEX    O0Z 4467   4.461   8.722   8.927
    1HEX    C10 4468   4.548   8.779   9.009
    1HEX    O11 4469   4.649   8.839   8.975
    1HEX    C12 4470   4.506   8.762   9.154
    1HEX    C13 4471   4.613   8.812   9.252
    1HEX    C15 4472   4.245   8.661   8.747
    1HEX    O16 4473   4.207   8.641   8.883
    1HEX    C17 4474   4.133   8.535   8.918
    1HEX    O18 4475   4.100   8.441   8.845
    1HEX    C19 4476   4.087   8.543   9.063
    1HEX    C1A 4477   4.005   8.670   9.086
    1HEX    H1C 4478   4.845   8.570   7.915
    1HEX    H1D 4479   4.609   8.476   7.977
    1HEX    H1E 4480   4.602   8.651   7.971
    1HEX    H1F 4481   4.608   8.657   8.226
    1HEX    H1G 4482   4.606   8.481   8.227
    1HEX    H1H 4483   4.181   8.628   8.139
    1HEX    H1I 4484   4.204   8.799   8.153
    1HEX    H1J 4485   4.333   8.846   8.390
    1HEX    H1K 4486   4.226   8.815   8.524
    1HEX    H1M 4487   4.000   9.192   8.392
    1HEX    H1N 4488   4.174   9.192   8.380
    1HEX    H1O 4489   4.177   9.208   8.643
    1HEX    H1P 4490   4.007   9.249   8.630
    1HEX    H1Q 4491   4.277   9.398   8.508
    1HEX    H1R 4492   3.984   8.787   8.295
    1HEX    H1S 4493   3.986   8.708   8.449
    1HEX    H1T 4494   4.009   8.381   8.133
    1HEX    H1U 4495   3.909   8.440   8.002
    1HEX    H1V 4496   3.703   8.409   8.146
    1HEX    H1W 4497   3.804   8.353   8.278
    1HEX    H1X 4498   3.778   8.224   7.972
    1HEX    H1Y 4499   4.211   8.488   8.351
    1HEX    H1Z 4500   4.156   8.542   8.499
    1HEX    H20 4501   4.436   8.737   8.533
    1HEX    H21 4502   4.532   8.601   8.554
    1HEX    H22 4503   4.376   8.405   8.702
    1HEX    H23 4504   4.389   8.463   8.865
    1HEX    H24 4505   4.797   8.370   8.755
    1HEX    H25 4506   4.827   8.360   8.927
    1HEX    H26 4507   4.824   8.628   8.775
    1HEX    H27 4508   4.969   8.534   8.800
    1HEX    H28 4509   4.782   8.703   9.005
    1HEX    H29 4510   4.465   8.827   8.752
    1HEX    H2A 4511   4.589   8.705   8.766
    1HEX    H2B 4512   4.486   8.656   9.171
    1HEX    H2C 4513   4.413   8.816   9.168
    1HEX    H2D 4514   4.645   8.913   9.227
    1HEX    H2E 4515   4.702   8.748   9.247
    1HEX    H2F 4516   4.449   8.901   9.400
    1HEX    H2G 4517   4.174   8.609   8.685
    1HEX    H2H 4518   4.229   8.767   8.730
    1HEX    H2I 4519   4.175   8.541   9.127
    1HEX    H2J 4520   4.029   8.454   9.086
    1HEX    H2K 4521   3.919   8.673   9.019
    1HEX    H2M 4522   4.066   8.758   9.063
    1HEX    H2N 4523   3.863   8.577   9.253
    1STR    S00 4524   4.818   8.575   8.046
    1STR    S0E 4525   4.149   9.422   8.538
    1STR    S0M 4526   3.793   8.190   8.101
    1STR    S0X 4527   4.895   8.630   9.005
    1STR    S14 4528   4.545   8.810   9.420
    1STR    S1B 4529   3.949   8.679   9.258
    1HEX    C01 4530   4.633   8.564  12.393
    1HEX    C02 4531   4.572   8.564  12.534
    1HEX    C03 4532   4.420   8.559  12.526
    1HEX    O04 4533   4.362   8.457  12.490
    1HEX    O05 4534   4.363   8.676  12.557
    1HEX    C06 4535   4.222   8.689  12.559
    1HEX    C07 4536   4.168   8.717  12.702
    1HEX    C08 4537   4.224   8.853  12.747
    1HEX    O09 4538   4.154   8.970  12.707
    1HEX    C0A 4539   4.091   9.043  12.802
    1HEX    O0B 4540   4.050   8.999  12.909
    1HEX    C0C 4541   4.085   9.191  12.769
    1HEX    C0D 4542   4.102   9.278  12.894
    1HEX    C0F 4543   4.013   8.718  12.695
    1HEX    O0G 4544   3.966   8.591  12.648
    1HEX    C0H 4545   3.916   8.578  12.524
    1HEX    O0I 4546   3.880   8.670  12.451
    1HEX    C0J 4547   3.913   8.433  12.476
    1HEX    C0K 4548   3.794   8.356  12.532
    1HEX    C0N 4549   4.206   8.605  12.805
    1HEX    O0O 4550   4.344   8.584  12.837
    1HEX    C0P 4551   4.416   8.667  12.930
    1HEX    C0Q 4552   4.386   8.658  13.084
    1HEX    C0R 4553   4.373   8.508  13.126
    1HEX    O0S 4554   4.479   8.425  13.078
    1HEX    C0T 4555   4.539   8.333  13.158
    1HEX    O0U 4556   4.531   8.329  13.281
    1HEX    C0V 4557   4.626   8.233  13.081
    1HEX    C0W 4558   4.650   8.094  13.146
    1HEX    C0Y 4559   4.511   8.717  13.154
    1HEX    O0Z 4560   4.496   8.703  13.294
    1HEX    C10 4561   4.568   8.779  13.376
    1HEX    O11 4562   4.656   8.858  13.342
    1HEX    C12 4563   4.524   8.761  13.520
    1HEX    C13 4564   4.625   8.819  13.619
    1HEX    C15 4565   4.259   8.743  13.127
    1HEX    O16 4566   4.278   8.849  13.225
    1HEX    C17 4567   4.172   8.930  13.257
    1HEX    O18 4568   4.057   8.913  13.218
    1HEX    C19 4569   4.204   9.050  13.350
    1HEX    C1A 4570   4.187   9.189  13.278
    1HEX    H1C 4571   4.840   8.571  12.277
    1HEX    H1D 4572   4.606   8.473  12.340
    1HEX    H1E 4573   4.594   8.648  12.335
    1HEX    H1F 4574   4.601   8.653  12.589
    1HEX    H1G 4575   4.605   8.478  12.591
    1HEX    H1H 4576   4.175   8.601  12.514
    1HEX    H1I 4577   4.194   8.772  12.493
    1HEX    H1J 4578   4.327   8.865  12.712
    1HEX    H1K 4579   4.233   8.855  12.854
    1HEX    H1M 4580   3.991   9.213  12.718
    1HEX    H1N 4581   4.166   9.211  12.699
    1HEX    H1O 4582   4.177   9.236  12.961
    1HEX    H1P 4583   4.009   9.283  12.952
    1HEX    H1Q 4584   4.285   9.419  12.838
    1HEX    H1R 4585   3.977   8.800  12.632
    1HEX    H1S 4586   3.970   8.737  12.794
    1HEX    H1T 4587   4.007   8.386  12.504
    1HEX    H1U 4588   3.910   8.434  12.367
    1HEX    H1V 4589   3.700   8.405  12.506
    1HEX    H1W 4590   3.799   8.353  12.641
    1HEX    H1X 4591   3.780   8.219  12.338
    1HEX    H1Y 4592   4.174   8.510  12.763
    1HEX    H1Z 4593   4.149   8.615  12.898
    1HEX    H20 4594   4.424   8.770  12.897
    1HEX    H21 4595   4.518   8.630  12.916
    1HEX    H22 4596   4.281   8.466  13.085
    1HEX    H23 4597   4.363   8.501  13.234
    1HEX    H24 4598   4.723   8.282  13.072
    1HEX    H25 4599   4.589   8.222  12.979
    1HEX    H26 4600   4.683   8.111  13.249
    1HEX    H27 4601   4.732   8.043  13.096
    1HEX    H29 4602   4.523   8.822  13.128
    1HEX    H2A 4603   4.603   8.666  13.124
    1HEX    H2B 4604   4.509   8.655  13.538
    1HEX    H2C 4605   4.427   8.809  13.529
    1HEX    H2D 4606   4.651   8.922  13.592
    1HEX    H2E 4607   4.717   8.761  13.617
    1HEX    H2F 4608   4.452   8.902  13.761
    1HEX    H2G 4609   4.178   8.678  13.159
    1HEX    H2H 4610   4.218   8.795  13.042
    1HEX    H2I 4611   4.304   9.037  13.391
    1HEX    H2J 4612   4.135   9.044  13.434
    1HEX    H2K 4613   4.082   9.199  13.249
    1HEX    H2M 4614   4.243   9.185  13.185
    1STR    S00 4615   4.813   8.577  12.408
    1STR    S0E 4616   4.154   9.445  12.844
    1STR    S0M 4617   3.796   8.187  12.467
    1STR    S0X 4618   4.511   7.972  13.158
    1STR    S14 4619   4.552   8.816  13.785
    1STR    S1B 4620   4.238   9.344  13.368
    1HEX    C01 4621   4.461  13.541  17.099
    1HEX    C02 4622   4.542  13.416  17.045
    1HEX    C03 4623   4.470  13.282  17.013
    1HEX    O04 4624   4.539  13.183  16.989
    1HEX    O05 4625   4.335  13.281  17.016
    1HEX    C06 4626   4.261  13.163  16.978
    1HEX    C07 4627   4.175  13.098  17.092
    1HEX    C08 4628   4.156  13.199  17.206
    1HEX    O09 4629   4.106  13.323  17.159
    1HEX    C0A 4630   4.066  13.412  17.249
    1HEX    O0B 4631   4.032  13.387  17.365
    1HEX    C0C 4632   4.075  13.555  17.197
    1HEX    C0D 4633   4.095  13.654  17.313
    1HEX    C0F 4634   4.029  13.070  17.041
    1HEX    O0G 4635   4.022  12.951  16.964
    1HEX    C0H 4636   3.937  12.940  16.862
    1HEX    O0I 4637   3.871  13.031  16.813
    1HEX    C0J 4638   3.927  12.797  16.810
    1HEX    C0K 4639   3.808  12.725  16.876
    1HEX    C0N 4640   4.230  12.959  17.140
    1HEX    O0O 4641   4.366  12.939  17.180
    1HEX    C0P 4642   4.431  13.017  17.280
    1HEX    C0Q 4643   4.399  12.993  17.431
    1HEX    C0R 4644   4.433  12.847   0.032
    1HEX    O0S 4645   4.574  12.823   0.031
    1HEX    C0T 4646   4.642  12.810   0.147
    1HEX    O0U 4647   4.593  12.814   0.260
    1HEX    C0V 4648   4.791  12.786   0.126
    1HEX    C0W 4649   4.874  12.916   0.121
    1HEX    C0Y 4650   4.489  13.093   0.068
    1HEX    O0Z 4651   4.466  13.084   0.207
    1HEX    C10 4652   4.551  13.141   0.291
    1HEX    O11 4653   4.653  13.202   0.259
    1HEX    C12 4654   4.508  13.122   0.436
    1HEX    C13 4655   4.614  13.172   0.535
    1HEX    C15 4656   4.251  13.026   0.027
    1HEX    O16 4657   4.214  13.000   0.162
    1HEX    C17 4658   4.136  12.896   0.194
    1HEX    O18 4659   4.099  12.807   0.118
    1HEX    C19 4660   4.090  12.902   0.339
    1HEX    C1A 4661   4.008  13.030   0.363
    1HEX    H1D 4662   4.551  13.573  17.151
    1HEX    H1E 4663   4.418  13.553  16.999
    1HEX    H1F 4664   4.619  13.387  17.117
    1HEX    H1G 4665   4.597  13.442  16.955
    1HEX    H1H 4666   4.323  13.086  16.930
    1HEX    H1I 4667   4.194  13.195  16.897
    1HEX    H1J 4668   4.250  13.223  17.254
    1HEX    H1K 4669   4.090  13.159  17.283
    1HEX    H1M 4670   3.985  13.578  17.140
    1HEX    H1N 4671   4.159  13.561  17.128
    1HEX    H1O 4672   4.183  13.626  17.372
    1HEX    H1P 4673   4.009  13.650  17.381
    1HEX    H1Q 4674   4.243  13.806  17.212
    1HEX    H1R 4675   3.988  13.157  16.989
    1HEX    H1S 4676   3.962  13.055  17.126
    1HEX    H1T 4677   4.020  12.745  16.831
    1HEX    H1U 4678   3.915  12.801  16.702
    1HEX    H1V 4679   3.715  12.776  16.853
    1HEX    H1W 4680   3.819  12.724  16.984
    1HEX    H1X 4681   3.777  12.582  16.687
    1HEX    H1Y 4682   4.227  12.891  17.055
    1HEX    H1Z 4683   4.162  12.911  17.209
    1HEX    H20 4684   4.430  13.122  17.252
    1HEX    H21 4685   4.536  12.989  17.267
    1HEX    H22 4686   4.385  12.777  17.404
    1HEX    H23 4687   4.392  12.824   0.130
    1HEX    H24 4688   4.802  12.731   0.033
    1HEX    H25 4689   4.827  12.721   0.206
    1HEX    H26 4690   4.827  12.989   0.054
    1HEX    H27 4691   4.972  12.895   0.080
    1HEX    H28 4692   4.783  13.063   0.284
    1HEX    H29 4693   4.470  13.196   0.037
    1HEX    H2A 4694   4.594  13.073   0.047
    1HEX    H2B 4695   4.488  13.016   0.451
    1HEX    H2C 4696   4.414  13.175   0.448
    1HEX    H2D 4697   4.645  13.274   0.510
    1HEX    H2E 4698   4.703  13.109   0.530
    1HEX    H2F 4699   4.447  13.260   0.681
    1HEX    H2G 4700   4.182  12.974  17.402
    1HEX    H2H 4701   4.233  13.132   0.014
    1HEX    H2I 4702   4.178  12.900   0.403
    1HEX    H2J 4703   4.032  12.813   0.361
    1HEX    H2K 4704   3.922  13.033   0.296
    1HEX    H2M 4705   4.069  13.118   0.341
    1HEX    H2N 4706   3.866  12.936   0.529
    1STR    S00 4707   4.490  13.722  17.058
    1STR    S0E 4708   4.115  13.822  17.248
    1STR    S0M 4709   3.802  12.554  16.815
    1STR    S0X 4710   4.896  12.990   0.285
    1STR    S14 4711   4.543  13.169   0.702
    1STR    S1B 4712   3.953  13.037   0.536
    1HEX    C01 4713   4.638  12.927   3.670
    1HEX    C02 4714   4.576  12.929   3.810
    1HEX    C03 4715   4.424  12.930   3.800
    1HEX    O04 4716   4.362  12.830   3.763
    1HEX    O05 4717   4.371  13.048   3.834
    1HEX    C06 4718   4.230  13.064   3.840
    1HEX    C07 4719   4.180  13.061   3.986
    1HEX    C08 4720   4.229  13.189   4.056
    1HEX    O09 4721   4.163  13.310   4.021
    1HEX    C0A 4722   4.098  13.379   4.116
    1HEX    O0B 4723   4.052  13.332   4.220
    1HEX    C0C 4724   4.091  13.528   4.086
    1HEX    C0D 4725   4.102  13.610   4.216
    1HEX    C0F 4726   4.024  13.060   3.987
    1HEX    O0G 4727   3.977  12.938   3.930
    1HEX    C0H 4728   3.926  12.935   3.806
    1HEX    O0I 4729   3.893  13.032   3.739
    1HEX    C0J 4730   3.916  12.793   3.751
    1HEX    C0K 4731   3.796  12.718   3.809
    1HEX    C0N 4732   4.225  12.930   4.061
    1HEX    O0O 4733   4.362  12.913   4.104
    1HEX    C0P 4734   4.428  12.994   4.203
    1HEX    C0Q 4735   4.393  12.982   4.355
    1HEX    C0R 4736   4.427  12.839   4.404
    1HEX    O0S 4737   4.568  12.815   4.399
    1HEX    C0T 4738   4.640  12.808   4.514
    1HEX    O0U 4739   4.595  12.817   4.628
    1HEX    C0V 4740   4.788  12.785   4.489
    1HEX    C0W 4741   4.871  12.915   4.481
    1HEX    C0Y 4742   4.483  13.085   4.427
    1HEX    O0Z 4743   4.461  13.082   4.567
    1HEX    C10 4744   4.548  13.139   4.649
    1HEX    O11 4745   4.649  13.200   4.615
    1HEX    C12 4746   4.506  13.122   4.794
    1HEX    C13 4747   4.613  13.172   4.892
    1HEX    C15 4748   4.245  13.021   4.387
    1HEX    O16 4749   4.207  13.001   4.523
    1HEX    C17 4750   4.133  12.895   4.558
    1HEX    O18 4751   4.100  12.802   4.485
    1HEX    C19 4752   4.087  12.903   4.703
    1HEX    C1A 4753   4.006  13.031   4.726
    1HEX    H1C 4754   4.845  12.930   3.555
    1HEX    H1D 4755   4.609  12.836   3.617
    1HEX    H1E 4756   4.602  13.011   3.611
    1HEX    H1F 4757   4.608  13.017   3.866
    1HEX    H1G 4758   4.606  12.841   3.867
    1HEX    H1H 4759   4.181  12.988   3.779
    1HEX    H1I 4760   4.204  13.159   3.793
    1HEX    H1J 4761   4.333  13.206   4.030
    1HEX    H1K 4762   4.226  13.175   4.164
    1HEX    H1M 4763   4.000  13.552   4.032
    1HEX    H1N 4764   4.174  13.552   4.020
    1HEX    H1O 4765   4.177  13.568   4.283
    1HEX    H1P 4766   4.007  13.609   4.270
    1HEX    H1Q 4767   4.277  13.758   4.148
    1HEX    H1R 4768   3.984  13.147   3.935
    1HEX    H1S 4769   3.986  13.068   4.089
    1HEX    H1T 4770   4.009  12.741   3.773
    1HEX    H1U 4771   3.909  12.800   3.642
    1HEX    H1V 4772   3.703  12.769   3.786
    1HEX    H1W 4773   3.804  12.713   3.918
    1HEX    H1X 4774   3.778  12.584   3.613
    1HEX    H1Y 4775   4.211  12.848   3.991
    1HEX    H1Z 4776   4.155  12.902   4.139
    1HEX    H20 4777   4.436  13.097   4.172
    1HEX    H21 4778   4.532  12.961   4.194
    1HEX    H22 4779   4.376  12.765   4.342
    1HEX    H23 4780   4.389  12.823   4.505
    1HEX    H24 4781   4.797  12.730   4.395
    1HEX    H25 4782   4.827  12.720   4.567
    1HEX    H26 4783   4.824  12.988   4.415
    1HEX    H27 4784   4.969  12.894   4.440
    1HEX    H28 4785   4.782  13.063   4.645
    1HEX    H29 4786   4.465  13.187   4.392
    1HEX    H2A 4787   4.589  13.066   4.406
    1HEX    H2B 4788   4.486  13.017   4.811
    1HEX    H2C 4789   4.413  13.176   4.808
    1HEX    H2D 4790   4.645  13.274   4.867
    1HEX    H2E 4791   4.702  13.109   4.887
    1HEX    H2F 4792   4.449  13.261   5.040
    1HEX    H2G 4793   4.174  12.969   4.325
    1HEX    H2H 4794   4.229  13.127   4.370
    1HEX    H2I 4795   4.176  12.901   4.767
    1HEX    H2J 4796   4.029  12.814   4.726
    1HEX    H2K 4797   3.920  13.034   4.659
    1HEX    H2M 4798   4.066  13.119   4.704
    1HEX    H2N 4799   3.863  12.937   4.892
    1STR    S00 4800   4.818  12.935   3.686
    1STR    S0E 4801   4.149  13.782   4.178
    1STR    S0M 4802   3.793  12.550   3.741
    1STR    S0X 4803   4.895  12.990   4.645
    1STR    S14 4804   4.545  13.170   5.060
    1STR    S1B 4805   3.950  13.039   4.898
    1HEX    C01 4806   4.638  12.927   8.030
    1HEX    C02 4807   4.576  12.929   8.170
    1HEX    C03 4808   4.424  12.930   8.160
    1HEX    O04 4809   4.362  12.830   8.123
    1HEX    O05 4810   4.371  13.048   8.194
    1HEX    C06 4811   4.230  13.064   8.200
    1HEX    C07 4812   4.180  13.061   8.346
    1HEX    C08 4813   4.229  13.189   8.416
    1HEX    O09 4814   4.164  13.310   8.381
    1HEX    C0A 4815   4.098  13.379   8.475
    1HEX    O0B 4816   4.052  13.332   8.580
    1HEX    C0C 4817   4.091  13.528   8.446
    1HEX    C0D 4818   4.102  13.610   8.576
    1HEX    C0F 4819   4.024  13.060   8.347
    1HEX    O0G 4820   3.977  12.938   8.290
    1HEX    C0H 4821   3.926  12.935   8.166
    1HEX    O0I 4822   3.893  13.032   8.099
    1HEX    C0J 4823   3.916  12.793   8.111
    1HEX    C0K 4824   3.796  12.718   8.169
    1HEX    C0N 4825   4.225  12.930   8.421
    1HEX    O0O 4826   4.362  12.913   8.464
    1HEX    C0P 4827   4.428  12.994   8.563
    1HEX    C0Q 4828   4.393  12.982   8.715
    1HEX    C0R 4829   4.427  12.839   8.764
    1HEX    O0S 4830   4.568  12.815   8.759
    1HEX    C0T 4831   4.640  12.808   8.874
    1HEX    O0U 4832   4.595  12.817   8.988
    1HEX    C0V 4833   4.788  12.785   8.849
    1HEX    C0W 4834   4.871  12.915   8.841
    1HEX    C0Y 4835   4.483  13.085   8.787
    1HEX    O0Z 4836   4.461  13.082   8.927
    1HEX    C10 4837   4.548  13.139   9.009
    1HEX    O11 4838   4.649  13.200   8.975
    1HEX    C12 4839   4.506  13.122   9.154
    1HEX    C13 4840   4.613  13.172   9.252
    1HEX    C15 4841   4.245  13.021   8.747
    1HEX    O16 4842   4.207  13.001   8.883
    1HEX    C17 4843   4.133  12.895   8.918
    1HEX    O18 4844   4.100  12.802   8.845
    1HEX    C19 4845   4.087  12.903   9.063
    1HEX    C1A 4846   4.006  13.031   9.086
    1HEX    H1C 4847   4.845  12.930   7.915
    1HEX    H1D 4848   4.609  12.836   7.977
    1HEX    H1E 4849   4.602  13.011   7.971
    1HEX    H1F 4850   4.608  13.017   8.226
    1HEX    H1G 4851   4.606  12.841   8.227
    1HEX    H1H 4852   4.181  12.988   8.139
    1HEX    H1I 4853   4.204  13.159   8.153
    1HEX    H1J 4854   4.333  13.206   8.390
    1HEX    H1K 4855   4.226  13.175   8.524
    1HEX    H1M 4856   4.000  13.552   8.392
    1HEX    H1N 4857   4.174  13.552   8.380
    1HEX    H1O 4858   4.177  13.568   8.643
    1HEX    H1P 4859   4.007  13.609   8.630
    1HEX    H1Q 4860   4.277  13.758   8.508
    1HEX    H1R 4861   3.984  13.147   8.295
    1HEX    H1S 4862   3.986  13.068   8.449
    1HEX    H1T 4863   4.009  12.741   8.133
    1HEX    H1U 4864   3.909  12.800   8.002
    1HEX    H1V 4865   3.703  12.769   8.146
    1HEX    H1W 4866   3.804  12.713   8.278
    1HEX    H1X 4867   3.778  12.584   7.972
    1HEX    H1Y 4868   4.211  12.848   8.351
    1HEX    H1Z 4869   4.155  12.902   8.499
    1HEX    H20 4870   4.436  13.097   8.532
    1HEX    H21 4871   4.532  12.961   8.554
    1HEX    H22 4872   4.376  12.765   8.702
    1HEX    H23 4873   4.389  12.823   8.865
    1HEX    H24 4874   4.797  12.730   8.755
    1HEX    H25 4875   4.827  12.720   8.927
    1HEX    H26 4876   4.824  12.988   8.775
    1HEX    H27 4877   4.969  12.894   8.800
    1HEX    H28 4878   4.782  13.063   9.005
    1HEX    H29 4879   4.465  13.187   8.752
    1HEX    H2A 4880   4.589  13.066   8.766
    1HEX    H2B 4881   4.486  13.017   9.171
    1HEX    H2C 4882   4.413  13.176   9.168
    1HEX    H2D 4883   4.645  13.274   9.227
    1HEX    H2E 4884   4.702  13.109   9.247
    1HEX    H2F 4885   4.449  13.261   9.400
    1HEX    H2G 4886   4.174  12.969   8.685
    1HEX    H2H 4887   4.229  13.127   8.730
    1HEX    H2I 4888   4.176  12.901   9.127
    1HEX    H2J 4889   4.029  12.814   9.086
    1HEX    H2K 4890   3.920  13.034   9.019
    1HEX    H2M 4891   4.066  13.119   9.064
    1HEX    H2N 4892   3.863  12.937   9.252
    1STR    S00 4893   4.818  12.935   8.046
    1STR    S0E 4894   4.149  13.782   8.538
    1STR    S0M 4895   3.793  12.550   8.101
    1STR    S0X 4896   4.895  12.990   9.005
    1STR    S14 4897   4.545  13.170   9.420
    1STR    S1B 4898   3.950  13.039   9.258
    1HEX    C01 4899   4.625  12.931  12.384
    1HEX    C02 4900   4.554  12.939  12.520
    1HEX    C03 4901   4.403  12.939  12.504
    1HEX    O04 4902   4.344  12.838  12.465
    1HEX    O05 4903   4.347  13.056  12.538
    1HEX    C06 4904   4.206  13.066  12.560
    1HEX    C07 4905   4.178  13.069  12.713
    1HEX    C08 4906   4.240  13.196  12.774
    1HEX    O09 4907   4.179  13.320  12.740
    1HEX    C0A 4908   4.110  13.387  12.833
    1HEX    O0B 4909   4.064  13.339  12.937
    1HEX    C0C 4910   4.098  13.536  12.804
    1HEX    C0D 4911   4.105  13.617  12.935
    1HEX    C0F 4912   4.025  13.076  12.739
    1HEX    O0G 4913   3.951  12.955  12.722
    1HEX    C0H 4914   3.849  12.952  12.635
    1HEX    O0I 4915   3.840  13.022  12.534
    1HEX    C0J 4916   3.736  12.858  12.675
    1HEX    C0K 4917   3.634  12.934  12.766
    1HEX    C0N 4918   4.238  12.941  12.781
    1HEX    O0O 4919   4.377  12.940  12.822
    1HEX    C0P 4920   4.434  13.008  12.938
    1HEX    C0Q 4921   4.403  12.950  13.080
    1HEX    C0R 4922   4.456  12.805  13.082
    1HEX    O0S 4923   4.598  12.809  13.059
    1HEX    C0T 4924   4.686  12.743  13.137
    1HEX    O0U 4925   4.657  12.665  13.228
    1HEX    C0V 4926   4.831  12.769  13.100
    1HEX    C0W 4927   4.883  12.911  13.130
    1HEX    C0Y 4928   4.477  13.028  13.194
    1HEX    O0Z 4929   4.435  12.974  13.319
    1HEX    C10 4930   4.506  12.885  13.390
    1HEX    O11 4931   4.628  12.890  13.406
    1HEX    C12 4932   4.415  12.786  13.465
    1HEX    C13 4933   4.438  12.630  13.459
    1HEX    C15 4934   4.249  12.964  13.105
    1HEX    O16 4935   4.198  12.942  13.237
    1HEX    C17 4936   4.101  12.852  13.259
    1HEX    O18 4937   4.062  12.766  13.179
    1HEX    C19 4938   4.036  12.866  13.396
    1HEX    C1A 4939   3.995  13.011  13.425
    1HEX    H1C 4940   4.839  12.929  12.282
    1HEX    H1D 4941   4.598  12.838  12.333
    1HEX    H1E 4942   4.593  13.014  12.320
    1HEX    H1F 4943   4.584  13.029  12.574
    1HEX    H1G 4944   4.581  12.854  12.582
    1HEX    H1H 4945   4.151  12.985  12.512
    1HEX    H1I 4946   4.171  13.157  12.513
    1HEX    H1J 4947   4.345  13.203  12.745
    1HEX    H1K 4948   4.238  13.186  12.882
    1HEX    H1M 4949   4.006  13.556  12.749
    1HEX    H1N 4950   4.181  13.562  12.739
    1HEX    H1O 4951   4.178  13.574  13.004
    1HEX    H1P 4952   4.009  13.614  12.986
    1HEX    H1Q 4953   4.279  13.766  12.870
    1HEX    H1R 4954   3.982  13.158  12.682
    1HEX    H1S 4955   4.008  13.104  12.843
    1HEX    H1T 4956   3.778  12.769  12.723
    1HEX    H1U 4957   3.693  12.823  12.581
    1HEX    H1V 4958   3.557  12.894  12.701
    1HEX    H1W 4959   3.682  12.900  12.858
    1HEX    H1Y 4960   4.233  12.862  12.706
    1HEX    H1Z 4961   4.167  12.900  12.851
    1HEX    H20 4962   4.422  13.115  12.937
    1HEX    H21 4963   4.541  12.998  12.922
    1HEX    H22 4964   4.408  12.744  13.005
    1HEX    H23 4965   4.431  12.758  13.176
    1HEX    H24 4966   4.839  12.749  12.993
    1HEX    H25 4967   4.893  12.695  13.150
    1HEX    H26 4968   4.813  12.987  13.097
    1HEX    H27 4969   4.976  12.927  13.075
    1HEX    H28 4970   4.795  12.924  13.353
    1HEX    H29 4971   4.452  13.134  13.191
    1HEX    H2A 4972   4.586  13.023  13.184
    1HEX    H2B 4973   4.313  12.810  13.437
    1HEX    H2C 4974   4.425  12.819  13.569
    1HEX    H2D 4975   4.382  12.588  13.543
    1HEX    H2E 4976   4.543  12.611  13.480
    1HEX    H2G 4977   4.198  12.895  13.041
    1HEX    H2H 4978   4.216  13.064  13.078
    1HEX    H2I 4979   4.104  12.830  13.471
    1HEX    H2J 4980   3.949  12.800  13.399
    1HEX    H2K 4981   3.913  13.042  13.359
    1HEX    H2M 4982   4.078  13.080  13.406
    1HEX    H2N 4983   3.843  12.941  13.594
    1STR    S00 4984   4.804  12.939  12.411
    1STR    S0E 4985   4.151  13.789  12.900
    1STR    S0M 4986   3.488  12.871  12.858
    1STR    S0X 4987   4.921  12.936  13.306
    1STR    S14 4988   4.389  12.525  13.311
    1STR    S1B 4989   3.947  13.025  13.599
    1HEX    C01 4990   9.152  17.226  16.818
    1HEX    C02 4991   9.117  17.148  16.946
    1HEX    C03 4992   8.967  17.127  16.947
    1HEX    O04 4993   8.917  17.015  16.952
    1HEX    O05 4994   8.904  17.243  16.928
    1HEX    C06 4995   8.767  17.245  16.897
    1HEX    C07 4996   8.683  17.283  17.019
    1HEX    C08 4997   8.724  17.429  17.067
    1HEX    O09 4998   8.670   0.117  17.035
    1HEX    C0A 4999   8.711   0.226  17.110
    1HEX    O0B 5000   8.793   0.220  17.202
    1HEX    C0C 5001   8.634   0.356  17.085
    1HEX    C0D 5002   8.579   0.421  17.215
    1HEX    C0F 5003   8.539  17.268  16.968
    1HEX    O0G 5004   8.490  17.143  16.922
    1HEX    C0H 5005   8.362  17.141  16.876
    1HEX    O0I 5006   8.284  17.236  16.880
    1HEX    C0J 5007   8.317  17.010  16.815
    1HEX    C0K 5008   8.175  16.976  16.864
    1HEX    C0N 5009   8.700  17.180  17.135
    1HEX    O0O 5010   8.818  17.187  17.216
    1HEX    C0P 5011   8.852  17.298  17.299
    1HEX    C0Q 5012   8.763  17.337  17.424
    1HEX    C0R 5013   8.763  17.212   0.077
    1HEX    O0S 5014   8.896  17.156   0.087
    1HEX    C0T 5015   8.976  17.174   0.195
    1HEX    O0U 5016   8.940  17.215   0.305
    1HEX    C0V 5017   9.122  17.137   0.167
    1HEX    C0W 5018   9.217  17.257   0.141
    1HEX    C0Y 5019   8.849   0.006   0.056
    1HEX    O0Z 5020   8.808   0.028   0.191
    1HEX    C10 5021   8.900   0.074   0.279
    1HEX    O11 5022   9.012   0.116   0.250
    1HEX    C12 5023   8.853   0.063   0.423
    1HEX    C13 5024   8.965   0.097   0.524
    1HEX    C15 5025   8.619  17.406  17.397
    1HEX    O16 5026   8.529  17.348  17.297
    1HEX    C17 5027   8.410  17.401  17.242
    1HEX    O18 5028   8.303  17.344  17.257
    1HEX    C19 5029   8.414   0.086  17.145
    1HEX    C1A 5030   8.354   0.097  16.991
    1HEX    H1C 5031   9.326  17.291  16.674
    1HEX    H1D 5032   9.102  17.181  16.733
    1HEX    H1E 5033   9.115  17.329  16.825
    1HEX    H1F 5034   9.146  17.202  17.036
    1HEX    H1G 5035   9.165  17.050  16.948
    1HEX    H1H 5036   8.734  17.149  16.855
    1HEX    H1I 5037   8.751  17.317  16.817
    1HEX    H1J 5038   8.832   0.001  17.055
    1HEX    H1K 5039   8.701  17.430  17.170
    1HEX    H1M 5040   8.553   0.339  17.013
    1HEX    H1N 5041   8.703   0.424  17.036
    1HEX    H1O 5042   8.650   0.414  17.297
    1HEX    H1P 5043   8.487   0.373  17.249
    1HEX    H1Q 5044   8.663   0.645  17.213
    1HEX    H1R 5045   8.534  17.330  16.881
    1HEX    H1S 5046   8.465  17.303  17.038
    1HEX    H1T 5047   8.388  16.931  16.841
    1HEX    H1U 5048   8.319  17.022  16.707
    1HEX    H1V 5049   8.106  17.058  16.843
    1HEX    H1W 5050   8.174  16.962  16.972
    1HEX    H1X 5051   8.104  16.879  16.658
    1HEX    H1Y 5052   8.702  17.081  17.089
    1HEX    H1Z 5053   8.612  17.170  17.198
    1HEX    H20 5054   8.887  17.386  17.246
    1HEX    H21 5055   8.949  17.265  17.335
    1HEX    H22 5056   8.699  17.134   0.034
    1HEX    H23 5057   8.723  17.233   0.176
    1HEX    H24 5058   9.123  17.072   0.079
    1HEX    H25 5059   9.160  17.077   0.249
    1HEX    H26 5060   9.173  17.328   0.071
    1HEX    H27 5061   9.310  17.222   0.097
    1HEX    H28 5062   9.151  17.424   0.297
    1HEX    H29 5063   8.849   0.101   0.003
    1HEX    H2A 5064   8.953  17.415   0.057
    1HEX    H2B 5065   8.819  17.401   0.440
    1HEX    H2C 5066   8.767   0.129   0.436
    1HEX    H2D 5067   9.007   0.195   0.504
    1HEX    H2E 5068   9.046   0.025   0.516
    1HEX    H2F 5069   8.808   0.192   0.676
    1HEX    H2G 5070   8.633   0.070  17.370
    1HEX    H2H 5071   8.565  17.411   0.052
    1HEX    H2I 5072   8.494   0.150  17.173
    1HEX    H2J 5073   8.336   0.139  17.199
    1HEX    H2K 5074   8.268   0.030  16.997
    1HEX    H2M 5075   8.308   0.196  16.991
    1STR    S00 5076   9.331  17.227  16.791
    1STR    S0E 5077   8.541   0.597  17.189
    1STR    S0M 5078   8.116  16.826  16.781
    1STR    S0X 5079   9.260  17.345   0.294
    1STR    S14 5080   8.896   0.093   0.692
    1STR    S1B 5081   8.400   0.078  16.800
    1HEX    C01 5082   8.998  17.286   3.670
    1HEX    C02 5083   8.936  17.289   3.810
    1HEX    C03 5084   8.784  17.289   3.800
    1HEX    O04 5085   8.722  17.190   3.763
    1HEX    O05 5086   8.731  17.408   3.834
    1HEX    C06 5087   8.590  17.423   3.840
    1HEX    C07 5088   8.540  17.420   3.986
    1HEX    C08 5089   8.589   0.109   4.056
    1HEX    O09 5090   8.523   0.230   4.021
    1HEX    C0A 5091   8.458   0.298   4.115
    1HEX    O0B 5092   8.412   0.251   4.220
    1HEX    C0C 5093   8.451   0.448   4.086
    1HEX    C0D 5094   8.462   0.530   4.216
    1HEX    C0F 5095   8.384  17.420   3.987
    1HEX    O0G 5096   8.337  17.297   3.930
    1HEX    C0H 5097   8.286  17.294   3.806
    1HEX    O0I 5098   8.253  17.392   3.739
    1HEX    C0J 5099   8.276  17.153   3.751
    1HEX    C0K 5100   8.156  17.077   3.809
    1HEX    C0N 5101   8.585  17.290   4.061
    1HEX    O0O 5102   8.722  17.272   4.104
    1HEX    C0P 5103   8.788  17.353   4.203
    1HEX    C0Q 5104   8.753  17.342   4.355
    1HEX    C0R 5105   8.787  17.199   4.404
    1HEX    O0S 5106   8.928  17.174   4.399
    1HEX    C0T 5107   9.000  17.167   4.514
    1HEX    O0U 5108   8.955  17.176   4.628
    1HEX    C0V 5109   9.148  17.145   4.489
    1HEX    C0W 5110   9.231  17.275   4.481
    1HEX    C0Y 5111   8.843   0.005   4.427
    1HEX    O0Z 5112   8.821   0.001   4.567
    1HEX    C10 5113   8.908   0.059   4.649
    1HEX    O11 5114   9.009   0.119   4.615
    1HEX    C12 5115   8.867   0.042   4.794
    1HEX    C13 5116   8.973   0.092   4.892
    1HEX    C15 5117   8.605  17.380   4.387
    1HEX    O16 5118   8.567  17.360   4.523
    1HEX    C17 5119   8.493  17.254   4.559
    1HEX    O18 5120   8.460  17.161   4.485
    1HEX    C19 5121   8.447  17.262   4.703
    1HEX    C1A 5122   8.365  17.390   4.726
    1HEX    H1C 5123   9.205  17.290   3.555
    1HEX    H1D 5124   8.969  17.195   3.617
    1HEX    H1E 5125   8.962  17.371   3.611
    1HEX    H1F 5126   8.968  17.376   3.866
    1HEX    H1G 5127   8.966  17.201   3.867
    1HEX    H1H 5128   8.541  17.348   3.779
    1HEX    H1I 5129   8.564   0.078   3.793
    1HEX    H1J 5130   8.693   0.126   4.030
    1HEX    H1K 5131   8.586   0.095   4.164
    1HEX    H1M 5132   8.360   0.471   4.032
    1HEX    H1N 5133   8.535   0.471   4.020
    1HEX    H1O 5134   8.537   0.487   4.283
    1HEX    H1P 5135   8.367   0.528   4.270
    1HEX    H1Q 5136   8.637   0.678   4.148
    1HEX    H1R 5137   8.344   0.067   3.934
    1HEX    H1S 5138   8.346  17.427   4.088
    1HEX    H1T 5139   8.369  17.101   3.773
    1HEX    H1U 5140   8.269  17.159   3.642
    1HEX    H1V 5141   8.063  17.129   3.786
    1HEX    H1W 5142   8.164  17.072   3.918
    1HEX    H1X 5143   8.138  16.943   3.613
    1HEX    H1Y 5144   8.571  17.208   3.991
    1HEX    H1Z 5145   8.515  17.261   4.139
    1HEX    H20 5146   8.796   0.017   4.172
    1HEX    H21 5147   8.892  17.320   4.194
    1HEX    H22 5148   8.736  17.125   4.342
    1HEX    H23 5149   8.749  17.183   4.505
    1HEX    H24 5150   9.158  17.090   4.395
    1HEX    H25 5151   9.187  17.080   4.567
    1HEX    H26 5152   9.184  17.348   4.415
    1HEX    H27 5153   9.329  17.253   4.440
    1HEX    H28 5154   9.142  17.422   4.645
    1HEX    H29 5155   8.825   0.107   4.392
    1HEX    H2A 5156   8.949  17.425   4.406
    1HEX    H2B 5157   8.847  17.376   4.811
    1HEX    H2C 5158   8.772   0.095   4.808
    1HEX    H2D 5159   9.005   0.194   4.867
    1HEX    H2E 5160   9.062   0.029   4.887
    1HEX    H2F 5161   8.808   0.180   5.040
    1HEX    H2G 5162   8.534  17.328   4.325
    1HEX    H2H 5163   8.589   0.046   4.369
    1HEX    H2I 5164   8.536  17.260   4.767
    1HEX    H2J 5165   8.389  17.173   4.726
    1HEX    H2K 5166   8.280  17.393   4.659
    1HEX    H2M 5167   8.426   0.038   4.704
    1HEX    H2N 5168   8.223  17.296   4.892
    1STR    S00 5169   9.178  17.295   3.686
    1STR    S0E 5170   8.509   0.701   4.178
    1STR    S0M 5171   8.154  16.909   3.741
    1STR    S0X 5172   9.255  17.350   4.645
    1STR    S14 5173   8.905   0.090   5.060
    1STR    S1B 5174   8.309  17.398   4.898
    1HEX    C01 5175   8.998  17.286   8.030
    1HEX    C02 5176   8.936  17.289   8.170
    1HEX    C03 5177   8.784  17.289   8.160
    1HEX    O04 5178   8.722  17.190   8.123
    1HEX    O05 5179   8.731  17.408   8.194
    1HEX    C06 5180   8.590  17.423   8.200
    1HEX    C07 5181   8.540  17.420   8.346
    1HEX    C08 5182   8.589   0.109   8.416
    1HEX    O09 5183   8.523   0.230   8.381
    1HEX    C0A 5184   8.458   0.298   8.476
    1HEX    O0B 5185   8.412   0.251   8.580
    1HEX    C0C 5186   8.451   0.448   8.446
    1HEX    C0D 5187   8.462   0.530   8.576
    1HEX    C0F 5188   8.384  17.419   8.347
    1HEX    O0G 5189   8.337  17.297   8.290
    1HEX    C0H 5190   8.286  17.294   8.166
    1HEX    O0I 5191   8.253  17.392   8.099
    1HEX    C0J 5192   8.276  17.153   8.111
    1HEX    C0K 5193   8.156  17.077   8.169
    1HEX    C0N 5194   8.585  17.290   8.421
    1HEX    O0O 5195   8.722  17.272   8.464
    1HEX    C0P 5196   8.788  17.353   8.563
    1HEX    C0Q 5197   8.753  17.342   8.715
    1HEX    C0R 5198   8.787  17.199   8.764
    1HEX    O0S 5199   8.928  17.174   8.759
    1HEX    C0T 5200   9.000  17.167   8.874
    1HEX    O0U 5201   8.955  17.176   8.988
    1HEX    C0V 5202   9.148  17.145   8.849
    1HEX    C0W 5203   9.231  17.275   8.841
    1HEX    C0Y 5204   8.843   0.005   8.787
    1HEX    O0Z 5205   8.821   0.001   8.927
    1HEX    C10 5206   8.908   0.059   9.009
    1HEX    O11 5207   9.009   0.119   8.975
    1HEX    C12 5208   8.867   0.042   9.154
    1HEX    C13 5209   8.973   0.092   9.252
    1HEX    C15 5210   8.605  17.380   8.747
    1HEX    O16 5211   8.567  17.360   8.883
    1HEX    C17 5212   8.493  17.254   8.919
    1HEX    O18 5213   8.460  17.161   8.845
    1HEX    C19 5214   8.447  17.262   9.063
    1HEX    C1A 5215   8.366  17.390   9.086
    1HEX    H1C 5216   9.205  17.290   7.915
    1HEX    H1D 5217   8.969  17.195   7.977
    1HEX    H1E 5218   8.962  17.371   7.971
    1HEX    H1F 5219   8.968  17.376   8.226
    1HEX    H1G 5220   8.966  17.201   8.227
    1HEX    H1H 5221   8.541  17.348   8.139
    1HEX    H1I 5222   8.564   0.078   8.153
    1HEX    H1J 5223   8.693   0.126   8.390
    1HEX    H1K 5224   8.586   0.095   8.524
    1HEX    H1M 5225   8.360   0.471   8.392
    1HEX    H1N 5226   8.534   0.471   8.380
    1HEX    H1O 5227   8.537   0.487   8.643
    1HEX    H1P 5228   8.367   0.528   8.630
    1HEX    H1Q 5229   8.637   0.678   8.508
    1HEX    H1R 5230   8.344   0.067   8.294
    1HEX    H1S 5231   8.346  17.427   8.448
    1HEX    H1T 5232   8.369  17.101   8.133
    1HEX    H1U 5233   8.269  17.159   8.002
    1HEX    H1V 5234   8.063  17.129   8.146
    1HEX    H1W 5235   8.164  17.072   8.278
    1HEX    H1X 5236   8.138  16.943   7.973
    1HEX    H1Y 5237   8.571  17.208   8.351
    1HEX    H1Z 5238   8.515  17.261   8.499
    1HEX    H20 5239   8.796   0.017   8.532
    1HEX    H21 5240   8.892  17.320   8.554
    1HEX    H22 5241   8.736  17.125   8.702
    1HEX    H23 5242   8.749  17.183   8.865
    1HEX    H24 5243   9.158  17.090   8.755
    1HEX    H25 5244   9.187  17.080   8.927
    1HEX    H26 5245   9.184  17.348   8.775
    1HEX    H27 5246   9.329  17.254   8.800
    1HEX    H28 5247   9.142  17.422   9.005
    1HEX    H29 5248   8.825   0.107   8.752
    1HEX    H2A 5249   8.949  17.425   8.766
    1HEX    H2B 5250   8.847  17.376   9.171
    1HEX    H2C 5251   8.772   0.095   9.168
    1HEX    H2D 5252   9.005   0.194   9.227
    1HEX    H2E 5253   9.062   0.029   9.247
    1HEX    H2F 5254   8.808   0.180   9.400
    1HEX    H2G 5255   8.534  17.329   8.685
    1HEX    H2H 5256   8.589   0.046   8.730
    1HEX    H2I 5257   8.536  17.260   9.127
    1HEX    H2J 5258   8.389  17.173   9.086
    1HEX    H2K 5259   8.280  17.393   9.019
    1HEX    H2M 5260   8.426   0.038   9.064
    1HEX    H2N 5261   8.224  17.296   9.253
    1STR    S00 5262   9.178  17.295   8.046
    1STR    S0E 5263   8.509   0.701   8.538
    1STR    S0M 5264   8.154  16.909   8.101
    1STR    S0X 5265   9.255  17.350   9.005
    1STR    S14 5266   8.905   0.090   9.420
    1STR    S1B 5267   8.310  17.398   9.258
    1HEX    C01 5268   8.914  17.295  12.403
    1HEX    C02 5269   8.850  17.309  12.543
    1HEX    C03 5270   8.700  17.277  12.550
    1HEX    O04 5271   8.654  17.171  12.509
    1HEX    O05 5272   8.629  17.373  12.614
    1HEX    C06 5273   8.509  17.346  12.690
    1HEX    C07 5274   8.541  17.372  12.843
    1HEX    C08 5275   8.582   0.086  12.837
    1HEX    O09 5276   8.486   0.182  12.793
    1HEX    C0A 5277   8.447   0.277  12.880
    1HEX    O0B 5278   8.421   0.255  12.998
    1HEX    C0C 5279   8.449   0.419  12.823
    1HEX    C0D 5280   8.462   0.524  12.935
    1HEX    C0F 5281   8.425  17.331  12.952
    1HEX    O0G 5282   8.472  17.279  13.084
    1HEX    C0H 5283   8.400  17.226  13.197
    1HEX    O0I 5284   8.278  17.217  13.200
    1HEX    C0J 5285   8.490  17.164  13.316
    1HEX    C0K 5286   8.456  17.147  13.477
    1HEX    C0N 5287   8.661  17.275  12.875
    1HEX    O0O 5288   8.795  17.320  12.853
    1HEX    C0P 5289   8.859  17.413  12.942
    1HEX    C0Q 5290   8.842  17.405  13.097
    1HEX    C0R 5291   8.880  17.264  13.149
    1HEX    O0S 5292   9.018  17.237  13.141
    1HEX    C0T 5293   9.075  17.167  13.240
    1HEX    O0U 5294   9.019  17.123  13.340
    1HEX    C0V 5295   9.222  17.143  13.215
    1HEX    C0W 5296   9.303  17.274  13.214
    1HEX    C0Y 5297   8.936   0.069  13.160
    1HEX    O0Z 5298   8.913   0.061  13.299
    1HEX    C10 5299   9.004   0.090  13.388
    1HEX    O11 5300   9.119   0.126  13.366
    1HEX    C12 5301   8.947   0.073  13.528
    1HEX    C13 5302   9.022   0.156  13.632
    1HEX    C15 5303   8.696  17.431  13.145
    1HEX    O16 5304   8.658   0.091  13.239
    1HEX    C17 5305   8.626   0.048  13.362
    1HEX    O18 5306   8.676  17.390  13.416
    1HEX    C19 5307   8.514   0.127  13.429
    1HEX    C1A 5308   8.379   0.107  13.357
    1HEX    H1C 5309   9.129  17.289  12.295
    1HEX    H1D 5310   8.889  17.199  12.358
    1HEX    H1E 5311   8.879  17.373  12.336
    1HEX    H1F 5312   8.869  17.408  12.583
    1HEX    H1G 5313   8.898  17.239  12.611
    1HEX    H1H 5314   8.472  17.245  12.670
    1HEX    H1I 5315   8.432  17.414  12.653
    1HEX    H1J 5316   8.663   0.099  12.766
    1HEX    H1K 5317   8.629   0.131  12.924
    1HEX    H1M 5318   8.361   0.437  12.762
    1HEX    H1N 5319   8.535   0.427  12.756
    1HEX    H1O 5320   8.537   0.495  13.009
    1HEX    H1P 5321   8.367   0.532  12.990
    1HEX    H1Q 5322   8.638   0.669  12.861
    1HEX    H1R 5323   8.362  17.253  12.908
    1HEX    H1S 5324   8.357  17.416  12.965
    1HEX    H1T 5325   8.596  17.182  13.301
    1HEX    H1U 5326   8.483  17.060  13.282
    1HEX    H1V 5327   8.347  17.141  13.485
    1HEX    H1W 5328   8.490  17.047  13.502
    1HEX    H1Y 5329   8.650  17.187  12.811
    1HEX    H1Z 5330   8.657  17.229  12.972
    1HEX    H20 5331   8.841   0.074  12.907
    1HEX    H21 5332   8.965  17.398  12.920
    1HEX    H22 5333   8.828  17.184  13.096
    1HEX    H23 5334   8.846  17.256  13.253
    1HEX    H24 5335   9.229  17.093  13.119
    1HEX    H25 5336   9.260  17.074  13.291
    1HEX    H26 5337   9.250  17.351  13.157
    1HEX    H27 5338   9.399  17.258  13.165
    1HEX    H28 5339   9.227  17.416  13.388
    1HEX    H29 5340   8.912   0.170  13.126
    1HEX    H2A 5341   9.040   0.049  13.136
    1HEX    H2B 5342   8.942  17.407  13.553
    1HEX    H2C 5343   8.844   0.107  13.523
    1HEX    H2D 5344   9.050   0.253  13.590
    1HEX    H2E 5345   9.114   0.105  13.660
    1HEX    H2F 5346   8.815   0.244  13.712
    1HEX    H2G 5347   8.661  17.337  13.182
    1HEX    H2H 5348   8.628   0.006  13.066
    1HEX    H2I 5349   8.541   0.232  13.436
    1HEX    H2J 5350   8.508   0.088  13.530
    1HEX    H2K 5351   8.379   0.016  13.298
    1HEX    H2M 5352   8.360   0.188  13.286
    1HEX    H2N 5353   8.274  17.415  13.526
    1STR    S00 5354   9.095  17.308  12.423
    1STR    S0E 5355   8.506   0.687  12.868
    1STR    S0M 5356   8.517  17.250  13.632
    1STR    S0X 5357   9.333  17.334  13.382
    1STR    S14 5358   8.914   0.182  13.776
    1STR    S1B 5359   8.243   0.096  13.477
    1HEX    C01 5360   8.998   4.206  16.750
    1HEX    C02 5361   8.936   4.208  16.890
    1HEX    C03 5362   8.784   4.209  16.880
    1HEX    O04 5363   8.722   4.110  16.843
    1HEX    O05 5364   8.731   4.328  16.914
    1HEX    C06 5365   8.590   4.344  16.920
    1HEX    C07 5366   8.540   4.341  17.066
    1HEX    C08 5367   8.589   4.469  17.136
    1HEX    O09 5368   8.524   4.590  17.101
    1HEX    C0A 5369   8.458   4.659  17.195
    1HEX    O0B 5370   8.412   4.611  17.299
    1HEX    C0C 5371   8.451   4.808  17.166
    1HEX    C0D 5372   8.462   4.890  17.296
    1HEX    C0F 5373   8.384   4.340  17.067
    1HEX    O0G 5374   8.337   4.218  17.010
    1HEX    C0H 5375   8.286   4.214  16.886
    1HEX    O0I 5376   8.253   4.312  16.819
    1HEX    C0J 5377   8.276   4.073  16.831
    1HEX    C0K 5378   8.156   3.998  16.889
    1HEX    C0N 5379   8.585   4.210  17.141
    1HEX    O0O 5380   8.722   4.192  17.184
    1HEX    C0P 5381   8.788   4.273  17.283
    1HEX    C0Q 5382   8.753   4.262  17.435
    1HEX    C0R 5383   8.787   4.119   0.044
    1HEX    O0S 5384   8.928   4.094   0.039
    1HEX    C0T 5385   9.000   4.088   0.154
    1HEX    O0U 5386   8.955   4.097   0.268
    1HEX    C0V 5387   9.148   4.065   0.129
    1HEX    C0W 5388   9.231   4.195   0.121
    1HEX    C0Y 5389   8.843   4.365   0.067
    1HEX    O0Z 5390   8.821   4.362   0.206
    1HEX    C10 5391   8.908   4.419   0.289
    1HEX    O11 5392   9.009   4.480   0.255
    1HEX    C12 5393   8.866   4.402   0.434
    1HEX    C13 5394   8.973   4.452   0.532
    1HEX    C15 5395   8.605   4.300   0.027
    1HEX    O16 5396   8.567   4.280   0.163
    1HEX    C17 5397   8.493   4.174   0.199
    1HEX    O18 5398   8.460   4.081   0.125
    1HEX    C19 5399   8.447   4.182   0.343
    1HEX    C1A 5400   8.366   4.310   0.366
    1HEX    H1C 5401   9.205   4.209  16.635
    1HEX    H1D 5402   8.968   4.115  16.697
    1HEX    H1E 5403   8.962   4.290  16.691
    1HEX    H1F 5404   8.968   4.296  16.946
    1HEX    H1G 5405   8.965   4.120  16.947
    1HEX    H1H 5406   8.541   4.268  16.859
    1HEX    H1I 5407   8.564   4.439  16.873
    1HEX    H1J 5408   8.693   4.486  17.110
    1HEX    H1K 5409   8.587   4.455  17.244
    1HEX    H1M 5410   8.360   4.831  17.112
    1HEX    H1N 5411   8.534   4.832  17.100
    1HEX    H1O 5412   8.537   4.847  17.363
    1HEX    H1P 5413   8.367   4.888  17.350
    1HEX    H1Q 5414   8.637   5.038  17.228
    1HEX    H1R 5415   8.344   4.427  17.014
    1HEX    H1S 5416   8.346   4.348  17.168
    1HEX    H1T 5417   8.369   4.021  16.853
    1HEX    H1U 5418   8.269   4.080  16.722
    1HEX    H1V 5419   8.063   4.049  16.866
    1HEX    H1W 5420   8.164   3.993  16.998
    1HEX    H1X 5421   8.138   3.864  16.693
    1HEX    H1Y 5422   8.571   4.128  17.071
    1HEX    H1Z 5423   8.515   4.182  17.219
    1HEX    H20 5424   8.796   4.377  17.252
    1HEX    H21 5425   8.892   4.240  17.274
    1HEX    H22 5426   8.736   4.045  17.422
    1HEX    H23 5427   8.749   4.103   0.145
    1HEX    H24 5428   9.158   4.010   0.035
    1HEX    H25 5429   9.187   4.000   0.207
    1HEX    H26 5430   9.184   4.268   0.055
    1HEX    H27 5431   9.329   4.174   0.080
    1HEX    H28 5432   9.142   4.343   0.285
    1HEX    H29 5433   8.825   4.467   0.032
    1HEX    H2A 5434   8.949   4.345   0.046
    1HEX    H2B 5435   8.846   4.297   0.451
    1HEX    H2C 5436   8.773   4.456   0.448
    1HEX    H2D 5437   9.005   4.554   0.507
    1HEX    H2E 5438   9.062   4.389   0.527
    1HEX    H2F 5439   8.808   4.541   0.680
    1HEX    H2G 5440   8.534   4.249  17.405
    1HEX    H2H 5441   8.589   4.407   0.010
    1HEX    H2I 5442   8.536   4.180   0.407
    1HEX    H2J 5443   8.389   4.094   0.366
    1HEX    H2K 5444   8.280   4.314   0.299
    1HEX    H2M 5445   8.426   4.398   0.344
    1HEX    H2N 5446   8.223   4.217   0.533
    1STR    S00 5447   9.178   4.214  16.766
    1STR    S0E 5448   8.509   5.061  17.258
    1STR    S0M 5449   8.153   3.830  16.821
    1STR    S0X 5450   9.255   4.270   0.285
    1STR    S14 5451   8.905   4.450   0.700
    1STR    S1B 5452   8.310   4.319   0.538
    1HEX    C01 5453   8.277   4.482   3.817
    1HEX    C02 5454   8.424   4.536   3.821
    1HEX    C03 5455   8.531   4.427   3.807
    1HEX    O04 5456   8.574   4.391   3.698
    1HEX    O05 5457   8.569   4.378   3.924
    1HEX    C06 5458   8.558   4.238   3.944
    1HEX    C07 5459   8.487   4.208   4.079
    1HEX    C08 5460   8.470   4.334   4.173
    1HEX    O09 5461   8.431   4.462   4.124
    1HEX    C0A 5462   8.448   4.569   4.207
    1HEX    O0B 5463   8.467   4.560   4.329
    1HEX    C0C 5464   8.454   4.705   4.137
    1HEX    C0D 5465   8.458   4.823   4.235
    1HEX    C0F 5466   8.344   4.155   4.051
    1HEX    O0G 5467   8.336   4.036   3.973
    1HEX    C0H 5468   8.290   4.041   3.845
    1HEX    O0I 5469   8.271   4.142   3.779
    1HEX    C0J 5470   8.262   3.905   3.784
    1HEX    C0K 5471   8.115   3.867   3.805
    1HEX    C0N 5472   8.566   4.096   4.155
    1HEX    O0O 5473   8.710   4.107   4.171
    1HEX    C0P 5474   8.781   4.220   4.227
    1HEX    C0Q 5475   8.783   4.239   4.383
    1HEX    C0R 5476   8.849   4.115   4.449
    1HEX    O0S 5477   8.990   4.106   4.421
    1HEX    C0T 5478   9.083   4.125   4.519
    1HEX    O0U 5479   9.059   4.155   4.635
    1HEX    C0V 5480   9.227   4.099   4.473
    1HEX    C0W 5481   9.313   4.227   4.447
    1HEX    C0Y 5482   8.865   4.365   4.420
    1HEX    O0Z 5483   8.841   4.389   4.557
    1HEX    C10 5484   8.933   4.436   4.639
    1HEX    O11 5485   9.042   4.483   4.607
    1HEX    C12 5486   8.885   4.424   4.783
    1HEX    C13 5487   8.990   4.465   4.886
    1HEX    C15 5488   8.639   4.263   4.438
    1HEX    O16 5489   8.613   4.232   4.574
    1HEX    C17 5490   8.513   4.148   4.604
    1HEX    O18 5491   8.464   4.063   4.529
    1HEX    C19 5492   8.455   4.173   4.741
    1HEX    C1A 5493   8.371   4.302   4.738
    1HEX    H1D 5494   8.281   4.374   3.813
    1HEX    H1E 5495   8.235   4.512   3.721
    1HEX    H1F 5496   8.446   4.586   3.914
    1HEX    H1G 5497   8.443   4.609   3.743
    1HEX    H1H 5498   8.655   4.189   3.935
    1HEX    H1I 5499   8.501   4.196   3.862
    1HEX    H1J 5500   8.567   4.357   4.214
    1HEX    H1K 5501   8.404   4.311   4.257
    1HEX    H1M 5502   8.367   4.715   4.071
    1HEX    H1N 5503   8.544   4.706   4.076
    1HEX    H1O 5504   8.535   4.809   4.311
    1HEX    H1P 5505   8.363   4.832   4.287
    1HEX    H1Q 5506   8.625   4.973   4.151
    1HEX    H1R 5507   8.288   4.235   4.003
    1HEX    H1S 5508   8.291   4.136   4.145
    1HEX    H1T 5509   8.330   3.830   3.822
    1HEX    H1U 5510   8.282   3.916   3.677
    1HEX    H1V 5511   8.049   3.952   3.785
    1HEX    H1W 5512   8.097   3.837   3.908
    1HEX    H1X 5513   8.096   3.795   3.578
    1HEX    H1Y 5514   8.555   4.005   4.096
    1HEX    H1Z 5515   8.518   4.067   4.248
    1HEX    H20 5516   8.760   4.312   4.172
    1HEX    H21 5517   8.885   4.201   4.199
    1HEX    H22 5518   8.800   4.024   4.415
    1HEX    H23 5519   8.832   4.118   4.557
    1HEX    H24 5520   9.225   4.035   4.385
    1HEX    H25 5521   9.272   4.040   4.553
    1HEX    H26 5522   9.260   4.318   4.475
    1HEX    H27 5523   9.334   4.234   4.340
    1HEX    H29 5524   8.833   4.453   4.363
    1HEX    H2A 5525   8.971   4.353   4.399
    1HEX    H2B 5526   8.857   4.319   4.798
    1HEX    H2C 5527   8.794   4.483   4.792
    1HEX    H2D 5528   9.024   4.567   4.867
    1HEX    H2E 5529   9.077   4.400   4.879
    1HEX    H2F 5530   8.817   4.542   5.033
    1HEX    H2G 5531   8.566   4.212   4.378
    1HEX    H2H 5532   8.613   4.369   4.428
    1HEX    H2I 5533   8.535   4.180   4.814
    1HEX    H2J 5534   8.393   4.088   4.769
    1HEX    H2K 5535   8.292   4.296   4.663
    1HEX    H2M 5536   8.434   4.387   4.711
    1HEX    H2N 5537   8.213   4.227   4.900
    1STR    S00 5538   8.157   4.532   3.952
    1STR    S0E 5539   8.491   4.977   4.143
    1STR    S0M 5540   8.071   3.731   3.693
    1STR    S0X 5541   9.474   4.219   4.536
    1STR    S14 5542   8.915   4.453   5.052
    1STR    S1B 5543   8.297   4.331   4.902
    1HEX    C01 5544   9.041   4.320   7.918
    1HEX    C02 5545   9.026   4.364   8.065
    1HEX    C03 5546   8.889   4.422   8.099
    1HEX    O04 5547   8.825   4.489   8.018
    1HEX    O05 5548   8.850   4.390   8.225
    1HEX    C06 5549   8.726   4.436   8.277
    1HEX    C07 5550   8.643   4.331   8.357
    1HEX    C08 5551   8.517   4.412   8.412
    1HEX    O09 5552   8.507   4.552   8.377
    1HEX    C0A 5553   8.447   4.639   8.464
    1HEX    O0B 5554   8.389   4.606   8.568
    1HEX    C0C 5555   8.461   4.787   8.427
    1HEX    C0D 5556   8.466   4.877   8.552
    1HEX    C0F 5557   8.614   4.209   8.261
    1HEX    O0G 5558   8.721   4.110   8.271
    1HEX    C0H 5559   8.838   4.111   8.200
    1HEX    O0I 5560   8.839   4.135   8.080
    1HEX    C0J 5561   8.963   4.050   8.273
    1HEX    C0K 5562   9.074   4.131   8.358
    1HEX    C0N 5563   8.707   4.265   8.483
    1HEX    O0O 5564   8.831   4.318   8.520
    1HEX    C0P 5565   8.831   4.406   8.629
    1HEX    C0Q 5566   8.787   4.347   8.767
    1HEX    C0R 5567   8.812   4.194   8.780
    1HEX    O0S 5568   8.949   4.159   8.765
    1HEX    C0T 5569   9.018   4.111   8.871
    1HEX    O0U 5570   8.973   4.091   8.984
    1HEX    C0V 5571   9.163   4.081   8.838
    1HEX    C0W 5572   9.249   4.208   8.829
    1HEX    C0Y 5573   8.878   4.421   8.867
    1HEX    O0Z 5574   8.848   4.388   9.000
    1HEX    C10 5575   8.931   4.431   9.093
    1HEX    O11 5576   9.036   4.493   9.072
    1HEX    C12 5577   8.883   4.399   9.233
    1HEX    C13 5578   8.979   4.454   9.339
    1HEX    C15 5579   8.638   4.385   8.798
    1HEX    O16 5580   8.590   4.337   8.923
    1HEX    C17 5581   8.517   4.224   8.931
    1HEX    O18 5582   8.496   4.145   8.839
    1HEX    C19 5583   8.456   4.205   9.069
    1HEX    C1A 5584   8.359   4.319   9.099
    1HEX    H1C 5585   9.198   4.213   7.772
    1HEX    H1D 5586   8.963   4.250   7.889
    1HEX    H1E 5587   9.034   4.406   7.851
    1HEX    H1F 5588   9.103   4.434   8.094
    1HEX    H1G 5589   9.039   4.276   8.126
    1HEX    H1H 5590   8.663   4.472   8.195
    1HEX    H1I 5591   8.748   4.524   8.337
    1HEX    H1J 5592   8.527   4.418   8.520
    1HEX    H1K 5593   8.421   4.361   8.398
    1HEX    H1M 5594   8.377   4.816   8.364
    1HEX    H1N 5595   8.551   4.800   8.367
    1HEX    H1O 5596   8.537   4.838   8.626
    1HEX    H1P 5597   8.369   4.879   8.602
    1HEX    H1Q 5598   8.645   5.026   8.496
    1HEX    H1R 5599   8.598   4.240   8.157
    1HEX    H1S 5600   8.521   4.161   8.292
    1HEX    H1T 5601   9.011   3.983   8.202
    1HEX    H1U 5602   8.914   3.983   8.344
    1HEX    H1V 5603   9.104   4.059   8.434
    1HEX    H1W 5604   9.025   4.209   8.416
    1HEX    H1Y 5605   8.731   4.160   8.477
    1HEX    H1Z 5606   8.636   4.252   8.563
    1HEX    H20 5607   8.776   4.497   8.604
    1HEX    H21 5608   8.936   4.437   8.632
    1HEX    H22 5609   8.755   4.135   8.708
    1HEX    H23 5610   8.773   4.159   8.876
    1HEX    H24 5611   9.165   4.028   8.743
    1HEX    H25 5612   9.203   4.013   8.913
    1HEX    H26 5613   9.202   4.283   8.765
    1HEX    H27 5614   9.345   4.184   8.783
    1HEX    H28 5615   9.161   4.335   9.014
    1HEX    H29 5616   8.869   4.529   8.855
    1HEX    H2A 5617   8.982   4.396   8.847
    1HEX    H2B 5618   8.870   4.291   9.241
    1HEX    H2C 5619   8.784   4.444   9.242
    1HEX    H2D 5620   9.010   4.555   9.315
    1HEX    H2E 5621   9.069   4.393   9.343
    1HEX    H2F 5622   8.800   4.544   9.467
    1HEX    H2G 5623   8.567   4.353   8.723
    1HEX    H2H 5624   8.628   4.493   8.800
    1HEX    H2I 5625   8.537   4.202   9.141
    1HEX    H2J 5626   8.406   4.108   9.073
    1HEX    H2K 5627   8.274   4.317   9.031
    1HEX    H2M 5628   8.409   4.416   9.085
    1HEX    H2N 5629   8.222   4.203   9.257
    1STR    S00 5630   9.204   4.240   7.903
    1STR    S0E 5631   8.514   5.047   8.509
    1STR    S0M 5632   9.244   4.197   8.297
    1STR    S0X 5633   9.281   4.279   8.994
    1STR    S14 5634   8.894   4.454   9.500
    1STR    S1B 5635   8.302   4.310   9.271
    1HEX    C01 5636   8.998   4.206  12.390
    1HEX    C02 5637   8.936   4.208  12.530
    1HEX    C03 5638   8.784   4.209  12.520
    1HEX    O04 5639   8.722   4.110  12.483
    1HEX    O05 5640   8.731   4.328  12.554
    1HEX    C06 5641   8.590   4.344  12.560
    1HEX    C07 5642   8.540   4.341  12.706
    1HEX    C08 5643   8.589   4.469  12.776
    1HEX    O09 5644   8.524   4.590  12.741
    1HEX    C0A 5645   8.458   4.659  12.835
    1HEX    O0B 5646   8.412   4.611  12.939
    1HEX    C0C 5647   8.451   4.808  12.806
    1HEX    C0D 5648   8.462   4.890  12.936
    1HEX    C0F 5649   8.384   4.340  12.707
    1HEX    O0G 5650   8.337   4.218  12.650
    1HEX    C0H 5651   8.286   4.215  12.526
    1HEX    O0I 5652   8.253   4.312  12.459
    1HEX    C0J 5653   8.276   4.073  12.471
    1HEX    C0K 5654   8.156   3.998  12.529
    1HEX    C0N 5655   8.585   4.210  12.781
    1HEX    O0O 5656   8.722   4.192  12.824
    1HEX    C0P 5657   8.788   4.273  12.923
    1HEX    C0Q 5658   8.753   4.262  13.075
    1HEX    C0R 5659   8.787   4.119  13.124
    1HEX    O0S 5660   8.928   4.094  13.119
    1HEX    C0T 5661   9.000   4.088  13.234
    1HEX    O0U 5662   8.955   4.097  13.348
    1HEX    C0V 5663   9.148   4.065  13.209
    1HEX    C0W 5664   9.231   4.195  13.201
    1HEX    C0Y 5665   8.843   4.365  13.147
    1HEX    O0Z 5666   8.821   4.362  13.287
    1HEX    C10 5667   8.907   4.419  13.369
    1HEX    O11 5668   9.009   4.480  13.335
    1HEX    C12 5669   8.866   4.402  13.514
    1HEX    C13 5670   8.973   4.452  13.612
    1HEX    C15 5671   8.605   4.300  13.107
    1HEX    O16 5672   8.567   4.280  13.243
    1HEX    C17 5673   8.493   4.174  13.279
    1HEX    O18 5674   8.460   4.081  13.205
    1HEX    C19 5675   8.447   4.183  13.423
    1HEX    C1A 5676   8.366   4.310  13.446
    1HEX    H1C 5677   9.205   4.209  12.275
    1HEX    H1D 5678   8.968   4.115  12.337
    1HEX    H1E 5679   8.962   4.290  12.331
    1HEX    H1F 5680   8.968   4.296  12.585
    1HEX    H1G 5681   8.965   4.120  12.587
    1HEX    H1H 5682   8.541   4.268  12.499
    1HEX    H1I 5683   8.564   4.439  12.513
    1HEX    H1J 5684   8.693   4.486  12.749
    1HEX    H1K 5685   8.587   4.455  12.884
    1HEX    H1M 5686   8.360   4.832  12.752
    1HEX    H1N 5687   8.535   4.832  12.740
    1HEX    H1O 5688   8.537   4.847  13.003
    1HEX    H1P 5689   8.367   4.888  12.990
    1HEX    H1Q 5690   8.637   5.038  12.868
    1HEX    H1R 5691   8.344   4.427  12.654
    1HEX    H1S 5692   8.346   4.348  12.808
    1HEX    H1T 5693   8.369   4.021  12.493
    1HEX    H1U 5694   8.269   4.080  12.362
    1HEX    H1V 5695   8.063   4.049  12.506
    1HEX    H1W 5696   8.164   3.993  12.638
    1HEX    H1X 5697   8.138   3.864  12.333
    1HEX    H1Y 5698   8.571   4.128  12.711
    1HEX    H1Z 5699   8.515   4.182  12.859
    1HEX    H20 5700   8.796   4.377  12.892
    1HEX    H21 5701   8.892   4.240  12.914
    1HEX    H22 5702   8.736   4.045  13.062
    1HEX    H23 5703   8.749   4.103  13.225
    1HEX    H24 5704   9.158   4.010  13.115
    1HEX    H25 5705   9.187   4.000  13.287
    1HEX    H26 5706   9.184   4.268  13.135
    1HEX    H27 5707   9.329   4.174  13.160
    1HEX    H28 5708   9.142   4.343  13.365
    1HEX    H29 5709   8.825   4.467  13.112
    1HEX    H2A 5710   8.949   4.345  13.126
    1HEX    H2B 5711   8.846   4.296  13.531
    1HEX    H2C 5712   8.772   4.456  13.528
    1HEX    H2D 5713   9.005   4.554  13.587
    1HEX    H2E 5714   9.062   4.389  13.607
    1HEX    H2F 5715   8.808   4.541  13.760
    1HEX    H2G 5716   8.534   4.249  13.045
    1HEX    H2H 5717   8.589   4.407  13.089
    1HEX    H2I 5718   8.536   4.181  13.487
    1HEX    H2J 5719   8.389   4.094  13.446
    1HEX    H2K 5720   8.280   4.314  13.379
    1HEX    H2M 5721   8.426   4.398  13.424
    1HEX    H2N 5722   8.223   4.217  13.612
    1STR    S00 5723   9.178   4.214  12.405
    1STR    S0E 5724   8.509   5.061  12.898
    1STR    S0M 5725   8.153   3.830  12.461
    1STR    S0X 5726   9.255   4.270  13.365
    1STR    S14 5727   8.905   4.450  13.780
    1STR    S1B 5728   8.310   4.319  13.618
    1HEX    C01 5729   8.998   8.566  16.750
    1HEX    C02 5730   8.936   8.569  16.890
    1HEX    C03 5731   8.784   8.570  16.880
    1HEX    O04 5732   8.722   8.470  16.843
    1HEX    O05 5733   8.731   8.688  16.914
    1HEX    C06 5734   8.590   8.704  16.920
    1HEX    C07 5735   8.540   8.701  17.066
    1HEX    C08 5736   8.589   8.829  17.136
    1HEX    O09 5737   8.523   8.950  17.101
    1HEX    C0A 5738   8.458   9.019  17.196
    1HEX    O0B 5739   8.412   8.972  17.300
    1HEX    C0C 5740   8.451   9.168  17.166
    1HEX    C0D 5741   8.462   9.250  17.296
    1HEX    C0F 5742   8.384   8.700  17.067
    1HEX    O0G 5743   8.337   8.578  17.010
    1HEX    C0H 5744   8.286   8.574  16.886
    1HEX    O0I 5745   8.253   8.672  16.819
    1HEX    C0J 5746   8.276   8.433  16.831
    1HEX    C0K 5747   8.156   8.358  16.889
    1HEX    C0N 5748   8.585   8.570  17.141
    1HEX    O0O 5749   8.722   8.553  17.184
    1HEX    C0P 5750   8.788   8.634  17.283
    1HEX    C0Q 5751   8.753   8.622  17.435
    1HEX    C0R 5752   8.787   8.479   0.044
    1HEX    O0S 5753   8.928   8.454   0.039
    1HEX    C0T 5754   9.000   8.447   0.154
    1HEX    O0U 5755   8.955   8.456   0.268
    1HEX    C0V 5756   9.148   8.425   0.129
    1HEX    C0W 5757   9.231   8.555   0.121
    1HEX    C0Y 5758   8.843   8.725   0.067
    1HEX    O0Z 5759   8.821   8.722   0.207
    1HEX    C10 5760   8.908   8.779   0.289
    1HEX    O11 5761   9.009   8.840   0.255
    1HEX    C12 5762   8.866   8.762   0.434
    1HEX    C13 5763   8.973   8.812   0.532
    1HEX    C15 5764   8.605   8.661   0.027
    1HEX    O16 5765   8.567   8.641   0.163
    1HEX    C17 5766   8.493   8.535   0.199
    1HEX    O18 5767   8.460   8.441   0.125
    1HEX    C19 5768   8.447   8.543   0.343
    1HEX    C1A 5769   8.365   8.670   0.366
    1HEX    H1C 5770   9.205   8.569  16.635
    1HEX    H1D 5771   8.969   8.475  16.697
    1HEX    H1E 5772   8.962   8.651  16.691
    1HEX    H1F 5773   8.968   8.656  16.946
    1HEX    H1G 5774   8.966   8.481  16.947
    1HEX    H1H 5775   8.541   8.628  16.859
    1HEX    H1I 5776   8.564   8.799  16.873
    1HEX    H1J 5777   8.693   8.846  17.110
    1HEX    H1K 5778   8.586   8.815  17.244
    1HEX    H1M 5779   8.360   9.192  17.112
    1HEX    H1N 5780   8.534   9.192  17.100
    1HEX    H1O 5781   8.537   9.208  17.363
    1HEX    H1P 5782   8.367   9.249  17.350
    1HEX    H1Q 5783   8.637   9.398  17.228
    1HEX    H1R 5784   8.344   8.787  17.015
    1HEX    H1S 5785   8.346   8.708  17.169
    1HEX    H1T 5786   8.369   8.381  16.853
    1HEX    H1U 5787   8.269   8.440  16.722
    1HEX    H1V 5788   8.063   8.409  16.866
    1HEX    H1W 5789   8.164   8.353  16.998
    1HEX    H1X 5790   8.138   8.224  16.692
    1HEX    H1Y 5791   8.571   8.488  17.071
    1HEX    H1Z 5792   8.516   8.542  17.219
    1HEX    H20 5793   8.796   8.737  17.253
    1HEX    H21 5794   8.892   8.601  17.274
    1HEX    H22 5795   8.736   8.405  17.422
    1HEX    H23 5796   8.749   8.463   0.145
    1HEX    H24 5797   9.157   8.370   0.035
    1HEX    H25 5798   9.187   8.360   0.207
    1HEX    H26 5799   9.184   8.628   0.055
    1HEX    H27 5800   9.329   8.534   0.080
    1HEX    H28 5801   9.142   8.703   0.285
    1HEX    H29 5802   8.825   8.827   0.032
    1HEX    H2A 5803   8.949   8.705   0.046
    1HEX    H2B 5804   8.846   8.656   0.451
    1HEX    H2C 5805   8.773   8.816   0.448
    1HEX    H2D 5806   9.005   8.913   0.507
    1HEX    H2E 5807   9.062   8.748   0.527
    1HEX    H2F 5808   8.809   8.901   0.680
    1HEX    H2G 5809   8.534   8.609  17.405
    1HEX    H2H 5810   8.589   8.767   0.010
    1HEX    H2I 5811   8.536   8.541   0.407
    1HEX    H2J 5812   8.389   8.454   0.366
    1HEX    H2K 5813   8.280   8.673   0.299
    1HEX    H2M 5814   8.426   8.758   0.344
    1HEX    H2N 5815   8.223   8.577   0.532
    1STR    S00 5816   9.178   8.575  16.765
    1STR    S0E 5817   8.509   9.422  17.258
    1STR    S0M 5818   8.153   8.190  16.821
    1STR    S0X 5819   9.255   8.630   0.285
    1STR    S14 5820   8.905   8.810   0.700
    1STR    S1B 5821   8.309   8.679   0.538
    1HEX    C01 5822   8.264   8.975   3.833
    1HEX    C02 5823   8.420   8.958   3.847
    1HEX    C03 5824   8.481   8.823   3.814
    1HEX    O04 5825   8.484   8.779   3.699
    1HEX    O05 5826   8.530   8.763   3.922
    1HEX    C06 5827   8.487   8.632   3.946
    1HEX    C07 5828   8.443   8.609   4.094
    1HEX    C08 5829   8.453   8.734   4.187
    1HEX    O09 5830   8.428   8.867   4.142
    1HEX    C0A 5831   8.458   8.969   4.228
    1HEX    O0B 5832   8.485   8.955   4.347
    1HEX    C0C 5833   8.464   9.106   4.162
    1HEX    C0D 5834   8.467   9.222   4.261
    1HEX    C0F 5835   8.294   8.564   4.094
    1HEX    O0G 5836   8.277   8.457   4.001
    1HEX    C0H 5837   8.188   8.467   3.901
    1HEX    O0I 5838   8.094   8.546   3.895
    1HEX    C0J 5839   8.213   8.368   3.789
    1HEX    C0K 5840   8.110   8.255   3.794
    1HEX    C0N 5841   8.527   8.489   4.153
    1HEX    O0O 5842   8.671   8.494   4.154
    1HEX    C0P 5843   8.753   8.590   4.225
    1HEX    C0Q 5844   8.751   8.594   4.382
    1HEX    C0R 5845   8.794   8.456   4.438
    1HEX    O0S 5846   8.935   8.434   4.422
    1HEX    C0T 5847   9.016   8.439   4.530
    1HEX    O0U 5848   8.981   8.456   4.647
    1HEX    C0V 5849   9.163   8.420   4.494
    1HEX    C0W 5850   9.242   8.552   4.483
    1HEX    C0Y 5851   8.851   8.704   4.428
    1HEX    O0Z 5852   8.836   8.715   4.568
    1HEX    C10 5853   8.925   8.776   4.644
    1HEX    O11 5854   9.029   8.831   4.605
    1HEX    C12 5855   8.882   8.771   4.789
    1HEX    C13 5856   8.990   8.820   4.887
    1HEX    C15 5857   8.613   8.637   4.440
    1HEX    O16 5858   8.587   8.609   4.577
    1HEX    C17 5859   8.499   8.515   4.609
    1HEX    O18 5860   8.457   8.425   4.535
    1HEX    C19 5861   8.442   8.536   4.748
    1HEX    C1A 5862   8.359   8.665   4.750
    1HEX    H1D 5863   8.247   8.964   3.726
    1HEX    H1E 5864   8.240   9.078   3.857
    1HEX    H1F 5865   8.457   8.983   3.944
    1HEX    H1G 5866   8.470   9.028   3.781
    1HEX    H1H 5867   8.560   8.559   3.911
    1HEX    H1I 5868   8.401   8.616   3.880
    1HEX    H1J 5869   8.555   8.744   4.218
    1HEX    H1K 5870   8.391   8.720   4.276
    1HEX    H1M 5871   8.378   9.117   4.096
    1HEX    H1N 5872   8.555   9.108   4.101
    1HEX    H1O 5873   8.543   9.208   4.338
    1HEX    H1P 5874   8.371   9.229   4.313
    1HEX    H1Q 5875   8.631   9.361   4.156
    1HEX    H1R 5876   8.230   8.649   4.071
    1HEX    H1S 5877   8.262   8.529   4.192
    1HEX    H1T 5878   8.315   8.329   3.799
    1HEX    H1U 5879   8.208   8.421   3.694
    1HEX    H1V 5880   8.011   8.293   3.769
    1HEX    H1W 5881   8.105   8.215   3.896
    1HEX    H1X 5882   8.150   8.194   3.567
    1HEX    H1Y 5883   8.506   8.403   4.090
    1HEX    H1Z 5884   8.488   8.454   4.249
    1HEX    H20 5885   8.745   8.688   4.179
    1HEX    H21 5886   8.854   8.561   4.197
    1HEX    H22 5887   8.739   8.377   4.388
    1HEX    H23 5888   8.766   8.447   4.543
    1HEX    H24 5889   9.167   8.367   4.399
    1HEX    H25 5890   9.209   8.355   4.568
    1HEX    H26 5891   9.189   8.625   4.422
    1HEX    H27 5892   9.338   8.534   4.434
    1HEX    H28 5893   9.163   8.697   4.652
    1HEX    H29 5894   8.830   8.801   4.383
    1HEX    H2A 5895   8.954   8.680   4.402
    1HEX    H2B 5896   8.856   8.668   4.811
    1HEX    H2C 5897   8.791   8.830   4.798
    1HEX    H2D 5898   9.023   8.921   4.861
    1HEX    H2E 5899   9.077   8.755   4.882
    1HEX    H2F 5900   8.819   8.905   5.031
    1HEX    H2G 5901   8.532   8.595   4.384
    1HEX    H2H 5902   8.602   8.745   4.431
    1HEX    H2I 5903   8.525   8.541   4.819
    1HEX    H2J 5904   8.381   8.449   4.774
    1HEX    H2K 5905   8.281   8.661   4.674
    1HEX    H2M 5906   8.422   8.751   4.725
    1HEX    H2N 5907   8.203   8.584   4.909
    1STR    S00 5908   8.130   8.869   3.910
    1STR    S0E 5909   8.499   9.377   4.171
    1STR    S0M 5910   8.159   8.123   3.680
    1STR    S0X 5911   9.277   8.626   4.645
    1STR    S14 5912   8.920   8.819   5.054
    1STR    S1B 5913   8.285   8.689   4.913
    1HEX    C01 5914   8.998   8.566   8.030
    1HEX    C02 5915   8.936   8.569   8.170
    1HEX    C03 5916   8.784   8.570   8.160
    1HEX    O04 5917   8.722   8.470   8.123
    1HEX    O05 5918   8.731   8.688   8.194
    1HEX    C06 5919   8.590   8.704   8.200
    1HEX    C07 5920   8.540   8.701   8.346
    1HEX    C08 5921   8.589   8.829   8.416
    1HEX    O09 5922   8.523   8.950   8.381
    1HEX    C0A 5923   8.458   9.019   8.476
    1HEX    O0B 5924   8.412   8.972   8.580
    1HEX    C0C 5925   8.451   9.168   8.446
    1HEX    C0D 5926   8.462   9.250   8.576
    1HEX    C0F 5927   8.384   8.700   8.347
    1HEX    O0G 5928   8.337   8.578   8.290
    1HEX    C0H 5929   8.286   8.574   8.166
    1HEX    O0I 5930   8.253   8.672   8.099
    1HEX    C0J 5931   8.276   8.433   8.111
    1HEX    C0K 5932   8.156   8.358   8.169
    1HEX    C0N 5933   8.586   8.570   8.421
    1HEX    O0O 5934   8.722   8.553   8.464
    1HEX    C0P 5935   8.788   8.634   8.563
    1HEX    C0Q 5936   8.753   8.622   8.715
    1HEX    C0R 5937   8.787   8.479   8.764
    1HEX    O0S 5938   8.928   8.454   8.759
    1HEX    C0T 5939   9.000   8.447   8.874
    1HEX    O0U 5940   8.955   8.456   8.988
    1HEX    C0V 5941   9.148   8.425   8.849
    1HEX    C0W 5942   9.231   8.555   8.841
    1HEX    C0Y 5943   8.843   8.725   8.787
    1HEX    O0Z 5944   8.821   8.722   8.927
    1HEX    C10 5945   8.908   8.779   9.009
    1HEX    O11 5946   9.009   8.839   8.975
    1HEX    C12 5947   8.866   8.762   9.154
    1HEX    C13 5948   8.973   8.812   9.252
    1HEX    C15 5949   8.605   8.661   8.747
    1HEX    O16 5950   8.567   8.641   8.883
    1HEX    C17 5951   8.493   8.535   8.918
    1HEX    O18 5952   8.460   8.441   8.845
    1HEX    C19 5953   8.447   8.542   9.063
    1HEX    C1A 5954   8.365   8.670   9.086
    1HEX    H1C 5955   9.205   8.569   7.915
    1HEX    H1D 5956   8.969   8.475   7.977
    1HEX    H1E 5957   8.962   8.651   7.971
    1HEX    H1F 5958   8.968   8.657   8.226
    1HEX    H1G 5959   8.966   8.481   8.227
    1HEX    H1H 5960   8.541   8.628   8.139
    1HEX    H1I 5961   8.564   8.799   8.153
    1HEX    H1J 5962   8.693   8.846   8.390
    1HEX    H1K 5963   8.586   8.815   8.524
    1HEX    H1M 5964   8.360   9.192   8.392
    1HEX    H1N 5965   8.534   9.192   8.380
    1HEX    H1O 5966   8.537   9.208   8.643
    1HEX    H1P 5967   8.367   9.249   8.630
    1HEX    H1Q 5968   8.637   9.398   8.508
    1HEX    H1R 5969   8.344   8.787   8.295
    1HEX    H1S 5970   8.346   8.708   8.449
    1HEX    H1T 5971   8.369   8.381   8.133
    1HEX    H1U 5972   8.269   8.440   8.002
    1HEX    H1V 5973   8.063   8.409   8.146
    1HEX    H1W 5974   8.164   8.353   8.278
    1HEX    H1X 5975   8.138   8.224   7.972
    1HEX    H1Y 5976   8.571   8.488   8.351
    1HEX    H1Z 5977   8.516   8.542   8.499
    1HEX    H20 5978   8.796   8.737   8.533
    1HEX    H21 5979   8.892   8.601   8.554
    1HEX    H22 5980   8.736   8.405   8.702
    1HEX    H23 5981   8.749   8.463   8.865
    1HEX    H24 5982   9.157   8.370   8.755
    1HEX    H25 5983   9.187   8.360   8.927
    1HEX    H26 5984   9.184   8.628   8.775
    1HEX    H27 5985   9.329   8.534   8.800
    1HEX    H28 5986   9.142   8.703   9.005
    1HEX    H29 5987   8.825   8.827   8.752
    1HEX    H2A 5988   8.949   8.705   8.766
    1HEX    H2B 5989   8.846   8.656   9.171
    1HEX    H2C 5990   8.773   8.816   9.168
    1HEX    H2D 5991   9.005   8.913   9.227
    1HEX    H2E 5992   9.062   8.748   9.247
    1HEX    H2F 5993   8.809   8.900   9.400
    1HEX    H2G 5994   8.534   8.609   8.685
    1HEX    H2H 5995   8.589   8.767   8.730
    1HEX    H2I 5996   8.536   8.541   9.127
    1HEX    H2J 5997   8.389   8.454   9.086
    1HEX    H2K 5998   8.279   8.673   9.019
    1HEX    H2M 5999   8.426   8.758   9.063
    1HEX    H2N 6000   8.224   8.577   9.253
    1STR    S00 6001   9.178   8.575   8.046
    1STR    S0E 6002   8.509   9.422   8.538
    1STR    S0M 6003   8.153   8.190   8.101
    1STR    S0X 6004   9.255   8.630   9.005
    1STR    S14 6005   8.905   8.810   9.420
    1STR    S1B 6006   8.310   8.679   9.258
    1HEX    C01 6007   8.998   8.566  12.390
    1HEX    C02 6008   8.936   8.569  12.530
    1HEX    C03 6009   8.784   8.570  12.520
    1HEX    O04 6010   8.722   8.470  12.483
    1HEX    O05 6011   8.731   8.688  12.554
    1HEX    C06 6012   8.590   8.704  12.560
    1HEX    C07 6013   8.540   8.701  12.706
    1HEX    C08 6014   8.589   8.829  12.776
    1HEX    O09 6015   8.523   8.950  12.741
    1HEX    C0A 6016   8.458   9.019  12.836
    1HEX    O0B 6017   8.412   8.972  12.940
    1HEX    C0C 6018   8.451   9.168  12.806
    1HEX    C0D 6019   8.462   9.250  12.936
    1HEX    C0F 6020   8.384   8.700  12.707
    1HEX    O0G 6021   8.337   8.578  12.650
    1HEX    C0H 6022   8.286   8.574  12.526
    1HEX    O0I 6023   8.253   8.672  12.459
    1HEX    C0J 6024   8.276   8.433  12.471
    1HEX    C0K 6025   8.156   8.358  12.529
    1HEX    C0N 6026   8.585   8.570  12.781
    1HEX    O0O 6027   8.722   8.553  12.824
    1HEX    C0P 6028   8.788   8.634  12.923
    1HEX    C0Q 6029   8.753   8.622  13.075
    1HEX    C0R 6030   8.787   8.479  13.124
    1HEX    O0S 6031   8.928   8.454  13.119
    1HEX    C0T 6032   9.000   8.447  13.234
    1HEX    O0U 6033   8.955   8.456  13.348
    1HEX    C0V 6034   9.148   8.425  13.209
    1HEX    C0W 6035   9.231   8.555  13.201
    1HEX    C0Y 6036   8.843   8.725  13.147
    1HEX    O0Z 6037   8.821   8.722  13.287
    1HEX    C10 6038   8.908   8.779  13.369
    1HEX    O11 6039   9.009   8.840  13.335
    1HEX    C12 6040   8.866   8.762  13.514
    1HEX    C13 6041   8.973   8.812  13.612
    1HEX    C15 6042   8.605   8.661  13.107
    1HEX    O16 6043   8.567   8.641  13.243
    1HEX    C17 6044   8.493   8.535  13.279
    1HEX    O18 6045   8.460   8.441  13.205
    1HEX    C19 6046   8.447   8.543  13.423
    1HEX    C1A 6047   8.365   8.670  13.446
    1HEX    H1C 6048   9.205   8.569  12.275
    1HEX    H1D 6049   8.969   8.475  12.337
    1HEX    H1E 6050   8.962   8.651  12.331
    1HEX    H1F 6051   8.968   8.656  12.586
    1HEX    H1G 6052   8.966   8.481  12.587
    1HEX    H1H 6053   8.541   8.628  12.499
    1HEX    H1I 6054   8.564   8.799  12.513
    1HEX    H1J 6055   8.693   8.846  12.750
    1HEX    H1K 6056   8.586   8.815  12.884
    1HEX    H1M 6057   8.360   9.192  12.752
    1HEX    H1N 6058   8.534   9.192  12.740
    1HEX    H1O 6059   8.537   9.207  13.003
    1HEX    H1P 6060   8.367   9.249  12.990
    1HEX    H1Q 6061   8.637   9.398  12.868
    1HEX    H1R 6062   8.344   8.787  12.655
    1HEX    H1S 6063   8.346   8.708  12.809
    1HEX    H1T 6064   8.369   8.381  12.493
    1HEX    H1U 6065   8.269   8.440  12.362
    1HEX    H1V 6066   8.063   8.409  12.506
    1HEX    H1W 6067   8.164   8.353  12.638
    1HEX    H1X 6068   8.138   8.224  12.332
    1HEX    H1Y 6069   8.571   8.488  12.711
    1HEX    H1Z 6070   8.516   8.542  12.859
    1HEX    H20 6071   8.796   8.737  12.893
    1HEX    H21 6072   8.892   8.601  12.914
    1HEX    H22 6073   8.736   8.405  13.062
    1HEX    H23 6074   8.749   8.463  13.225
    1HEX    H24 6075   9.157   8.370  13.115
    1HEX    H25 6076   9.187   8.360  13.287
    1HEX    H26 6077   9.184   8.628  13.135
    1HEX    H27 6078   9.329   8.534  13.160
    1HEX    H28 6079   9.142   8.703  13.365
    1HEX    H29 6080   8.825   8.827  13.112
    1HEX    H2A 6081   8.949   8.705  13.126
    1HEX    H2B 6082   8.846   8.656  13.531
    1HEX    H2C 6083   8.773   8.816  13.528
    1HEX    H2D 6084   9.005   8.913  13.587
    1HEX    H2E 6085   9.062   8.748  13.607
    1HEX    H2F 6086   8.809   8.901  13.760
    1HEX    H2G 6087   8.534   8.609  13.045
    1HEX    H2H 6088   8.589   8.767  13.090
    1HEX    H2I 6089   8.536   8.541  13.487
    1HEX    H2J 6090   8.389   8.454  13.446
    1HEX    H2K 6091   8.280   8.673  13.379
    1HEX    H2M 6092   8.426   8.758  13.424
    1HEX    H2N 6093   8.223   8.577  13.612
    1STR    S00 6094   9.178   8.575  12.405
    1STR    S0E 6095   8.509   9.422  12.898
    1STR    S0M 6096   8.153   8.190  12.461
    1STR    S0X 6097   9.255   8.630  13.365
    1STR    S14 6098   8.905   8.810  13.780
    1STR    S1B 6099   8.310   8.679  13.618
    1HEX    C01 6100   8.998  12.927  16.750
    1HEX    C02 6101   8.936  12.929  16.890
    1HEX    C03 6102   8.784  12.930  16.880
    1HEX    O04 6103   8.722  12.830  16.843
    1HEX    O05 6104   8.731  13.048  16.914
    1HEX    C06 6105   8.590  13.064  16.920
    1HEX    C07 6106   8.540  13.061  17.066
    1HEX    C08 6107   8.589  13.189  17.136
    1HEX    O09 6108   8.523  13.310  17.101
    1HEX    C0A 6109   8.458  13.379  17.196
    1HEX    O0B 6110   8.412  13.332  17.300
    1HEX    C0C 6111   8.451  13.528  17.166
    1HEX    C0D 6112   8.462  13.610  17.296
    1HEX    C0F 6113   8.384  13.060  17.067
    1HEX    O0G 6114   8.337  12.938  17.010
    1HEX    C0H 6115   8.286  12.935  16.886
    1HEX    O0I 6116   8.253  13.032  16.819
    1HEX    C0J 6117   8.276  12.793  16.831
    1HEX    C0K 6118   8.156  12.718  16.889
    1HEX    C0N 6119   8.585  12.930  17.141
    1HEX    O0O 6120   8.722  12.913  17.184
    1HEX    C0P 6121   8.788  12.994  17.283
    1HEX    C0Q 6122   8.753  12.982  17.435
    1HEX    C0R 6123   8.787  12.839   0.044
    1HEX    O0S 6124   8.928  12.815   0.039
    1HEX    C0T 6125   9.000  12.808   0.154
    1HEX    O0U 6126   8.955  12.817   0.268
    1HEX    C0V 6127   9.148  12.785   0.129
    1HEX    C0W 6128   9.231  12.915   0.121
    1HEX    C0Y 6129   8.843  13.085   0.067
    1HEX    O0Z 6130   8.821  13.082   0.207
    1HEX    C10 6131   8.908  13.139   0.289
    1HEX    O11 6132   9.009  13.200   0.255
    1HEX    C12 6133   8.866  13.122   0.434
    1HEX    C13 6134   8.973  13.172   0.532
    1HEX    C15 6135   8.605  13.021   0.027
    1HEX    O16 6136   8.567  13.001   0.163
    1HEX    C17 6137   8.493  12.895   0.199
    1HEX    O18 6138   8.460  12.802   0.125
    1HEX    C19 6139   8.447  12.903   0.343
    1HEX    C1A 6140   8.366  13.031   0.366
    1HEX    H1C 6141   9.205  12.930  16.635
    1HEX    H1D 6142   8.969  12.836  16.697
    1HEX    H1E 6143   8.962  13.011  16.691
    1HEX    H1F 6144   8.968  13.017  16.946
    1HEX    H1G 6145   8.966  12.841  16.947
    1HEX    H1H 6146   8.541  12.988  16.859
    1HEX    H1I 6147   8.564  13.159  16.873
    1HEX    H1J 6148   8.693  13.206  17.110
    1HEX    H1K 6149   8.586  13.175  17.244
    1HEX    H1M 6150   8.360  13.552  17.112
    1HEX    H1N 6151   8.534  13.552  17.100
    1HEX    H1O 6152   8.537  13.568  17.363
    1HEX    H1P 6153   8.367  13.609  17.350
    1HEX    H1Q 6154   8.637  13.758  17.228
    1HEX    H1R 6155   8.344  13.147  17.015
    1HEX    H1S 6156   8.346  13.068  17.169
    1HEX    H1T 6157   8.369  12.741  16.853
    1HEX    H1U 6158   8.269  12.800  16.722
    1HEX    H1V 6159   8.063  12.769  16.866
    1HEX    H1W 6160   8.164  12.713  16.998
    1HEX    H1X 6161   8.138  12.584  16.693
    1HEX    H1Y 6162   8.571  12.848  17.071
    1HEX    H1Z 6163   8.515  12.902  17.219
    1HEX    H20 6164   8.796  13.097  17.252
    1HEX    H21 6165   8.892  12.961  17.274
    1HEX    H22 6166   8.736  12.765  17.422
    1HEX    H23 6167   8.749  12.823   0.145
    1HEX    H24 6168   9.157  12.730   0.035
    1HEX    H25 6169   9.187  12.720   0.207
    1HEX    H26 6170   9.184  12.988   0.055
    1HEX    H27 6171   9.329  12.894   0.080
    1HEX    H28 6172   9.142  13.063   0.285
    1HEX    H29 6173   8.825  13.187   0.032
    1HEX    H2A 6174   8.949  13.066   0.046
    1HEX    H2B 6175   8.846  13.017   0.451
    1HEX    H2C 6176   8.773  13.176   0.448
    1HEX    H2D 6177   9.005  13.274   0.507
    1HEX    H2E 6178   9.062  13.109   0.527
    1HEX    H2F 6179   8.809  13.261   0.680
    1HEX    H2G 6180   8.534  12.969  17.405
    1HEX    H2H 6181   8.589  13.127   0.010
    1HEX    H2I 6182   8.536  12.901   0.407
    1HEX    H2J 6183   8.389  12.814   0.366
    1HEX    H2K 6184   8.280  13.034   0.299
    1HEX    H2M 6185   8.426  13.119   0.344
    1HEX    H2N 6186   8.223  12.937   0.532
    1STR    S00 6187   9.178  12.935  16.766
    1STR    S0E 6188   8.509  13.782  17.258
    1STR    S0M 6189   8.153  12.550  16.821
    1STR    S0X 6190   9.255  12.990   0.285
    1STR    S14 6191   8.905  13.170   0.700
    1STR    S1B 6192   8.310  13.039   0.538
    1HEX    C01 6193   8.998  12.927   3.670
    1HEX    C02 6194   8.936  12.929   3.810
    1HEX    C03 6195   8.784  12.930   3.800
    1HEX    O04 6196   8.722  12.830   3.763
    1HEX    O05 6197   8.731  13.048   3.834
    1HEX    C06 6198   8.590  13.064   3.840
    1HEX    C07 6199   8.540  13.061   3.986
    1HEX    C08 6200   8.589  13.189   4.056
    1HEX    O09 6201   8.523  13.310   4.021
    1HEX    C0A 6202   8.458  13.379   4.116
    1HEX    O0B 6203   8.412  13.332   4.220
    1HEX    C0C 6204   8.451  13.528   4.086
    1HEX    C0D 6205   8.462  13.610   4.216
    1HEX    C0F 6206   8.384  13.060   3.987
    1HEX    O0G 6207   8.337  12.938   3.930
    1HEX    C0H 6208   8.286  12.935   3.806
    1HEX    O0I 6209   8.253  13.032   3.739
    1HEX    C0J 6210   8.276  12.793   3.751
    1HEX    C0K 6211   8.156  12.718   3.809
    1HEX    C0N 6212   8.585  12.930   4.061
    1HEX    O0O 6213   8.722  12.913   4.104
    1HEX    C0P 6214   8.788  12.994   4.203
    1HEX    C0Q 6215   8.753  12.982   4.355
    1HEX    C0R 6216   8.787  12.839   4.404
    1HEX    O0S 6217   8.928  12.815   4.399
    1HEX    C0T 6218   9.000  12.808   4.514
    1HEX    O0U 6219   8.955  12.817   4.628
    1HEX    C0V 6220   9.148  12.785   4.489
    1HEX    C0W 6221   9.231  12.915   4.481
    1HEX    C0Y 6222   8.843  13.085   4.427
    1HEX    O0Z 6223   8.821  13.082   4.567
    1HEX    C10 6224   8.908  13.139   4.649
    1HEX    O11 6225   9.009  13.200   4.615
    1HEX    C12 6226   8.866  13.122   4.794
    1HEX    C13 6227   8.973  13.172   4.892
    1HEX    C15 6228   8.605  13.021   4.387
    1HEX    O16 6229   8.567  13.001   4.523
    1HEX    C17 6230   8.493  12.895   4.558
    1HEX    O18 6231   8.460  12.802   4.485
    1HEX    C19 6232   8.447  12.903   4.703
    1HEX    C1A 6233   8.366  13.031   4.726
    1HEX    H1C 6234   9.205  12.930   3.555
    1HEX    H1D 6235   8.969  12.836   3.617
    1HEX    H1E 6236   8.962  13.011   3.611
    1HEX    H1F 6237   8.968  13.017   3.866
    1HEX    H1G 6238   8.966  12.841   3.867
    1HEX    H1H 6239   8.541  12.988   3.779
    1HEX    H1I 6240   8.564  13.159   3.793
    1HEX    H1J 6241   8.693  13.206   4.030
    1HEX    H1K 6242   8.586  13.175   4.164
    1HEX    H1M 6243   8.360  13.552   4.032
    1HEX    H1N 6244   8.534  13.552   4.020
    1HEX    H1O 6245   8.537  13.568   4.283
    1HEX    H1P 6246   8.367  13.609   4.270
    1HEX    H1Q 6247   8.637  13.758   4.148
    1HEX    H1R 6248   8.344  13.147   3.935
    1HEX    H1S 6249   8.346  13.068   4.089
    1HEX    H1T 6250   8.369  12.741   3.773
    1HEX    H1U 6251   8.269  12.800   3.642
    1HEX    H1V 6252   8.063  12.769   3.786
    1HEX    H1W 6253   8.164  12.713   3.918
    1HEX    H1X 6254   8.138  12.584   3.613
    1HEX    H1Y 6255   8.571  12.848   3.991
    1HEX    H1Z 6256   8.515  12.902   4.139
    1HEX    H20 6257   8.796  13.097   4.172
    1HEX    H21 6258   8.892  12.961   4.194
    1HEX    H22 6259   8.736  12.765   4.342
    1HEX    H23 6260   8.749  12.823   4.505
    1HEX    H24 6261   9.157  12.730   4.395
    1HEX    H25 6262   9.187  12.720   4.567
    1HEX    H26 6263   9.184  12.988   4.415
    1HEX    H27 6264   9.329  12.894   4.440
    1HEX    H28 6265   9.142  13.063   4.645
    1HEX    H29 6266   8.825  13.187   4.392
    1HEX    H2A 6267   8.949  13.066   4.406
    1HEX    H2B 6268   8.846  13.017   4.811
    1HEX    H2C 6269   8.773  13.176   4.808
    1HEX    H2D 6270   9.005  13.274   4.867
    1HEX    H2E 6271   9.062  13.109   4.887
    1HEX    H2F 6272   8.809  13.261   5.040
    1HEX    H2G 6273   8.534  12.969   4.325
    1HEX    H2H 6274   8.589  13.127   4.370
    1HEX    H2I 6275   8.536  12.901   4.767
    1HEX    H2J 6276   8.389  12.814   4.726
    1HEX    H2K 6277   8.280  13.034   4.659
    1HEX    H2M 6278   8.426  13.119   4.704
    1HEX    H2N 6279   8.223  12.937   4.893
    1STR    S00 6280   9.178  12.935   3.686
    1STR    S0E 6281   8.509  13.782   4.178
    1STR    S0M 6282   8.153  12.550   3.741
    1STR    S0X 6283   9.255  12.990   4.645
    1STR    S14 6284   8.905  13.170   5.060
    1STR    S1B 6285   8.310  13.039   4.898
    1HEX    C01 6286   8.927  13.073   9.001
    1HEX    C02 6287   8.950  13.133   8.846
    1HEX    C03 6288   8.911  13.061   8.706
    1HEX    O04 6289   8.968  12.958   8.672
    1HEX    O05 6290   8.819  13.126   8.616
    1HEX    C06 6291   8.775  13.079   8.481
    1HEX    C07 6292   8.618  13.071   8.442
    1HEX    C08 6293   8.540  13.184   8.513
    1HEX    O09 6294   8.543  13.313   8.455
    1HEX    C0A 6295   8.454  13.402   8.502
    1HEX    O0B 6296   8.362  13.378   8.580
    1HEX    C0C 6297   8.477  13.544   8.453
    1HEX    C0D 6298   8.482  13.638   8.575
    1HEX    C0F 6299   8.579  13.082   8.288
    1HEX    O0G 6300   8.530  12.962   8.223
    1HEX    C0H 6301   8.402  12.956   8.171
    1HEX    O0I 6302   8.320  13.047   8.170
    1HEX    C0J 6303   8.363  12.820   8.111
    1HEX    C0K 6304   8.228  12.768   8.165
    1HEX    C0N 6305   8.552  12.938   8.488
    1HEX    O0O 6306   8.518  12.943   8.624
    1HEX    C0P 6307   8.616  12.890   8.708
    1HEX    C0Q 6308   8.597  12.948   8.850
    1HEX    C0R 6309   8.692  12.862   8.939
    1HEX    O0S 6310   8.815  12.824   8.874
    1HEX    C0T 6311   8.902  12.739   8.937
    1HEX    O0U 6312   8.883  12.694   9.050
    1HEX    C0V 6313   9.028  12.705   8.858
    1HEX    C0W 6314   9.155  12.794   8.875
    1HEX    C0Y 6315   8.616  13.105   8.856
    1HEX    O0Z 6316   8.655  13.177   8.973
    1HEX    C10 6317   8.703  13.306   8.958
    1HEX    O11 6318   8.722  13.364   8.851
    1HEX    C12 6319   8.738  13.378   9.088
    1HEX    C13 6320   8.883  13.431   9.097
    1HEX    C15 6321   8.449  12.922   8.882
    1HEX    O16 6322   8.425  12.948   9.017
    1HEX    C17 6323   8.406  12.847   9.102
    1HEX    O18 6324   8.408  12.727   9.073
    1HEX    C19 6325   8.379  12.896   9.242
    1HEX    C1A 6326   8.320  13.038   9.241
    1HEX    H1D 6327   8.939  12.967   9.002
    1HEX    H1E 6328   9.030  13.102   9.017
    1HEX    H1F 6329   8.928  13.238   8.836
    1HEX    H1G 6330   9.058  13.130   8.829
    1HEX    H1H 6331   8.823  12.984   8.457
    1HEX    H1I 6332   8.821  13.149   8.411
    1HEX    H1J 6333   8.577  13.197   8.614
    1HEX    H1K 6334   8.435  13.154   8.524
    1HEX    H1M 6335   8.396  13.572   8.386
    1HEX    H1N 6336   8.570  13.547   8.397
    1HEX    H1O 6337   8.550  13.598   8.651
    1HEX    H1P 6338   8.384  13.643   8.622
    1HEX    H1Q 6339   8.663  13.771   8.499
    1HEX    H1R 6340   8.660  13.124   8.228
    1HEX    H1S 6341   8.501  13.158   8.277
    1HEX    H1T 6342   8.442  12.748   8.131
    1HEX    H1U 6343   8.357  12.830   8.002
    1HEX    H1V 6344   8.145  12.831   8.133
    1HEX    H1W 6345   8.228  12.770   8.274
    1HEX    H1X 6346   8.163  12.623   7.984
    1HEX    H1Y 6347   8.609  12.849   8.459
    1HEX    H1Z 6348   8.454  12.925   8.441
    1HEX    H20 6349   8.716  12.908   8.670
    1HEX    H21 6350   8.607  12.781   8.709
    1HEX    H22 6351   8.642  12.768   8.963
    1HEX    H23 6352   8.710  12.910   9.036
    1HEX    H24 6353   9.002  12.700   8.752
    1HEX    H25 6354   9.055  12.603   8.887
    1HEX    H26 6355   9.149  12.885   8.816
    1HEX    H27 6356   9.240  12.740   8.834
    1HEX    H28 6357   9.130  12.949   9.057
    1HEX    H29 6358   8.527  13.155   8.819
    1HEX    H2A 6359   8.689  13.132   8.784
    1HEX    H2B 6360   8.718  13.304   9.164
    1HEX    H2C 6361   8.668  13.460   9.103
    1HEX    H2D 6362   8.897  13.520   9.036
    1HEX    H2E 6363   8.956  13.359   9.060
    1HEX    H2F 6364   8.902  13.350   9.323
    1HEX    H2G 6365   8.418  12.821   8.851
    1HEX    H2H 6366   8.385  12.988   8.824
    1HEX    H2I 6367   8.473  12.894   9.298
    1HEX    H2J 6368   8.311  12.824   9.287
    1HEX    H2K 6369   8.255  13.053   9.154
    1HEX    H2M 6370   8.400  13.112   9.232
    1HEX    H2N 6371   8.128  12.974   9.361
    1STR    S00 6372   8.940  13.126   9.189
    1STR    S0E 6373   8.535  13.803   8.524
    1STR    S0M 6374   8.199  12.597   8.111
    1STR    S0X 6375   9.201  12.837   9.046
    1STR    S14 6376   8.925  13.471   9.270
    1STR    S1B 6377   8.221  13.065   9.390
    1HEX    C01 6378   8.965  12.960  12.322
    1HEX    C02 6379   8.926  12.946  12.471
    1HEX    C03 6380   8.776  12.938  12.495
    1HEX    O04 6381   8.714  12.834  12.473
    1HEX    O05 6382   8.726  13.053  12.541
    1HEX    C06 6383   8.585  13.067  12.556
    1HEX    C07 6384   8.539  13.062  12.704
    1HEX    C08 6385   8.590  13.190  12.774
    1HEX    O09 6386   8.524  13.311  12.740
    1HEX    C0A 6387   8.459  13.379  12.835
    1HEX    O0B 6388   8.415  13.332  12.940
    1HEX    C0C 6389   8.452  13.529  12.806
    1HEX    C0D 6390   8.463  13.611  12.936
    1HEX    C0F 6391   8.384  13.061  12.707
    1HEX    O0G 6392   8.337  12.939  12.651
    1HEX    C0H 6393   8.283  12.936  12.528
    1HEX    O0I 6394   8.248  13.034  12.462
    1HEX    C0J 6395   8.276  12.795  12.471
    1HEX    C0K 6396   8.157  12.718  12.528
    1HEX    C0N 6397   8.587  12.932  12.778
    1HEX    O0O 6398   8.723  12.915  12.821
    1HEX    C0P 6399   8.788  12.995  12.922
    1HEX    C0Q 6400   8.752  12.983  13.074
    1HEX    C0R 6401   8.787  12.840  13.123
    1HEX    O0S 6402   8.928  12.815  13.119
    1HEX    C0T 6403   8.999  12.808  13.234
    1HEX    O0U 6404   8.954  12.817  13.348
    1HEX    C0V 6405   9.148  12.785  13.209
    1HEX    C0W 6406   9.230  12.915  13.202
    1HEX    C0Y 6407   8.842  13.086  13.146
    1HEX    O0Z 6408   8.820  13.082  13.286
    1HEX    C10 6409   8.907  13.139  13.368
    1HEX    O11 6410   9.010  13.198  13.334
    1HEX    C12 6411   8.866  13.122  13.514
    1HEX    C13 6412   8.973  13.173  13.612
    1HEX    C15 6413   8.604  13.020  13.106
    1HEX    O16 6414   8.566  13.001  13.242
    1HEX    C17 6415   8.493  12.895  13.278
    1HEX    O18 6416   8.461  12.801  13.206
    1HEX    C19 6417   8.448  12.903  13.423
    1HEX    C1A 6418   8.366  13.031  13.446
    1HEX    H1D 6419   8.925  12.864  12.288
    1HEX    H1E 6420   8.955  13.067  12.312
    1HEX    H1F 6421   8.966  13.029  12.529
    1HEX    H1G 6422   8.970  12.856  12.513
    1HEX    H1H 6423   8.534  12.992  12.496
    1HEX    H1I 6424   8.557  13.162  12.511
    1HEX    H1J 6425   8.694  13.206  12.746
    1HEX    H1K 6426   8.588  13.175  12.881
    1HEX    H1M 6427   8.360  13.552  12.752
    1HEX    H1N 6428   8.535  13.553  12.740
    1HEX    H1O 6429   8.537  13.568  13.003
    1HEX    H1P 6430   8.368  13.609  12.990
    1HEX    H1Q 6431   8.637  13.759  12.867
    1HEX    H1R 6432   8.343  13.148  12.656
    1HEX    H1S 6433   8.347  13.068  12.810
    1HEX    H1T 6434   8.370  12.744  12.492
    1HEX    H1U 6435   8.268  12.802  12.362
    1HEX    H1V 6436   8.063  12.768  12.505
    1HEX    H1W 6437   8.164  12.712  12.637
    1HEX    H1X 6438   8.140  12.585  12.331
    1HEX    H1Y 6439   8.573  12.850  12.706
    1HEX    H1Z 6440   8.518  12.902  12.855
    1HEX    H20 6441   8.796  13.098  12.892
    1HEX    H21 6442   8.892  12.962  12.913
    1HEX    H22 6443   8.736  12.765  13.062
    1HEX    H23 6444   8.748  12.824  13.224
    1HEX    H24 6445   9.157  12.730  13.116
    1HEX    H25 6446   9.186  12.720  13.288
    1HEX    H26 6447   9.183  12.988  13.136
    1HEX    H27 6448   9.329  12.894  13.160
    1HEX    H28 6449   9.143  13.063  13.366
    1HEX    H29 6450   8.823  13.188  13.112
    1HEX    H2A 6451   8.948  13.066  13.125
    1HEX    H2B 6452   8.846  13.017  13.531
    1HEX    H2C 6453   8.773  13.176  13.527
    1HEX    H2D 6454   9.005  13.274  13.586
    1HEX    H2E 6455   9.062  13.109  13.606
    1HEX    H2F 6456   8.808  13.261  13.760
    1HEX    H2G 6457   8.533  12.967  13.044
    1HEX    H2H 6458   8.587  13.126  13.087
    1HEX    H2I 6459   8.536  12.902  13.487
    1HEX    H2J 6460   8.389  12.814  13.447
    1HEX    H2K 6461   8.280  13.034  13.379
    1HEX    H2M 6462   8.426  13.119  13.424
    1HEX    H2N 6463   8.224  12.937  13.613
    1STR    S00 6464   8.847  12.981  12.181
    1STR    S0E 6465   8.509  13.782  12.898
    1STR    S0M 6466   8.156  12.550  12.459
    1STR    S0X 6467   9.256  12.990  13.366
    1STR    S14 6468   8.905  13.170  13.780
    1STR    S1B 6469   8.310  13.039  13.618
    1HEX    C01 6470  13.358  17.286  16.750
    1HEX    C02 6471  13.296  17.289  16.890
    1HEX    C03 6472  13.144  17.289  16.880
    1HEX    O04 6473  13.082  17.190  16.843
    1HEX    O05 6474  13.091  17.408  16.914
    1HEX    C06 6475  12.950  17.423  16.920
    1HEX    C07 6476  12.900  17.420  17.066
    1HEX    C08 6477  12.949   0.109  17.136
    1HEX    O09 6478  12.883   0.230  17.101
    1HEX    C0A 6479  12.818   0.298  17.195
    1HEX    O0B 6480  12.772   0.251  17.300
    1HEX    C0C 6481  12.811   0.448  17.166
    1HEX    C0D 6482  12.822   0.530  17.296
    1HEX    C0F 6483  12.744  17.419  17.067
    1HEX    O0G 6484  12.697  17.297  17.010
    1HEX    C0H 6485  12.646  17.294  16.886
    1HEX    O0I 6486  12.613  17.392  16.819
    1HEX    C0J 6487  12.636  17.153  16.831
    1HEX    C0K 6488  12.516  17.077  16.889
    1HEX    C0N 6489  12.945  17.290  17.141
    1HEX    O0O 6490  13.082  17.272  17.184
    1HEX    C0P 6491  13.148  17.353  17.283
    1HEX    C0Q 6492  13.113  17.342  17.435
    1HEX    C0R 6493  13.147  17.199   0.044
    1HEX    O0S 6494  13.288  17.174   0.039
    1HEX    C0T 6495  13.360  17.167   0.154
    1HEX    O0U 6496  13.315  17.176   0.268
    1HEX    C0V 6497  13.508  17.145   0.129
    1HEX    C0W 6498  13.591  17.275   0.121
    1HEX    C0Y 6499  13.203   0.005   0.067
    1HEX    O0Z 6500  13.181   0.001   0.207
    1HEX    C10 6501  13.268   0.059   0.289
    1HEX    O11 6502  13.369   0.119   0.255
    1HEX    C12 6503  13.227   0.042   0.434
    1HEX    C13 6504  13.333   0.092   0.532
    1HEX    C15 6505  12.965  17.380   0.027
    1HEX    O16 6506  12.927  17.360   0.163
    1HEX    C17 6507  12.853  17.254   0.199
    1HEX    O18 6508  12.820  17.161   0.125
    1HEX    C19 6509  12.807  17.262   0.343
    1HEX    C1A 6510  12.726  17.390   0.366
    1HEX    H1C 6511  13.565  17.290  16.635
    1HEX    H1D 6512  13.329  17.195  16.697
    1HEX    H1E 6513  13.322  17.371  16.691
    1HEX    H1F 6514  13.328  17.376  16.946
    1HEX    H1G 6515  13.326  17.201  16.947
    1HEX    H1H 6516  12.901  17.348  16.859
    1HEX    H1I 6517  12.924   0.078  16.873
    1HEX    H1J 6518  13.053   0.126  17.110
    1HEX    H1K 6519  12.946   0.095  17.244
    1HEX    H1M 6520  12.720   0.471  17.112
    1HEX    H1N 6521  12.894   0.471  17.100
    1HEX    H1O 6522  12.897   0.487  17.363
    1HEX    H1P 6523  12.728   0.528  17.350
    1HEX    H1Q 6524  12.997   0.678  17.228
    1HEX    H1R 6525  12.704   0.067  17.014
    1HEX    H1S 6526  12.706  17.427  17.168
    1HEX    H1T 6527  12.729  17.101  16.853
    1HEX    H1U 6528  12.629  17.159  16.722
    1HEX    H1V 6529  12.423  17.129  16.865
    1HEX    H1W 6530  12.524  17.072  16.998
    1HEX    H1X 6531  12.498  16.943  16.693
    1HEX    H1Y 6532  12.931  17.208  17.071
    1HEX    H1Z 6533  12.875  17.261  17.219
    1HEX    H20 6534  13.156   0.017  17.252
    1HEX    H21 6535  13.252  17.320  17.274
    1HEX    H22 6536  13.096  17.125  17.422
    1HEX    H23 6537  13.109  17.183   0.145
    1HEX    H24 6538  13.518  17.090   0.035
    1HEX    H25 6539  13.547  17.080   0.207
    1HEX    H26 6540  13.544  17.348   0.055
    1HEX    H27 6541  13.689  17.254   0.080
    1HEX    H28 6542  13.502  17.422   0.285
    1HEX    H29 6543  13.185   0.107   0.032
    1HEX    H2A 6544  13.309  17.425   0.046
    1HEX    H2B 6545  13.207  17.376   0.451
    1HEX    H2C 6546  13.132   0.095   0.448
    1HEX    H2D 6547  13.365   0.194   0.507
    1HEX    H2E 6548  13.422   0.029   0.527
    1HEX    H2F 6549  13.168   0.180   0.680
    1HEX    H2G 6550  12.894  17.329  17.405
    1HEX    H2H 6551  12.949   0.046   0.009
    1HEX    H2I 6552  12.896  17.260   0.407
    1HEX    H2J 6553  12.749  17.173   0.366
    1HEX    H2K 6554  12.640  17.393   0.299
    1HEX    H2M 6555  12.786   0.038   0.344
    1HEX    H2N 6556  12.584  17.296   0.533
    1STR    S00 6557  13.538  17.295  16.766
    1STR    S0E 6558  12.869   0.701  17.258
    1STR    S0M 6559  12.513  16.909  16.821
    1STR    S0X 6560  13.615  17.350   0.285
    1STR    S14 6561  13.265   0.090   0.700
    1STR    S1B 6562  12.670  17.398   0.538
    1HEX    C01 6563  13.357  17.285   3.674
    1HEX    C02 6564  13.299  17.285   3.816
    1HEX    C03 6565  13.148  17.279   3.812
    1HEX    O04 6566  13.089  17.176   3.780
    1HEX    O05 6567  13.091  17.397   3.841
    1HEX    C06 6568  12.950  17.410   3.844
    1HEX    C07 6569  12.896  17.431   3.988
    1HEX    C08 6570  12.947   0.128   4.039
    1HEX    O09 6571  12.887   0.244   3.984
    1HEX    C0A 6572  12.805   0.317   4.061
    1HEX    O0B 6573  12.737   0.273   4.153
    1HEX    C0C 6574  12.809   0.465   4.030
    1HEX    C0D 6575  12.826   0.547   4.160
    1HEX    C0F 6576  12.740  17.430   3.983
    1HEX    O0G 6577  12.695  17.304   3.931
    1HEX    C0H 6578  12.643  17.296   3.807
    1HEX    O0I 6579  12.608  17.390   3.737
    1HEX    C0J 6580  12.636  17.153   3.755
    1HEX    C0K 6581  12.515  17.077   3.811
    1HEX    C0N 6582  12.938  17.315   4.084
    1HEX    O0O 6583  13.076  17.302   4.122
    1HEX    C0P 6584  13.143  17.393   4.211
    1HEX    C0Q 6585  13.112  17.392   4.364
    1HEX    C0R 6586  13.132  17.245   4.414
    1HEX    O0S 6587  13.269  17.205   4.404
    1HEX    C0T 6588  13.343  17.180   4.516
    1HEX    O0U 6589  13.300  17.181   4.631
    1HEX    C0V 6590  13.489  17.147   4.486
    1HEX    C0W 6591  13.582  17.270   4.482
    1HEX    C0Y 6592  13.218   0.038   4.434
    1HEX    O0Z 6593  13.197   0.027   4.573
    1HEX    C10 6594  13.289   0.072   4.657
    1HEX    O11 6595  13.394   0.128   4.626
    1HEX    C12 6596  13.248   0.047   4.801
    1HEX    C13 6597  13.351   0.099   4.902
    1HEX    C15 6598  12.970   0.013   4.403
    1HEX    O16 6599  12.970   0.146   4.462
    1HEX    C17 6600  12.852   0.213   4.481
    1HEX    O18 6601  12.746   0.177   4.430
    1HEX    C19 6602  12.851   0.323   4.590
    1HEX    C1A 6603  12.916   0.465   4.569
    1HEX    H1C 6604  13.561  17.291   3.553
    1HEX    H1D 6605  13.327  17.195   3.620
    1HEX    H1E 6606  13.319  17.370   3.617
    1HEX    H1F 6607  13.330  17.374   3.871
    1HEX    H1G 6608  13.335  17.198   3.872
    1HEX    H1H 6609  12.903  17.324   3.796
    1HEX    H1I 6610  12.922   0.055   3.781
    1HEX    H1J 6611  13.052   0.137   4.012
    1HEX    H1K 6612  12.942   0.133   4.147
    1HEX    H1M 6613  12.719   0.494   3.978
    1HEX    H1N 6614  12.893   0.483   3.963
    1HEX    H1O 6615  12.900   0.501   4.226
    1HEX    H1P 6616  12.733   0.549   4.215
    1HEX    H1Q 6617  13.009   0.689   4.102
    1HEX    H1R 6618  12.703   0.074   3.924
    1HEX    H1S 6619  12.698   0.005   4.082
    1HEX    H1T 6620  12.729  17.102   3.781
    1HEX    H1U 6621  12.632  17.157   3.647
    1HEX    H1V 6622  12.422  17.129   3.785
    1HEX    H1W 6623  12.520  17.072   3.920
    1HEX    H1X 6624  12.498  16.942   3.614
    1HEX    H1Y 6625  12.916  17.221   4.032
    1HEX    H1Z 6626  12.874  17.309   4.171
    1HEX    H20 6627  13.148   0.055   4.175
    1HEX    H21 6628  13.247  17.360   4.201
    1HEX    H22 6629  13.073  17.175   4.354
    1HEX    H23 6630  13.095  17.233   4.516
    1HEX    H24 6631  13.493  17.095   4.390
    1HEX    H25 6632  13.525  17.076   4.561
    1HEX    H26 6633  13.541  17.349   4.419
    1HEX    H27 6634  13.679  17.242   4.439
    1HEX    H28 6635  13.514  17.427   4.647
    1HEX    H29 6636  13.211   0.143   4.404
    1HEX    H2A 6637  13.319   0.006   4.408
    1HEX    H2B 6638  13.232  17.379   4.813
    1HEX    H2C 6639  13.151   0.095   4.815
    1HEX    H2D 6640  13.383   0.200   4.876
    1HEX    H2E 6641  13.440   0.036   4.900
    1HEX    H2F 6642  13.178   0.187   5.040
    1HEX    H2G 6643  12.922  17.387   4.475
    1HEX    H2H 6644  12.903   0.013   4.318
    1HEX    H2I 6645  12.902   0.275   4.673
    1HEX    H2J 6646  12.748   0.334   4.625
    1HEX    H2K 6647  12.945   0.499   4.668
    1HEX    H2M 6648  13.010   0.456   4.514
    1STR    S00 6649  13.538  17.295   3.684
    1STR    S0E 6650  12.879   0.716   4.120
    1STR    S0M 6651  12.514  16.909   3.743
    1STR    S0X 6652  13.614  17.337   4.648
    1STR    S14 6653  13.275   0.100   5.067
    1STR    S1B 6654  12.819   0.612   4.504
    1HEX    C01 6655  13.362  17.289   8.025
    1HEX    C02 6656  13.296  17.297   8.163
    1HEX    C03 6657  13.145  17.303   8.148
    1HEX    O04 6658  13.081  17.207   8.105
    1HEX    O05 6659  13.095  17.422   8.186
    1HEX    C06 6660  12.954  17.439   8.196
    1HEX    C07 6661  12.908  17.429   8.344
    1HEX    C08 6662  12.951   0.115   8.420
    1HEX    O09 6663  12.887   0.236   8.382
    1HEX    C0A 6664  12.815   0.303   8.473
    1HEX    O0B 6665  12.763   0.255   8.573
    1HEX    C0C 6666  12.810   0.453   8.445
    1HEX    C0D 6667  12.822   0.533   8.576
    1HEX    C0F 6668  12.753  17.417   8.348
    1HEX    O0G 6669  12.712  17.294   8.289
    1HEX    C0H 6670  12.651  17.291   8.169
    1HEX    O0I 6671  12.610  17.388   8.107
    1HEX    C0J 6672  12.640  17.150   8.112
    1HEX    C0K 6673  12.519  17.076   8.169
    1HEX    C0N 6674  12.967  17.302   8.414
    1HEX    O0O 6675  13.104  17.305   8.462
    1HEX    C0P 6676  13.150  17.370   8.583
    1HEX    C0Q 6677  13.116  17.305   8.721
    1HEX    C0R 6678  13.173  17.160   8.717
    1HEX    O0S 6679  13.315  17.171   8.697
    1HEX    C0T 6680  13.401  17.095   8.766
    1HEX    O0U 6681  13.371  17.004   8.842
    1HEX    C0V 6682  13.548  17.126   8.736
    1HEX    C0W 6683  13.594  17.270   8.768
    1HEX    C0Y 6684  13.186  17.378   8.840
    1HEX    O0Z 6685  13.143  17.316   8.962
    1HEX    C10 6686  13.217  17.227   9.031
    1HEX    O11 6687  13.339  17.229   9.038
    1HEX    C12 6688  13.131  17.127   9.111
    1HEX    C13 6689  13.159  16.973   9.089
    1HEX    C15 6690  12.961  17.314   8.742
    1HEX    O16 6691  12.910  17.295   8.873
    1HEX    C17 6692  12.812  17.206   8.897
    1HEX    O18 6693  12.770  17.121   8.819
    1HEX    C19 6694  12.749  17.222   9.035
    1HEX    C1A 6695  12.720  17.370   9.069
    1HEX    H1C 6696  13.573  17.289   7.916
    1HEX    H1D 6697  13.334  17.197   7.974
    1HEX    H1E 6698  13.329  17.372   7.962
    1HEX    H1F 6699  13.330  17.384   8.219
    1HEX    H1G 6700  13.320  17.209   8.223
    1HEX    H1H 6701  12.902  17.367   8.133
    1HEX    H1I 6702  12.927   0.097   8.155
    1HEX    H1J 6703  13.057   0.130   8.404
    1HEX    H1K 6704  12.937   0.098   8.527
    1HEX    H1M 6705  12.719   0.478   8.391
    1HEX    H1N 6706  12.894   0.477   8.379
    1HEX    H1O 6707  12.897   0.488   8.642
    1HEX    H1P 6708  12.727   0.531   8.630
    1HEX    H1Q 6709  12.997   0.680   8.508
    1HEX    H1R 6710  12.706   0.063   8.299
    1HEX    H1S 6711  12.716  17.420   8.450
    1HEX    H1T 6712  12.732  17.097   8.134
    1HEX    H1U 6713  12.633  17.158   8.004
    1HEX    H1V 6714  12.426  17.130   8.146
    1HEX    H1W 6715  12.526  17.069   8.277
    1HEX    H1X 6716  12.497  16.945   7.970
    1HEX    H1Y 6717  12.966  17.222   8.340
    1HEX    H1Z 6718  12.896  17.262   8.484
    1HEX    H20 6719  13.130   0.037   8.586
    1HEX    H21 6720  13.258  17.369   8.572
    1HEX    H22 6721  13.129  17.103   8.635
    1HEX    H23 6722  13.147  17.106   8.807
    1HEX    H24 6723  13.562  17.106   8.630
    1HEX    H25 6724  13.610  17.054   8.790
    1HEX    H26 6725  13.521  17.343   8.735
    1HEX    H27 6726  13.686  17.290   8.714
    1HEX    H28 6727  13.504  17.276   8.991
    1HEX    H29 6728  13.158   0.043   8.843
    1HEX    H2A 6729  13.295  17.376   8.832
    1HEX    H2B 6730  13.027  17.151   9.093
    1HEX    H2C 6731  13.151  17.153   9.215
    1HEX    H2D 6732  13.176  16.930   9.188
    1HEX    H2E 6733  13.253  16.958   9.038
    1HEX    H2G 6734  12.913  17.242   8.677
    1HEX    H2H 6735  12.927  17.413   8.713
    1HEX    H2I 6736  12.817  17.180   9.109
    1HEX    H2J 6737  12.659  17.163   9.039
    1HEX    H2K 6738  12.640  17.408   9.005
    1HEX    H2M 6739  12.807  17.432   9.051
    1HEX    H2N 6740  12.562  17.308   9.237
    1STR    S00 6741  13.542  17.297   8.046
    1STR    S0E 6742  12.870   0.705   8.541
    1STR    S0M 6743  12.512  16.909   8.098
    1STR    S0X 6744  13.629  17.296   8.944
    1STR    S14 6745  13.027  16.865   9.012
    1STR    S1B 6746  12.673  17.383   9.243
    1HEX    C01 6747  13.431  17.298  12.345
    1HEX    C02 6748  13.358  17.301  12.480
    1HEX    C03 6749  13.208  17.299  12.461
    1HEX    O04 6750  13.154  17.212  12.392
    1HEX    O05 6751  13.145  17.395  12.532
    1HEX    C06 6752  13.003  17.391  12.546
    1HEX    C07 6753  12.953  17.330  12.682
    1HEX    C08 6754  12.914   0.005  12.780
    1HEX    O09 6755  12.866  17.398  12.907
    1HEX    C0A 6756  12.764  17.307  12.926
    1HEX    O0B 6757  12.650  17.315  12.881
    1HEX    C0C 6758  12.807  17.196  13.022
    1HEX    C0D 6759  12.799  17.038  13.005
    1HEX    C0F 6760  12.817  17.260  12.647
    1HEX    O0G 6761  12.800  17.188  12.526
    1HEX    C0H 6762  12.687  17.210  12.455
    1HEX    O0I 6763  12.627  17.316  12.446
    1HEX    C0J 6764  12.632  17.083  12.393
    1HEX    C0K 6765  12.516  17.030  12.479
    1HEX    C0N 6766  13.062  17.233  12.747
    1HEX    O0O 6767  13.087  17.231  12.891
    1HEX    C0P 6768  13.184  17.318  12.954
    1HEX    C0Q 6769  13.199  17.297  13.111
    1HEX    C0R 6770  13.263  17.159  13.140
    1HEX    O0S 6771  13.405  17.159  13.136
    1HEX    C0T 6772  13.473  17.148  13.252
    1HEX    O0U 6773  13.426  17.137  13.365
    1HEX    C0V 6774  13.624  17.153  13.232
    1HEX    C0W 6775  13.675  17.296  13.209
    1HEX    C0Y 6776  13.284  17.414  13.169
    1HEX    O0Z 6777  13.284  17.405  13.310
    1HEX    C10 6778  13.303   0.074  13.384
    1HEX    O11 6779  13.351   0.180  13.344
    1HEX    C12 6780  13.249   0.057  13.525
    1HEX    C13 6781  13.350   0.101  13.632
    1HEX    C15 6782  13.060  17.296  13.180
    1HEX    O16 6783  13.041  17.305  13.321
    1HEX    C17 6784  12.933  17.241  13.375
    1HEX    O18 6785  12.868  17.150  13.323
    1HEX    C19 6786  12.884  17.298  13.507
    1HEX    C1A 6787  12.773  17.400  13.480
    1HEX    H1C 6788  13.649  17.294  12.251
    1HEX    H1D 6789  13.404  17.208  12.289
    1HEX    H1E 6790  13.403  17.384  12.285
    1HEX    H1F 6791  13.386  17.389  12.537
    1HEX    H1G 6792  13.385  17.213  12.539
    1HEX    H1H 6793  12.962  17.337  12.460
    1HEX    H1I 6794  12.964   0.052  12.530
    1HEX    H1J 6795  12.842   0.075  12.736
    1HEX    H1K 6796  13.002   0.067  12.798
    1HEX    H1M 6797  12.774  17.230  13.119
    1HEX    H1N 6798  12.910  17.212  13.011
    1HEX    H1O 6799  12.791  17.003  13.108
    1HEX    H1P 6800  12.706  17.011  12.957
    1HEX    H1R 6801  12.738  17.335  12.654
    1HEX    H1S 6802  12.794  17.184  12.721
    1HEX    H1T 6803  12.713  17.010  12.387
    1HEX    H1U 6804  12.599  17.105  12.291
    1HEX    H1V 6805  12.427  17.093  12.468
    1HEX    H1W 6806  12.542  17.032  12.585
    1HEX    H1X 6807  12.450  16.885  12.302
    1HEX    H1Y 6808  13.160  17.240  12.702
    1HEX    H1Z 6809  13.031  17.132  12.721
    1HEX    H20 6810  13.155  17.421  12.934
    1HEX    H21 6811  13.281  17.304  12.906
    1HEX    H22 6812  13.225  17.085  13.069
    1HEX    H23 6813  13.227  17.121  13.237
    1HEX    H24 6814  13.646  17.089  13.146
    1HEX    H25 6815  13.672  17.107  13.318
    1HEX    H26 6816  13.617  17.345  13.131
    1HEX    H27 6817  13.778  17.293  13.175
    1HEX    H28 6818  13.533  17.390  13.375
    1HEX    H29 6819  13.241   0.070  13.139
    1HEX    H2A 6820  13.386  17.412  13.132
    1HEX    H2B 6821  13.222  17.393  13.540
    1HEX    H2C 6822  13.158   0.116  13.531
    1HEX    H2D 6823  13.385   0.203  13.613
    1HEX    H2E 6824  13.438   0.036  13.630
    1HEX    H2F 6825  13.176   0.187  13.771
    1HEX    H2G 6826  13.027  17.195  13.158
    1HEX    H2H 6827  12.995  17.371  13.134
    1HEX    H2I 6828  12.967  17.339  13.565
    1HEX    H2J 6829  12.844  17.214  13.565
    1HEX    H2K 6830  12.704  17.363  13.404
    1HEX    H2M 6831  12.816   0.053  13.441
    1HEX    H2N 6832  12.603  17.324  13.628
    1STR    S00 6833  13.610  17.299  12.378
    1STR    S0E 6834  12.941  16.933  12.935
    1STR    S0M 6835  12.478  16.860  12.430
    1STR    S0X 6836  13.666  17.394  13.362
    1STR    S14 6837  13.269   0.093  13.794
    1STR    S1B 6838  12.678  17.434  13.631
    1HEX    C01 6839  13.273   3.938  16.883
    1HEX    C02 6840  13.198   3.970  17.015
    1HEX    C03 6841  13.063   4.042  16.997
    1HEX    O04 6842  12.960   3.976  16.986
    1HEX    O05 6843  13.069   4.179  16.989
    1HEX    C06 6844  12.953   4.258  16.953
    1HEX    C07 6845  12.868   4.323  17.068
    1HEX    C08 6846  12.911   4.468  17.104
    1HEX    O09 6847  12.845   4.585  17.056
    1HEX    C0A 6848  12.781   4.663  17.148
    1HEX    O0B 6849  12.715   4.621  17.243
    1HEX    C0C 6850  12.810   4.812  17.134
    1HEX    C0D 6851  12.825   4.880  17.272
    1HEX    C0F 6852  12.719   4.330  17.027
    1HEX    O0G 6853  12.673   4.203  16.981
    1HEX    C0H 6854  12.629   4.189  16.855
    1HEX    O0I 6855  12.598   4.280  16.778
    1HEX    C0J 6856  12.625   4.044  16.810
    1HEX    C0K 6857  12.506   3.971  16.874
    1HEX    C0N 6858  12.884   4.237  17.196
    1HEX    O0O 6859  13.019   4.226  17.243
    1HEX    C0P 6860  13.090   4.337  17.301
    1HEX    C0Q 6861  13.149   4.299  17.437
    1HEX    C0R 6862  13.243   4.177  17.408
    1HEX    O0S 6863  13.300   4.172  17.273
    1HEX    C0T 6864  13.396   4.258  17.227
    1HEX    O0U 6865  13.455   4.339  17.298
    1HEX    C0V 6866  13.431   4.246  17.076
    1HEX    C0W 6867  13.344   4.329  16.973
    1HEX    C0Y 6868  13.229   4.422   0.054
    1HEX    O0Z 6869  13.157   4.527   0.122
    1HEX    C10 6870  13.227   4.640   0.161
    1HEX    O11 6871  13.344   4.663   0.132
    1HEX    C12 6872  13.149   4.734   0.256
    1HEX    C13 6873  13.205   4.879   0.281
    1HEX    C15 6874  13.017   4.266   0.077
    1HEX    O16 6875  13.011   4.224   0.213
    1HEX    C17 6876  12.897   4.157   0.248
    1HEX    O18 6877  12.830   4.085   0.175
    1HEX    C19 6878  12.845   4.188   0.388
    1HEX    C1A 6879  12.747   4.306   0.381
    1HEX    H1C 6880  13.488   3.999  16.803
    1HEX    H1D 6881  13.234   3.848  16.836
    1HEX    H1E 6882  13.260   4.016  16.809
    1HEX    H1F 6883  13.257   4.030  17.082
    1HEX    H1G 6884  13.181   3.877  17.068
    1HEX    H1H 6885  12.890   4.194  16.892
    1HEX    H1I 6886  12.982   4.336  16.884
    1HEX    H1J 6887  13.018   4.481  17.090
    1HEX    H1K 6888  12.891   4.474  17.210
    1HEX    H1M 6889  12.730   4.858  17.076
    1HEX    H1N 6890  12.902   4.823  17.077
    1HEX    H1O 6891  12.899   4.828  17.334
    1HEX    H1P 6892  12.730   4.875  17.327
    1HEX    H1Q 6893  13.003   5.033  17.227
    1HEX    H1R 6894  12.707   4.407  16.950
    1HEX    H1S 6895  12.657   4.363  17.110
    1HEX    H1T 6896  12.719   3.996  16.838
    1HEX    H1U 6897  12.618   4.043  16.702
    1HEX    H1V 6898  12.413   4.024  16.854
    1HEX    H1W 6899  12.519   3.966  16.982
    1HEX    H1X 6900  12.479   3.839  16.677
    1HEX    H1Y 6901  12.849   4.135  17.174
    1HEX    H1Z 6902  12.818   4.270  17.277
    1HEX    H20 6903  13.034   4.426  17.325
    1HEX    H21 6904  13.165   4.369  17.230
    1HEX    H22 6905  13.184   4.086  17.418
    1HEX    H23 6906  13.321   4.168   0.043
    1HEX    H24 6907  13.432   4.141  17.053
    1HEX    H25 6908  13.536   4.275  17.067
    1HEX    H26 6909  13.242   4.335  17.009
    1HEX    H27 6910  13.380   4.432  16.972
    1HEX    H29 6911  13.282   4.470  17.412
    1HEX    H2A 6912  13.308   4.387   0.121
    1HEX    H2B 6913  13.154   4.681   0.352
    1HEX    H2C 6914  13.044   4.736   0.229
    1HEX    H2D 6915  13.315   4.877   0.286
    1HEX    H2E 6916  13.174   4.910   0.381
    1HEX    H2G 6917  12.963   4.192   0.019
    1HEX    H2H 6918  12.953   4.355   0.075
    1HEX    H2I 6919  12.928   4.206   0.456
    1HEX    H2J 6920  12.793   4.099   0.423
    1HEX    H2K 6921  12.670   4.288   0.306
    1HEX    H2M 6922  12.800   4.397   0.350
    1HEX    H2N 6923  12.589   4.226   0.540
    1STR    S00 6924  13.452   3.919  16.904
    1STR    S0E 6925  12.874   5.054  17.254
    1STR    S0M 6926  12.499   3.803  16.805
    1STR    S0X 6927  13.342   4.264  16.797
    1STR    S14 6928  13.149   5.015   0.167
    1STR    S1B 6929  12.669   4.333   0.542
    1HEX    C01 6930  13.344   4.210   3.670
    1HEX    C02 6931  13.278   4.216   3.809
    1HEX    C03 6932  13.127   4.201   3.798
    1HEX    O04 6933  13.077   4.098   3.755
    1HEX    O05 6934  13.059   4.310   3.842
    1HEX    C06 6935  12.918   4.302   3.859
    1HEX    C07 6936  12.878   4.291   4.009
    1HEX    C08 6937  12.883   4.434   4.071
    1HEX    O09 6938  12.757   4.504   4.074
    1HEX    C0A 6939  12.694   4.527   4.193
    1HEX    O0B 6940  12.732   4.483   4.302
    1HEX    C0C 6941  12.573   4.621   4.184
    1HEX    C0D 6942  12.468   4.601   4.298
    1HEX    C0F 6943  12.733   4.234   4.020
    1HEX    O0G 6944  12.732   4.091   4.008
    1HEX    C0H 6945  12.701   4.031   3.892
    1HEX    O0I 6946  12.650   4.087   3.796
    1HEX    C0J 6947  12.741   3.883   3.887
    1HEX    C0K 6948  12.682   3.794   4.000
    1HEX    C0N 6949  12.969   4.185   4.083
    1HEX    O0O 6950  13.108   4.209   4.104
    1HEX    C0P 6951  13.157   4.299   4.203
    1HEX    C0Q 6952  13.125   4.275   4.354
    1HEX    C0R 6953  13.157   4.128   4.393
    1HEX    O0S 6954  13.298   4.102   4.392
    1HEX    C0T 6955  13.365   4.087   4.508
    1HEX    O0U 6956  13.317   4.090   4.621
    1HEX    C0V 6957  13.514   4.064   4.488
    1HEX    C0W 6958  13.597   4.195   4.482
    1HEX    C0Y 6959  13.218   4.372   4.432
    1HEX    O0Z 6960  13.193   4.362   4.570
    1HEX    C10 6961  13.275   4.422   4.656
    1HEX    O11 6962  13.375   4.486   4.625
    1HEX    C12 6963  13.230   4.402   4.799
    1HEX    C13 6964  13.334   4.452   4.900
    1HEX    C15 6965  12.979   4.313   4.391
    1HEX    O16 6966  12.940   4.282   4.524
    1HEX    C17 6967  12.857   4.179   4.549
    1HEX    O18 6968  12.822   4.093   4.468
    1HEX    C19 6969  12.804   4.183   4.691
    1HEX    C1A 6970  12.721   4.310   4.713
    1HEX    H1C 6971  13.555   4.210   3.561
    1HEX    H1D 6972  13.319   4.117   3.620
    1HEX    H1E 6973  13.308   4.292   3.607
    1HEX    H1F 6974  13.302   4.309   3.860
    1HEX    H1G 6975  13.314   4.135   3.871
    1HEX    H1H 6976  12.876   4.221   3.800
    1HEX    H1I 6977  12.874   4.392   3.815
    1HEX    H1J 6978  12.955   4.496   4.017
    1HEX    H1K 6979  12.924   4.432   4.170
    1HEX    H1M 6980  12.527   4.613   4.086
    1HEX    H1N 6981  12.614   4.721   4.191
    1HEX    H1O 6982  12.511   4.547   4.383
    1HEX    H1P 6983  12.438   4.697   4.339
    1HEX    H1R 6984  12.666   4.284   3.950
    1HEX    H1S 6985  12.693   4.257   4.119
    1HEX    H1T 6986  12.850   3.878   3.885
    1HEX    H1U 6987  12.708   3.845   3.790
    1HEX    H1V 6988  12.616   3.719   3.957
    1HEX    H1W 6989  12.620   3.855   4.065
    1HEX    H1Y 6990  12.971   4.098   4.018
    1HEX    H1Z 6991  12.922   4.144   4.172
    1HEX    H20 6992  13.137   4.402   4.173
    1HEX    H21 6993  13.265   4.290   4.192
    1HEX    H22 6994  13.108   4.058   4.325
    1HEX    H23 6995  13.115   4.105   4.491
    1HEX    H24 6996  13.526   4.009   4.395
    1HEX    H25 6997  13.551   4.000   4.567
    1HEX    H26 6998  13.551   4.267   4.414
    1HEX    H27 6999  13.696   4.173   4.442
    1HEX    H28 7000  13.504   4.342   4.644
    1HEX    H29 7001  13.202   4.475   4.401
    1HEX    H2A 7002  13.323   4.350   4.412
    1HEX    H2B 7003  13.209   4.296   4.814
    1HEX    H2C 7004  13.135   4.455   4.811
    1HEX    H2D 7005  13.366   4.553   4.876
    1HEX    H2E 7006  13.423   4.389   4.896
    1HEX    H2F 7007  13.165   4.539   5.044
    1HEX    H2G 7008  12.904   4.274   4.324
    1HEX    H2H 7009  12.968   4.422   4.385
    1HEX    H2I 7010  12.890   4.180   4.759
    1HEX    H2J 7011  12.745   4.093   4.710
    1HEX    H2K 7012  12.633   4.310   4.648
    1HEX    H2M 7013  12.779   4.398   4.686
    1HEX    H2N 7014  12.583   4.222   4.886
    1STR    S00 7015  13.524   4.223   3.690
    1STR    S0E 7016  12.315   4.514   4.246
    1STR    S0M 7017  12.803   3.705   4.108
    1STR    S0X 7018  13.618   4.270   4.646
    1STR    S14 7019  13.261   4.449   5.067
    1STR    S1B 7020  12.671   4.322   4.887
    1HEX    C01 7021  13.354   4.209   8.031
    1HEX    C02 7022  13.291   4.215   8.171
    1HEX    C03 7023  13.139   4.218   8.162
    1HEX    O04 7024  13.077   4.122   8.116
    1HEX    O05 7025  13.086   4.334   8.206
    1HEX    C06 7026  12.944   4.349   8.210
    1HEX    C07 7027  12.889   4.339   8.356
    1HEX    C08 7028  12.920   4.471   8.431
    1HEX    O09 7029  12.813   4.567   8.432
    1HEX    C0A 7030  12.735   4.582   8.542
    1HEX    O0B 7031  12.748   4.521   8.648
    1HEX    C0C 7032  12.627   4.688   8.526
    1HEX    C0D 7033  12.500   4.665   8.614
    1HEX    C0F 7034  12.734   4.323   8.349
    1HEX    O0G 7035  12.699   4.201   8.284
    1HEX    C0H 7036  12.643   4.203   8.162
    1HEX    O0I 7037  12.607   4.302   8.100
    1HEX    C0J 7038  12.632   4.064   8.103
    1HEX    C0K 7039  12.514   3.988   8.165
    1HEX    C0N 7040  12.943   4.210   8.427
    1HEX    O0O 7041  13.082   4.197   8.464
    1HEX    C0P 7042  13.148   4.281   8.559
    1HEX    C0Q 7043  13.117   4.267   8.712
    1HEX    C0R 7044  13.151   4.122   8.758
    1HEX    O0S 7045  13.292   4.097   8.755
    1HEX    C0T 7046  13.362   4.088   8.870
    1HEX    O0U 7047  13.316   4.095   8.984
    1HEX    C0V 7048  13.511   4.065   8.847
    1HEX    C0W 7049  13.593   4.196   8.841
    1HEX    C0Y 7050  13.210   4.368   8.784
    1HEX    O0Z 7051  13.187   4.362   8.924
    1HEX    C10 7052  13.272   4.420   9.007
    1HEX    O11 7053  13.373   4.482   8.975
    1HEX    C12 7054  13.228   4.402   9.152
    1HEX    C13 7055  13.334   4.452   9.252
    1HEX    C15 7056  12.971   4.306   8.750
    1HEX    O16 7057  12.935   4.279   8.885
    1HEX    C17 7058  12.856   4.175   8.915
    1HEX    O18 7059  12.823   4.084   8.839
    1HEX    C19 7060  12.806   4.182   9.059
    1HEX    C1A 7061  12.725   4.310   9.079
    1HEX    H1C 7062  13.562   4.208   7.917
    1HEX    H1D 7063  13.324   4.117   7.980
    1HEX    H1E 7064  13.319   4.292   7.970
    1HEX    H1F 7065  13.325   4.303   8.226
    1HEX    H1G 7066  13.319   4.128   8.230
    1HEX    H1H 7067  12.896   4.276   8.145
    1HEX    H1I 7068  12.917   4.445   8.167
    1HEX    H1J 7069  13.008   4.519   8.388
    1HEX    H1K 7070  12.947   4.451   8.533
    1HEX    H1M 7071  12.600   4.697   8.421
    1HEX    H1N 7072  12.674   4.783   8.554
    1HEX    H1O 7073  12.528   4.643   8.717
    1HEX    H1P 7074  12.442   4.756   8.617
    1HEX    H1R 7075  12.688   4.409   8.301
    1HEX    H1S 7076  12.692   4.320   8.450
    1HEX    H1T 7077  12.726   4.011   8.121
    1HEX    H1U 7078  12.621   4.073   7.995
    1HEX    H1V 7079  12.420   4.041   8.145
    1HEX    H1W 7080  12.526   3.982   8.273
    1HEX    H1X 7081  12.492   3.858   7.966
    1HEX    H1Y 7082  12.930   4.128   8.356
    1HEX    H1Z 7083  12.878   4.177   8.507
    1HEX    H20 7084  13.148   4.385   8.526
    1HEX    H21 7085  13.252   4.253   8.547
    1HEX    H22 7086  13.100   4.050   8.694
    1HEX    H23 7087  13.112   4.104   8.858
    1HEX    H24 7088  13.521   4.010   8.754
    1HEX    H25 7089  13.549   4.001   8.926
    1HEX    H26 7090  13.546   4.269   8.775
    1HEX    H27 7091  13.692   4.175   8.799
    1HEX    H28 7092  13.503   4.343   9.004
    1HEX    H29 7093  13.192   4.470   8.751
    1HEX    H2A 7094  13.315   4.347   8.763
    1HEX    H2B 7095  13.208   4.296   9.168
    1HEX    H2C 7096  13.134   4.456   9.164
    1HEX    H2D 7097  13.365   4.554   9.227
    1HEX    H2E 7098  13.422   4.389   9.247
    1HEX    H2F 7099  13.167   4.539   9.398
    1HEX    H2G 7100  12.896   4.263   8.686
    1HEX    H2H 7101  12.959   4.413   8.741
    1HEX    H2I 7102  12.893   4.180   9.125
    1HEX    H2J 7103  12.747   4.093   9.080
    1HEX    H2K 7104  12.638   4.312   9.013
    1HEX    H2M 7105  12.785   4.398   9.054
    1HEX    H2N 7106  12.585   4.221   9.250
    1STR    S00 7107  13.535   4.216   8.048
    1STR    S0E 7108  12.390   4.532   8.550
    1STR    S0M 7109  12.508   3.821   8.094
    1STR    S0X 7110  13.616   4.270   9.005
    1STR    S14 7111  13.263   4.449   9.419
    1STR    S1B 7112  12.672   4.323   9.252
    1HEX    C01 7113  13.411   4.271  12.314
    1HEX    C02 7114  13.376   4.344  12.443
    1HEX    C03 7115  13.229   4.383  12.452
    1HEX    O04 7116  13.157   4.393  12.353
    1HEX    O05 7117  13.194   4.404  12.579
    1HEX    C06 7118  13.066   4.452  12.612
    1HEX    C07 7119  13.023   4.390  12.747
    1HEX    C08 7120  12.894   4.469  12.794
    1HEX    O09 7121  12.917   4.613  12.788
    1HEX    C0A 7122  12.863   4.703  12.877
    1HEX    O0B 7123  12.791   4.672  12.972
    1HEX    C0C 7124  12.896   4.852  12.847
    1HEX    C0D 7125  12.885   4.951  12.969
    1HEX    C0F 7126  13.014   4.231  12.727
    1HEX    O0G 7127  13.131   4.157  12.782
    1HEX    C0H 7128  13.244   4.122  12.709
    1HEX    O0I 7129  13.242   4.112  12.587
    1HEX    C0J 7130  13.368   4.067  12.790
    1HEX    C0K 7131  13.473   4.153  12.878
    1HEX    C0N 7132  13.128   4.398  12.857
    1HEX    O0O 7133  13.137   4.505  12.947
    1HEX    C0P 7134  13.221   4.464  13.055
    1HEX    C0Q 7135  13.153   4.378  13.167
    1HEX    C0R 7136  13.172   4.222  13.154
    1HEX    O0S 7137  13.307   4.179  13.169
    1HEX    C0T 7138  13.333   4.074  13.252
    1HEX    O0U 7139  13.249   4.006  13.310
    1HEX    C0V 7140  13.481   4.044  13.267
    1HEX    C0W 7141  13.561   4.160  13.329
    1HEX    C0Y 7142  13.224   4.424  13.294
    1HEX    O0Z 7143  13.177   4.368  13.415
    1HEX    C10 7144  13.242   4.402  13.526
    1HEX    O11 7145  13.349   4.463  13.528
    1HEX    C12 7146  13.169   4.363  13.653
    1HEX    C13 7147  13.244   4.410  13.780
    1HEX    C15 7148  13.000   4.410  13.171
    1HEX    O16 7149  12.935   4.359  13.288
    1HEX    C17 7150  12.865   4.244  13.285
    1HEX    O18 7151  12.848   4.172  13.188
    1HEX    C19 7152  12.805   4.212  13.421
    1HEX    C1A 7153  12.710   4.325  13.465
    1HEX    H1C 7154  13.595   4.164  12.206
    1HEX    H1D 7155  13.342   4.188  12.296
    1HEX    H1E 7156  13.403   4.339  12.229
    1HEX    H1F 7157  13.436   4.433  12.457
    1HEX    H1G 7158  13.399   4.280  12.528
    1HEX    H1H 7159  12.992   4.428  12.535
    1HEX    H1I 7160  13.071   4.560  12.616
    1HEX    H1J 7161  12.865   4.441  12.895
    1HEX    H1K 7162  12.808   4.447  12.732
    1HEX    H1M 7163  12.830   4.886  12.768
    1HEX    H1N 7164  12.997   4.855  12.805
    1HEX    H1O 7165  12.887   4.894  13.062
    1HEX    H1P 7166  12.788   5.001  12.968
    1HEX    H1R 7167  12.997   4.203  12.623
    1HEX    H1S 7168  12.926   4.194  12.780
    1HEX    H1T 7169  13.423   4.001  12.721
    1HEX    H1U 7170  13.319   3.998  12.858
    1HEX    H1V 7171  13.490   4.089  12.964
    1HEX    H1W 7172  13.423   4.240  12.920
    1HEX    H1Y 7173  13.227   4.374  12.817
    1HEX    H1Z 7174  13.097   4.320  12.924
    1HEX    H20 7175  13.258   4.559  13.094
    1HEX    H21 7176  13.312   4.415  13.019
    1HEX    H22 7177  13.129   4.177  13.065
    1HEX    H23 7178  13.111   4.178  13.233
    1HEX    H24 7179  13.522   4.019  13.170
    1HEX    H25 7180  13.493   3.954  13.328
    1HEX    H26 7181  13.543   4.252  13.273
    1HEX    H27 7182  13.667   4.137  13.321
    1HEX    H28 7183  13.459   4.304  13.489
    1HEX    H29 7184  13.215   4.532  13.305
    1HEX    H2A 7185  13.331   4.402  13.285
    1HEX    H2B 7186  13.154   4.255  13.654
    1HEX    H2C 7187  13.071   4.409  13.647
    1HEX    H2D 7188  13.296   4.504  13.761
    1HEX    H2E 7189  13.322   4.339  13.806
    1HEX    H2G 7190  12.950   4.371  13.083
    1HEX    H2H 7191  12.984   4.517  13.168
    1HEX    H2I 7192  12.888   4.202  13.492
    1HEX    H2J 7193  12.754   4.116  13.417
    1HEX    H2K 7194  12.621   4.327  13.402
    1HEX    H2M 7195  12.759   4.422  13.454
    1HEX    H2N 7196  12.582   4.200  13.622
    1STR    S00 7197  13.581   4.209  12.331
    1STR    S0E 7198  13.019   5.079  12.984
    1STR    S0M 7199  13.654   4.199  12.830
    1STR    S0X 7200  13.521   4.185  13.504
    1STR    S14 7201  13.128   4.441  13.917
    1STR    S1B 7202  12.664   4.304  13.639
    1HEX    C01 7203  13.307   8.598  16.776
    1HEX    C02 7204  13.254   8.624  16.918
    1HEX    C03 7205  13.101   8.635  16.924
    1HEX    O04 7206  13.031   8.562  16.854
    1HEX    O05 7207  13.056   8.724  17.017
    1HEX    C06 7208  12.920   8.719  17.064
    1HEX    C07 7209  12.908   8.671  17.214
    1HEX    C08 7210  12.926   8.800  17.318
    1HEX    O09 7211  12.840   8.806  17.440
    1HEX    C0A 7212  12.843   8.866   0.137
    1HEX    O0B 7213  12.737   8.864   0.199
    1HEX    C0C 7214  12.966   8.929   0.217
    1HEX    C0D 7215  12.951   8.976   0.376
    1HEX    C0F 7216  12.765   8.601  17.230
    1HEX    O0G 7217  12.768   8.454  17.230
    1HEX    C0H 7218  12.751   8.380  17.117
    1HEX    O0I 7219  12.705   8.427  17.013
    1HEX    C0J 7220  12.805   8.233  17.118
    1HEX    C0K 7221  12.820   8.153  17.253
    1HEX    C0N 7222  13.006   8.546  17.220
    1HEX    O0O 7223  13.146   8.558  17.211
    1HEX    C0P 7224  13.213   8.622  17.316
    1HEX    C0Q 7225  13.181   8.583   0.024
    1HEX    C0R 7226  13.216   8.436   0.050
    1HEX    O0S 7227  13.357   8.417   0.045
    1HEX    C0T 7228  13.427   8.407   0.160
    1HEX    O0U 7229  13.380   8.401   0.273
    1HEX    C0V 7230  13.576   8.404   0.135
    1HEX    C0W 7231  13.640   8.544   0.123
    1HEX    C0Y 7232  13.272   8.683   0.098
    1HEX    O0Z 7233  13.250   8.661   0.234
    1HEX    C10 7234  13.305   8.738   0.322
    1HEX    O11 7235  13.369   8.841   0.300
    1HEX    C12 7236  13.282   8.679   0.459
    1HEX    C13 7237  13.368   8.744   0.565
    1HEX    C15 7238  13.037   8.608   0.078
    1HEX    O16 7239  12.999   8.559   0.207
    1HEX    C17 7240  12.878   8.502   0.223
    1HEX    O18 7241  12.806   8.456   0.134
    1HEX    C19 7242  12.830   8.502   0.368
    1HEX    C1A 7243  12.747   8.628   0.396
    1HEX    H1C 7244  13.510   8.567  16.653
    1HEX    H1D 7245  13.269   8.503  16.737
    1HEX    H1E 7246  13.276   8.676  16.707
    1HEX    H1F 7247  13.297   8.715  16.959
    1HEX    H1G 7248  13.283   8.543  16.984
    1HEX    H1H 7249  12.863   8.652  16.999
    1HEX    H1I 7250  12.874   8.816  17.047
    1HEX    H1J 7251  12.903   8.890  17.261
    1HEX    H1K 7252  13.030   8.818  17.343
    1HEX    H1M 7253  12.980   9.023   0.162
    1HEX    H1N 7254  13.060   8.878   0.205
    1HEX    H1O 7255  13.011   9.067   0.387
    1HEX    H1P 7256  12.849   9.011   0.391
    1HEX    H1R 7257  12.694   8.638  17.156
    1HEX    H1S 7258  12.721   8.630  17.326
    1HEX    H1T 7259  12.902   8.239  17.070
    1HEX    H1U 7260  12.742   8.177  17.049
    1HEX    H1V 7261  12.721   8.131  17.293
    1HEX    H1W 7262  12.871   8.213  17.328
    1HEX    H1Y 7263  12.987   8.488  17.129
    1HEX    H1Z 7264  12.985   8.471  17.296
    1HEX    H20 7265  13.209   8.729  17.296
    1HEX    H21 7266  13.317   8.597  17.297
    1HEX    H22 7267  13.168   8.371  17.416
    1HEX    H23 7268  13.176   8.403   0.146
    1HEX    H24 7269  13.592   8.348   0.044
    1HEX    H25 7270  13.623   8.348   0.216
    1HEX    H26 7271  13.587   8.605   0.050
    1HEX    H27 7272  13.742   8.535   0.087
    1HEX    H28 7273  13.520   8.678   0.283
    1HEX    H29 7274  13.248   8.787   0.073
    1HEX    H2A 7275  13.377   8.669   0.075
    1HEX    H2B 7276  13.302   8.573   0.453
    1HEX    H2C 7277  13.176   8.688   0.480
    1HEX    H2D 7278  13.352   8.852   0.564
    1HEX    H2E 7279  13.474   8.726   0.543
    1HEX    H2F 7280  13.220   8.757   0.747
    1HEX    H2G 7281  12.955   8.587   0.012
    1HEX    H2H 7282  13.032   8.713   0.090
    1HEX    H2I 7283  12.916   8.496   0.434
    1HEX    H2J 7284  12.770   8.413   0.383
    1HEX    H2K 7285  12.665   8.639   0.324
    1HEX    H2M 7286  12.810   8.716   0.386
    1HEX    H2N 7287  12.572   8.551   0.538
    1STR    S00 7288  13.489   8.591  16.783
    1STR    S0E 7289  12.996   8.876   0.536
    1STR    S0M 7290  12.910   7.989  17.231
    1STR    S0X 7291  13.646   8.632   0.282
    1STR    S14 7292  13.320   8.671   0.723
    1STR    S1B 7293  12.680   8.625   0.565
    1HEX    C01 7294  13.274   8.507   3.632
    1HEX    C02 7295  13.290   8.556   3.777
    1HEX    C03 7296  13.151   8.556   3.837
    1HEX    O04 7297  13.092   8.449   3.851
    1HEX    O05 7298  13.099   8.679   3.849
    1HEX    C06 7299  12.958   8.695   3.851
    1HEX    C07 7300  12.898   8.700   3.994
    1HEX    C08 7301  12.947   8.829   4.062
    1HEX    O09 7302  12.882   8.950   4.024
    1HEX    C0A 7303  12.816   9.020   4.117
    1HEX    O0B 7304  12.769   8.974   4.222
    1HEX    C0C 7305  12.810   9.169   4.086
    1HEX    C0D 7306  12.822   9.252   4.216
    1HEX    C0F 7307  12.743   8.703   3.984
    1HEX    O0G 7308  12.697   8.580   3.928
    1HEX    C0H 7309  12.645   8.576   3.804
    1HEX    O0I 7310  12.610   8.673   3.738
    1HEX    C0J 7311  12.637   8.435   3.749
    1HEX    C0K 7312  12.518   8.358   3.807
    1HEX    C0N 7313  12.934   8.571   4.077
    1HEX    O0O 7314  13.068   8.546   4.121
    1HEX    C0P 7315  13.142   8.630   4.210
    1HEX    C0Q 7316  13.112   8.623   4.362
    1HEX    C0R 7317  13.146   8.480   4.412
    1HEX    O0S 7318  13.286   8.455   4.405
    1HEX    C0T 7319  13.360   8.448   4.518
    1HEX    O0U 7320  13.317   8.458   4.633
    1HEX    C0V 7321  13.508   8.425   4.491
    1HEX    C0W 7322  13.591   8.554   4.482
    1HEX    C0Y 7323  13.205   8.727   4.430
    1HEX    O0Z 7324  13.183   8.725   4.570
    1HEX    C10 7325  13.270   8.781   4.652
    1HEX    O11 7326  13.373   8.840   4.618
    1HEX    C12 7327  13.228   8.764   4.797
    1HEX    C13 7328  13.335   8.814   4.895
    1HEX    C15 7329  12.966   8.664   4.397
    1HEX    O16 7330  12.928   8.642   4.532
    1HEX    C17 7331  12.854   8.536   4.566
    1HEX    O18 7332  12.822   8.442   4.492
    1HEX    C19 7333  12.806   8.543   4.709
    1HEX    C1A 7334  12.724   8.671   4.730
    1HEX    H1D 7335  13.317   8.408   3.618
    1HEX    H1E 7336  13.168   8.492   3.613
    1HEX    H1F 7337  13.333   8.656   3.785
    1HEX    H1G 7338  13.353   8.489   3.836
    1HEX    H1H 7339  12.913   8.615   3.792
    1HEX    H1I 7340  12.933   8.787   3.798
    1HEX    H1J 7341  13.051   8.846   4.036
    1HEX    H1K 7342  12.944   8.817   4.170
    1HEX    H1M 7343  12.719   9.192   4.032
    1HEX    H1N 7344  12.893   9.191   4.020
    1HEX    H1O 7345  12.895   9.208   4.283
    1HEX    H1P 7346  12.727   9.251   4.269
    1HEX    H1Q 7347  12.998   9.397   4.148
    1HEX    H1R 7348  12.709   8.790   3.927
    1HEX    H1S 7349  12.699   8.715   4.083
    1HEX    H1T 7350  12.731   8.384   3.772
    1HEX    H1U 7351  12.631   8.441   3.640
    1HEX    H1V 7352  12.424   8.409   3.783
    1HEX    H1W 7353  12.525   8.353   3.915
    1HEX    H1X 7354  12.501   8.224   3.610
    1HEX    H1Y 7355  12.913   8.486   4.011
    1HEX    H1Z 7356  12.860   8.551   4.153
    1HEX    H20 7357  13.151   8.732   4.175
    1HEX    H21 7358  13.245   8.595   4.197
    1HEX    H22 7359  13.093   8.406   4.351
    1HEX    H23 7360  13.109   8.465   4.513
    1HEX    H24 7361  13.516   8.369   4.397
    1HEX    H25 7362  13.548   8.360   4.569
    1HEX    H26 7363  13.543   8.627   4.416
    1HEX    H27 7364  13.689   8.532   4.439
    1HEX    H28 7365  13.504   8.702   4.647
    1HEX    H29 7366  13.186   8.828   4.394
    1HEX    H2A 7367  13.310   8.705   4.409
    1HEX    H2B 7368  13.208   8.658   4.813
    1HEX    H2C 7369  13.134   8.817   4.810
    1HEX    H2D 7370  13.367   8.915   4.869
    1HEX    H2E 7371  13.424   8.750   4.889
    1HEX    H2F 7372  13.169   8.901   5.042
    1HEX    H2G 7373  12.893   8.613   4.336
    1HEX    H2H 7374  12.950   8.770   4.378
    1HEX    H2I 7375  12.893   8.541   4.775
    1HEX    H2J 7376  12.747   8.454   4.731
    1HEX    H2K 7377  12.638   8.673   4.662
    1HEX    H2M 7378  12.784   8.759   4.708
    1HEX    H2N 7379  12.582   8.577   4.896
    1STR    S00 7380  13.333   8.624   3.507
    1STR    S0E 7381  12.870   9.422   4.177
    1STR    S0M 7382  12.517   8.190   3.739
    1STR    S0X 7383  13.618   8.630   4.645
    1STR    S14 7384  13.266   8.811   5.063
    1STR    S1B 7385  12.666   8.680   4.902
    1HEX    C01 7386  13.358   8.567   8.030
    1HEX    C02 7387  13.296   8.569   8.170
    1HEX    C03 7388  13.144   8.570   8.160
    1HEX    O04 7389  13.082   8.470   8.123
    1HEX    O05 7390  13.091   8.688   8.194
    1HEX    C06 7391  12.950   8.704   8.200
    1HEX    C07 7392  12.900   8.701   8.346
    1HEX    C08 7393  12.949   8.829   8.416
    1HEX    O09 7394  12.883   8.950   8.381
    1HEX    C0A 7395  12.818   9.019   8.476
    1HEX    O0B 7396  12.772   8.972   8.580
    1HEX    C0C 7397  12.811   9.168   8.446
    1HEX    C0D 7398  12.822   9.250   8.576
    1HEX    C0F 7399  12.744   8.700   8.347
    1HEX    O0G 7400  12.697   8.578   8.290
    1HEX    C0H 7401  12.646   8.574   8.166
    1HEX    O0I 7402  12.613   8.672   8.099
    1HEX    C0J 7403  12.636   8.433   8.111
    1HEX    C0K 7404  12.516   8.358   8.169
    1HEX    C0N 7405  12.946   8.570   8.421
    1HEX    O0O 7406  13.082   8.553   8.464
    1HEX    C0P 7407  13.148   8.634   8.563
    1HEX    C0Q 7408  13.113   8.622   8.715
    1HEX    C0R 7409  13.147   8.479   8.764
    1HEX    O0S 7410  13.288   8.454   8.759
    1HEX    C0T 7411  13.360   8.447   8.874
    1HEX    O0U 7412  13.315   8.456   8.988
    1HEX    C0V 7413  13.508   8.425   8.849
    1HEX    C0W 7414  13.591   8.555   8.841
    1HEX    C0Y 7415  13.203   8.725   8.787
    1HEX    O0Z 7416  13.181   8.722   8.927
    1HEX    C10 7417  13.268   8.779   9.009
    1HEX    O11 7418  13.369   8.840   8.975
    1HEX    C12 7419  13.226   8.762   9.154
    1HEX    C13 7420  13.333   8.812   9.252
    1HEX    C15 7421  12.965   8.661   8.747
    1HEX    O16 7422  12.927   8.641   8.883
    1HEX    C17 7423  12.853   8.535   8.918
    1HEX    O18 7424  12.820   8.441   8.845
    1HEX    C19 7425  12.807   8.543   9.063
    1HEX    C1A 7426  12.726   8.671   9.086
    1HEX    H1C 7427  13.565   8.570   7.915
    1HEX    H1D 7428  13.329   8.476   7.977
    1HEX    H1E 7429  13.322   8.651   7.971
    1HEX    H1F 7430  13.328   8.657   8.226
    1HEX    H1G 7431  13.326   8.481   8.227
    1HEX    H1H 7432  12.901   8.628   8.139
    1HEX    H1I 7433  12.924   8.799   8.153
    1HEX    H1J 7434  13.053   8.846   8.390
    1HEX    H1K 7435  12.946   8.815   8.524
    1HEX    H1M 7436  12.720   9.192   8.392
    1HEX    H1N 7437  12.894   9.192   8.380
    1HEX    H1O 7438  12.897   9.208   8.643
    1HEX    H1P 7439  12.727   9.249   8.630
    1HEX    H1Q 7440  12.997   9.398   8.508
    1HEX    H1R 7441  12.704   8.787   8.295
    1HEX    H1S 7442  12.706   8.708   8.449
    1HEX    H1T 7443  12.729   8.381   8.133
    1HEX    H1U 7444  12.629   8.440   8.002
    1HEX    H1V 7445  12.423   8.409   8.146
    1HEX    H1W 7446  12.524   8.353   8.278
    1HEX    H1X 7447  12.498   8.224   7.973
    1HEX    H1Y 7448  12.931   8.488   8.351
    1HEX    H1Z 7449  12.876   8.542   8.499
    1HEX    H20 7450  13.156   8.737   8.533
    1HEX    H21 7451  13.252   8.601   8.554
    1HEX    H22 7452  13.096   8.405   8.702
    1HEX    H23 7453  13.109   8.463   8.865
    1HEX    H24 7454  13.517   8.370   8.755
    1HEX    H25 7455  13.547   8.360   8.927
    1HEX    H26 7456  13.544   8.628   8.775
    1HEX    H27 7457  13.689   8.534   8.800
    1HEX    H28 7458  13.502   8.703   9.005
    1HEX    H29 7459  13.185   8.827   8.752
    1HEX    H2A 7460  13.309   8.705   8.766
    1HEX    H2B 7461  13.206   8.656   9.171
    1HEX    H2C 7462  13.133   8.816   9.168
    1HEX    H2D 7463  13.365   8.913   9.227
    1HEX    H2E 7464  13.422   8.748   9.247
    1HEX    H2F 7465  13.169   8.900   9.400
    1HEX    H2G 7466  12.894   8.609   8.685
    1HEX    H2H 7467  12.949   8.767   8.730
    1HEX    H2I 7468  12.896   8.540   9.127
    1HEX    H2J 7469  12.749   8.454   9.086
    1HEX    H2K 7470  12.640   8.674   9.019
    1HEX    H2M 7471  12.786   8.759   9.064
    1HEX    H2N 7472  12.583   8.577   9.253
    1STR    S00 7473  13.538   8.575   8.046
    1STR    S0E 7474  12.869   9.422   8.538
    1STR    S0M 7475  12.513   8.190   8.101
    1STR    S0X 7476  13.615   8.630   9.005
    1STR    S14 7477  13.265   8.810   9.420
    1STR    S1B 7478  12.670   8.679   9.258
    1HEX    C01 7479  13.350   8.568  12.386
    1HEX    C02 7480  13.286   8.569  12.525
    1HEX    C03 7481  13.135   8.553  12.515
    1HEX    O04 7482  13.084   8.446  12.481
    1HEX    O05 7483  13.069   8.665  12.549
    1HEX    C06 7484  12.928   8.660  12.570
    1HEX    C07 7485  12.896   8.656  12.721
    1HEX    C08 7486  12.928   8.796  12.779
    1HEX    O09 7487  12.847   8.908  12.742
    1HEX    C0A 7488  12.808   8.992  12.840
    1HEX    O0B 7489  12.780   8.958  12.955
    1HEX    C0C 7490  12.809   9.140  12.800
    1HEX    C0D 7491  12.820   9.232  12.924
    1HEX    C0F 7492  12.746   8.620  12.743
    1HEX    O0G 7493  12.729   8.477  12.741
    1HEX    C0H 7494  12.696   8.411  12.629
    1HEX    O0I 7495  12.647   8.465  12.529
    1HEX    C0J 7496  12.731   8.262  12.627
    1HEX    C0K 7497  12.734   8.183  12.762
    1HEX    C0N 7498  12.978   8.545  12.796
    1HEX    O0O 7499  13.117   8.565  12.825
    1HEX    C0P 7500  13.164   8.652  12.928
    1HEX    C0Q 7501  13.122   8.632  13.078
    1HEX    C0R 7502  13.153   8.486  13.121
    1HEX    O0S 7503  13.293   8.459  13.118
    1HEX    C0T 7504  13.363   8.448  13.233
    1HEX    O0U 7505  13.316   8.455  13.347
    1HEX    C0V 7506  13.511   8.424  13.210
    1HEX    C0W 7507  13.594   8.554  13.202
    1HEX    C0Y 7508  13.212   8.730  13.157
    1HEX    O0Z 7509  13.187   8.723  13.295
    1HEX    C10 7510  13.271   8.781  13.380
    1HEX    O11 7511  13.371   8.845  13.348
    1HEX    C12 7512  13.228   8.762  13.524
    1HEX    C13 7513  13.334   8.812  13.623
    1HEX    C15 7514  12.975   8.672  13.109
    1HEX    O16 7515  12.933   8.646  13.242
    1HEX    C17 7516  12.855   8.541  13.271
    1HEX    O18 7517  12.820   8.454  13.192
    1HEX    C19 7518  12.808   8.543  13.416
    1HEX    C1A 7519  12.726   8.670  13.442
    1HEX    H1C 7520  13.560   8.571  12.275
    1HEX    H1D 7521  13.323   8.476  12.333
    1HEX    H1E 7522  13.314   8.652  12.327
    1HEX    H1F 7523  13.309   8.661  12.579
    1HEX    H1G 7524  13.323   8.486  12.586
    1HEX    H1H 7525  12.883   8.577  12.516
    1HEX    H1I 7526  12.884   8.749  12.524
    1HEX    H1J 7527  13.028   8.824  12.747
    1HEX    H1K 7528  12.932   8.789  12.886
    1HEX    H1M 7529  12.720   9.163  12.741
    1HEX    H1N 7530  12.895   9.155  12.735
    1HEX    H1O 7531  12.895   9.195  12.994
    1HEX    H1P 7532  12.725   9.233  12.978
    1HEX    H1Q 7533  12.996   9.381  12.859
    1HEX    H1R 7534  12.681   8.670  12.670
    1HEX    H1S 7535  12.711   8.656  12.840
    1HEX    H1T 7536  12.829   8.257  12.580
    1HEX    H1U 7537  12.663   8.213  12.557
    1HEX    H1V 7538  12.651   8.112  12.765
    1HEX    H1W 7539  12.721   8.248  12.849
    1HEX    H1Y 7540  12.977   8.457  12.731
    1HEX    H1Z 7541  12.927   8.506  12.884
    1HEX    H20 7542  13.155   8.756  12.900
    1HEX    H21 7543  13.271   8.635  12.923
    1HEX    H22 7544  13.102   8.415  13.055
    1HEX    H23 7545  13.112   8.466  13.220
    1HEX    H24 7546  13.521   8.368  13.117
    1HEX    H25 7547  13.549   8.360  13.289
    1HEX    H26 7548  13.547   8.626  13.134
    1HEX    H27 7549  13.693   8.532  13.161
    1HEX    H28 7550  13.502   8.701  13.365
    1HEX    H29 7551  13.196   8.833  13.125
    1HEX    H2A 7552  13.318   8.710  13.138
    1HEX    H2B 7553  13.208   8.656  13.539
    1HEX    H2C 7554  13.133   8.815  13.537
    1HEX    H2D 7555  13.366   8.914  13.598
    1HEX    H2E 7556  13.423   8.749  13.618
    1HEX    H2F 7557  13.167   8.901  13.768
    1HEX    H2G 7558  12.901   8.629  13.042
    1HEX    H2H 7559  12.963   8.780  13.098
    1HEX    H2I 7560  12.896   8.539  13.480
    1HEX    H2J 7561  12.750   8.453  13.435
    1HEX    H2K 7562  12.639   8.674  13.377
    1HEX    H2M 7563  12.786   8.759  13.421
    1HEX    H2N 7564  12.586   8.574  13.610
    1STR    S00 7565  13.530   8.579  12.405
    1STR    S0E 7566  12.864   9.401  12.875
    1STR    S0M 7567  12.890   8.088  12.777
    1STR    S0X 7568  13.617   8.631  13.364
    1STR    S14 7569  13.263   8.811  13.790
    1STR    S1B 7570  12.673   8.675  13.616
    1HEX    C01 7571  13.358  12.927  16.750
    1HEX    C02 7572  13.296  12.929  16.890
    1HEX    C03 7573  13.144  12.930  16.880
    1HEX    O04 7574  13.082  12.830  16.843
    1HEX    O05 7575  13.091  13.048  16.914
    1HEX    C06 7576  12.950  13.064  16.920
    1HEX    C07 7577  12.900  13.061  17.066
    1HEX    C08 7578  12.949  13.189  17.136
    1HEX    O09 7579  12.883  13.310  17.101
    1HEX    C0A 7580  12.818  13.379  17.196
    1HEX    O0B 7581  12.772  13.332  17.300
    1HEX    C0C 7582  12.811  13.528  17.166
    1HEX    C0D 7583  12.822  13.610  17.296
    1HEX    C0F 7584  12.744  13.060  17.067
    1HEX    O0G 7585  12.697  12.938  17.010
    1HEX    C0H 7586  12.646  12.935  16.886
    1HEX    O0I 7587  12.613  13.032  16.819
    1HEX    C0J 7588  12.636  12.793  16.831
    1HEX    C0K 7589  12.516  12.718  16.889
    1HEX    C0N 7590  12.945  12.930  17.141
    1HEX    O0O 7591  13.082  12.913  17.184
    1HEX    C0P 7592  13.148  12.994  17.283
    1HEX    C0Q 7593  13.113  12.982  17.435
    1HEX    C0R 7594  13.147  12.839   0.044
    1HEX    O0S 7595  13.288  12.815   0.039
    1HEX    C0T 7596  13.360  12.808   0.154
    1HEX    O0U 7597  13.315  12.817   0.268
    1HEX    C0V 7598  13.508  12.785   0.129
    1HEX    C0W 7599  13.591  12.915   0.121
    1HEX    C0Y 7600  13.203  13.085   0.067
    1HEX    O0Z 7601  13.181  13.082   0.207
    1HEX    C10 7602  13.268  13.139   0.289
    1HEX    O11 7603  13.369  13.200   0.255
    1HEX    C12 7604  13.226  13.122   0.434
    1HEX    C13 7605  13.333  13.172   0.532
    1HEX    C15 7606  12.965  13.021   0.027
    1HEX    O16 7607  12.927  13.001   0.163
    1HEX    C17 7608  12.853  12.895   0.198
    1HEX    O18 7609  12.820  12.802   0.125
    1HEX    C19 7610  12.807  12.903   0.343
    1HEX    C1A 7611  12.726  13.031   0.366
    1HEX    H1C 7612  13.565  12.930  16.635
    1HEX    H1D 7613  13.329  12.836  16.697
    1HEX    H1E 7614  13.322  13.011  16.691
    1HEX    H1F 7615  13.328  13.017  16.946
    1HEX    H1G 7616  13.326  12.841  16.947
    1HEX    H1H 7617  12.901  12.988  16.859
    1HEX    H1I 7618  12.924  13.159  16.873
    1HEX    H1J 7619  13.053  13.206  17.110
    1HEX    H1K 7620  12.946  13.175  17.244
    1HEX    H1M 7621  12.720  13.552  17.112
    1HEX    H1N 7622  12.894  13.552  17.100
    1HEX    H1O 7623  12.897  13.568  17.363
    1HEX    H1P 7624  12.727  13.609  17.350
    1HEX    H1Q 7625  12.997  13.758  17.228
    1HEX    H1R 7626  12.704  13.147  17.015
    1HEX    H1S 7627  12.706  13.068  17.169
    1HEX    H1T 7628  12.729  12.741  16.853
    1HEX    H1U 7629  12.629  12.800  16.722
    1HEX    H1V 7630  12.423  12.769  16.866
    1HEX    H1W 7631  12.524  12.713  16.998
    1HEX    H1X 7632  12.498  12.584  16.693
    1HEX    H1Y 7633  12.931  12.848  17.071
    1HEX    H1Z 7634  12.876  12.902  17.219
    1HEX    H20 7635  13.156  13.097  17.252
    1HEX    H21 7636  13.252  12.961  17.274
    1HEX    H22 7637  13.096  12.765  17.422
    1HEX    H23 7638  13.109  12.823   0.145
    1HEX    H24 7639  13.517  12.730   0.035
    1HEX    H25 7640  13.547  12.720   0.207
    1HEX    H26 7641  13.544  12.988   0.055
    1HEX    H27 7642  13.689  12.894   0.080
    1HEX    H28 7643  13.502  13.063   0.285
    1HEX    H29 7644  13.185  13.187   0.032
    1HEX    H2A 7645  13.309  13.066   0.046
    1HEX    H2B 7646  13.206  13.017   0.451
    1HEX    H2C 7647  13.133  13.176   0.448
    1HEX    H2D 7648  13.365  13.274   0.507
    1HEX    H2E 7649  13.422  13.109   0.527
    1HEX    H2F 7650  13.169  13.261   0.680
    1HEX    H2G 7651  12.894  12.969  17.405
    1HEX    H2H 7652  12.949  13.127   0.010
    1HEX    H2I 7653  12.896  12.901   0.407
    1HEX    H2J 7654  12.749  12.814   0.366
    1HEX    H2K 7655  12.640  13.034   0.299
    1HEX    H2M 7656  12.786  13.119   0.344
    1HEX    H2N 7657  12.583  12.937   0.533
    1STR    S00 7658  13.538  12.935  16.766
    1STR    S0E 7659  12.869  13.782  17.258
    1STR    S0M 7660  12.513  12.550  16.821
    1STR    S0X 7661  13.615  12.990   0.285
    1STR    S14 7662  13.265  13.170   0.700
    1STR    S1B 7663  12.670  13.039   0.538
    1HEX    C01 7664  13.358  12.927   3.670
    1HEX    C02 7665  13.296  12.929   3.810
    1HEX    C03 7666  13.144  12.930   3.800
    1HEX    O04 7667  13.082  12.830   3.763
    1HEX    O05 7668  13.091  13.048   3.834
    1HEX    C06 7669  12.950  13.064   3.840
    1HEX    C07 7670  12.900  13.061   3.986
    1HEX    C08 7671  12.949  13.189   4.056
    1HEX    O09 7672  12.883  13.310   4.021
    1HEX    C0A 7673  12.818  13.379   4.116
    1HEX    O0B 7674  12.772  13.332   4.220
    1HEX    C0C 7675  12.811  13.528   4.086
    1HEX    C0D 7676  12.822  13.610   4.216
    1HEX    C0F 7677  12.744  13.060   3.987
    1HEX    O0G 7678  12.697  12.938   3.930
    1HEX    C0H 7679  12.646  12.935   3.806
    1HEX    O0I 7680  12.613  13.032   3.739
    1HEX    C0J 7681  12.636  12.793   3.751
    1HEX    C0K 7682  12.516  12.718   3.809
    1HEX    C0N 7683  12.945  12.930   4.061
    1HEX    O0O 7684  13.082  12.913   4.104
    1HEX    C0P 7685  13.148  12.994   4.203
    1HEX    C0Q 7686  13.113  12.982   4.355
    1HEX    C0R 7687  13.147  12.839   4.404
    1HEX    O0S 7688  13.288  12.815   4.399
    1HEX    C0T 7689  13.360  12.808   4.514
    1HEX    O0U 7690  13.315  12.817   4.628
    1HEX    C0V 7691  13.508  12.785   4.489
    1HEX    C0W 7692  13.591  12.915   4.481
    1HEX    C0Y 7693  13.203  13.085   4.427
    1HEX    O0Z 7694  13.181  13.082   4.567
    1HEX    C10 7695  13.268  13.139   4.649
    1HEX    O11 7696  13.369  13.200   4.615
    1HEX    C12 7697  13.226  13.122   4.794
    1HEX    C13 7698  13.333  13.172   4.892
    1HEX    C15 7699  12.965  13.021   4.387
    1HEX    O16 7700  12.927  13.001   4.523
    1HEX    C17 7701  12.853  12.895   4.558
    1HEX    O18 7702  12.820  12.802   4.485
    1HEX    C19 7703  12.807  12.903   4.703
    1HEX    C1A 7704  12.726  13.031   4.726
    1HEX    H1C 7705  13.565  12.930   3.555
    1HEX    H1D 7706  13.329  12.836   3.617
    1HEX    H1E 7707  13.322  13.011   3.611
    1HEX    H1F 7708  13.328  13.017   3.866
    1HEX    H1G 7709  13.326  12.841   3.867
    1HEX    H1H 7710  12.901  12.988   3.779
    1HEX    H1I 7711  12.924  13.159   3.793
    1HEX    H1J 7712  13.053  13.206   4.030
    1HEX    H1K 7713  12.946  13.175   4.164
    1HEX    H1M 7714  12.720  13.552   4.032
    1HEX    H1N 7715  12.894  13.552   4.020
    1HEX    H1O 7716  12.897  13.568   4.283
    1HEX    H1P 7717  12.727  13.609   4.270
    1HEX    H1Q 7718  12.997  13.758   4.148
    1HEX    H1R 7719  12.704  13.147   3.935
    1HEX    H1S 7720  12.706  13.068   4.089
    1HEX    H1T 7721  12.729  12.741   3.773
    1HEX    H1U 7722  12.629  12.800   3.642
    1HEX    H1V 7723  12.423  12.769   3.786
    1HEX    H1W 7724  12.524  12.713   3.918
    1HEX    H1X 7725  12.498  12.584   3.613
    1HEX    H1Y 7726  12.931  12.848   3.991
    1HEX    H1Z 7727  12.875  12.902   4.139
    1HEX    H20 7728  13.156  13.097   4.172
    1HEX    H21 7729  13.252  12.961   4.194
    1HEX    H22 7730  13.096  12.765   4.342
    1HEX    H23 7731  13.109  12.823   4.505
    1HEX    H24 7732  13.517  12.730   4.395
    1HEX    H25 7733  13.547  12.720   4.567
    1HEX    H26 7734  13.544  12.988   4.415
    1HEX    H27 7735  13.689  12.894   4.440
    1HEX    H28 7736  13.502  13.063   4.645
    1HEX    H29 7737  13.185  13.187   4.392
    1HEX    H2A 7738  13.309  13.066   4.406
    1HEX    H2B 7739  13.206  13.017   4.811
    1HEX    H2C 7740  13.133  13.176   4.808
    1HEX    H2D 7741  13.365  13.274   4.867
    1HEX    H2E 7742  13.422  13.109   4.887
    1HEX    H2F 7743  13.169  13.261   5.040
    1HEX    H2G 7744  12.894  12.969   4.325
    1HEX    H2H 7745  12.949  13.127   4.370
    1HEX    H2I 7746  12.896  12.901   4.767
    1HEX    H2J 7747  12.749  12.814   4.726
    1HEX    H2K 7748  12.640  13.034   4.659
    1HEX    H2M 7749  12.786  13.119   4.704
    1HEX    H2N 7750  12.583  12.937   4.893
    1STR    S00 7751  13.538  12.935   3.686
    1STR    S0E 7752  12.869  13.782   4.178
    1STR    S0M 7753  12.513  12.550   3.741
    1STR    S0X 7754  13.615  12.990   4.645
    1STR    S14 7755  13.265  13.170   5.060
    1STR    S1B 7756  12.670  13.039   4.898
    1HEX    C01 7757  13.350  12.931   8.036
    1HEX    C02 7758  13.291  12.937   8.177
    1HEX    C03 7759  13.139  12.939   8.173
    1HEX    O04 7760  13.076  12.839   8.138
    1HEX    O05 7761  13.087  13.059   8.206
    1HEX    C06 7762  12.946  13.077   8.207
    1HEX    C07 7763  12.889  13.083   8.351
    1HEX    C08 7764  12.928  13.217   8.416
    1HEX    O09 7765  12.856  13.333   8.379
    1HEX    C0A 7766  12.796  13.403   8.476
    1HEX    O0B 7767  12.748  13.356   8.579
    1HEX    C0C 7768  12.803  13.553   8.453
    1HEX    C0D 7769  12.828  13.628   8.585
    1HEX    C0F 7770  12.734  13.073   8.343
    1HEX    O0G 7771  12.697  12.946   8.288
    1HEX    C0H 7772  12.644  12.936   8.165
    1HEX    O0I 7773  12.606  13.030   8.096
    1HEX    C0J 7774  12.639  12.793   8.114
    1HEX    C0K 7775  12.518  12.717   8.170
    1HEX    C0N 7776  12.938  12.967   8.442
    1HEX    O0O 7777  13.074  12.964   8.489
    1HEX    C0P 7778  13.134  13.058   8.581
    1HEX    C0Q 7779  13.107  13.053   8.736
    1HEX    C0R 7780  13.248  13.069   8.802
    1HEX    O0S 7781  13.301  13.196   8.757
    1HEX    C0T 7782  13.352  13.291   8.842
    1HEX    O0U 7783  13.379  13.271   8.960
    1HEX    C0V 7784  13.386  13.426   8.774
    1HEX    C0W 7785  13.355  13.564   8.847
    1HEX    C0Y 7786  13.024  13.173   8.792
    1HEX    O0Z 7787  13.014  13.156   8.934
    1HEX    C10 7788  13.069  13.240   9.023
    1HEX    O11 7789  13.098  13.357   9.003
    1HEX    C12 7790  13.094  13.170   9.157
    1HEX    C13 7791  13.231  13.201   9.219
    1HEX    C15 7792  13.029  12.921   8.767
    1HEX    O16 7793  12.989  12.902   8.903
    1HEX    C17 7794  12.865  12.851   8.928
    1HEX    O18 7795  12.792  12.795   8.847
    1HEX    C19 7796  12.817  12.877   9.070
    1HEX    C1A 7797  12.741  13.010   9.076
    1HEX    H1C 7798  13.555  12.930   7.916
    1HEX    H1D 7799  13.320  12.838   7.986
    1HEX    H1E 7800  13.312  13.014   7.975
    1HEX    H1F 7801  13.326  13.026   8.230
    1HEX    H1G 7802  13.322  12.851   8.236
    1HEX    H1H 7803  12.898  12.999   8.148
    1HEX    H1I 7804  12.923  13.169   8.154
    1HEX    H1J 7805  13.031  13.239   8.389
    1HEX    H1K 7806  12.925  13.204   8.524
    1HEX    H1M 7807  12.711  13.587   8.404
    1HEX    H1N 7808  12.885  13.571   8.383
    1HEX    H1O 7809  12.900  13.574   8.648
    1HEX    H1P 7810  12.736  13.634   8.643
    1HEX    H1Q 7811  13.014  13.756   8.508
    1HEX    H1R 7812  12.692  13.156   8.285
    1HEX    H1S 7813  12.689  13.082   8.442
    1HEX    H1T 7814  12.732  12.743   8.140
    1HEX    H1U 7815  12.634  12.797   8.005
    1HEX    H1V 7816  12.425  12.769   8.145
    1HEX    H1W 7817  12.524  12.712   8.279
    1HEX    H1X 7818  12.499  12.584   7.973
    1HEX    H1Y 7819  12.927  12.875   8.384
    1HEX    H1Z 7820  12.867  12.952   8.523
    1HEX    H20 7821  13.139  13.161   8.547
    1HEX    H21 7822  13.238  13.029   8.567
    1HEX    H22 7823  13.314  12.987   8.773
    1HEX    H23 7824  13.242  13.061   8.911
    1HEX    H24 7825  13.351  13.425   8.671
    1HEX    H25 7826  13.495  13.418   8.766
    1HEX    H26 7827  13.449  13.619   8.852
    1HEX    H27 7828  13.328  13.546   8.951
    1HEX    H29 7829  12.923  13.176   8.751
    1HEX    H2A 7830  13.070  13.269   8.768
    1HEX    H2B 7831  13.084  13.062   9.144
    1HEX    H2C 7832  13.013  13.201   9.224
    1HEX    H2D 7833  13.263  13.304   9.198
    1HEX    H2E 7834  13.309  13.137   9.177
    1HEX    H2F 7835  13.147  13.282   9.427
    1HEX    H2G 7836  13.078  12.831   8.729
    1HEX    H2H 7837  12.937  12.929   8.712
    1HEX    H2I 7838  12.902  12.877   9.138
    1HEX    H2J 7839  12.752  12.795   9.100
    1HEX    H2K 7840  12.654  13.009   9.009
    1HEX    H2M 7841  12.804  13.092   9.041
    1HEX    H2N 7842  12.591  12.952   9.251
    1STR    S00 7843  13.531  12.940   8.047
    1STR    S0E 7844  12.893  13.794   8.553
    1STR    S0M 7845  12.515  12.549   8.101
    1STR    S0X 7846  13.236  13.690   8.770
    1STR    S14 7847  13.225  13.176   9.399
    1STR    S1B 7848  12.688  13.045   9.246
    1HEX    C01 7849  13.347  12.934  12.397
    1HEX    C02 7850  13.286  12.945  12.537
    1HEX    C03 7851  13.135  12.965  12.528
    1HEX    O04 7852  13.062  12.877  12.483
    1HEX    O05 7853  13.095  13.086  12.573
    1HEX    C06 7854  12.957  13.120  12.575
    1HEX    C07 7855  12.896  13.112  12.717
    1HEX    C08 7856  12.938  13.237  12.804
    1HEX    O09 7857  12.903  13.375  12.777
    1HEX    C0A 7858  12.925  13.469  12.879
    1HEX    O0B 7859  12.937  13.437  12.998
    1HEX    C0C 7860  12.936  13.619  12.838
    1HEX    C0D 7861  12.911  13.729  12.950
    1HEX    C0F 7862  12.741  13.106  12.702
    1HEX    O0G 7863  12.701  12.977  12.651
    1HEX    C0H 7864  12.650  12.962  12.527
    1HEX    O0I 7865  12.613  13.054  12.454
    1HEX    C0J 7866  12.648  12.817  12.480
    1HEX    C0K 7867  12.527  12.740  12.535
    1HEX    C0N 7868  12.935  12.975  12.785
    1HEX    O0O 7869  13.069  12.941  12.826
    1HEX    C0P 7870  13.145  13.010  12.926
    1HEX    C0Q 7871  13.114  12.991  13.078
    1HEX    C0R 7872  13.147  12.846  13.121
    1HEX    O0S 7873  13.288  12.821  13.116
    1HEX    C0T 7874  13.359  12.809  13.231
    1HEX    O0U 7875  13.314  12.815  13.345
    1HEX    C0V 7876  13.508  12.786  13.206
    1HEX    C0W 7877  13.591  12.916  13.201
    1HEX    C0Y 7878  13.206  13.091  13.151
    1HEX    O0Z 7879  13.185  13.084  13.291
    1HEX    C10 7880  13.272  13.140  13.373
    1HEX    O11 7881  13.374  13.200  13.340
    1HEX    C12 7882  13.229  13.123  13.518
    1HEX    C13 7883  13.335  13.173  13.617
    1HEX    C15 7884  12.967  13.028  13.114
    1HEX    O16 7885  12.930  13.004  13.249
    1HEX    C17 7886  12.855  12.898  13.282
    1HEX    O18 7887  12.821  12.807  13.207
    1HEX    C19 7888  12.808  12.904  13.427
    1HEX    C1A 7889  12.726  13.031  13.450
    1HEX    H1C 7890  13.554  12.925  12.281
    1HEX    H1D 7891  13.312  12.843  12.347
    1HEX    H1E 7892  13.316  13.018  12.335
    1HEX    H1F 7893  13.329  13.029  12.592
    1HEX    H1G 7894  13.306  12.855  12.595
    1HEX    H1H 7895  12.902  13.056  12.505
    1HEX    H1I 7896  12.945  13.220  12.534
    1HEX    H1J 7897  13.046  13.243  12.800
    1HEX    H1K 7898  12.910  13.214  12.907
    1HEX    H1M 7899  12.862  13.634  12.759
    1HEX    H1N 7900  13.033  13.634  12.791
    1HEX    H1O 7901  12.880  13.673  13.039
    1HEX    H1P 7902  12.824  13.789  12.926
    1HEX    H1R 7903  12.702  13.188  12.642
    1HEX    H1S 7904  12.693  13.116  12.800
    1HEX    H1T 7905  12.741  12.768  12.509
    1HEX    H1U 7906  12.646  12.817  12.371
    1HEX    H1V 7907  12.433  12.789  12.507
    1HEX    H1W 7908  12.531  12.735  12.644
    1HEX    H1X 7909  12.508  12.601  12.340
    1HEX    H1Y 7910  12.918  12.897  12.710
    1HEX    H1Z 7911  12.862  12.946  12.860
    1HEX    H20 7912  13.159  13.114  12.901
    1HEX    H21 7913  13.245  12.970  12.911
    1HEX    H22 7914  13.096  12.775  13.056
    1HEX    H23 7915  13.109  12.826  13.221
    1HEX    H24 7916  13.517  12.732  13.112
    1HEX    H25 7917  13.546  12.720  13.283
    1HEX    H26 7918  13.544  12.990  13.136
    1HEX    H27 7919  13.690  12.895  13.159
    1HEX    H28 7920  13.505  13.064  13.366
    1HEX    H29 7921  13.188  13.194  13.120
    1HEX    H2A 7922  13.311  13.071  13.129
    1HEX    H2B 7923  13.209  13.017  13.534
    1HEX    H2C 7924  13.135  13.176  13.531
    1HEX    H2D 7925  13.367  13.274  13.591
    1HEX    H2E 7926  13.424  13.110  13.612
    1HEX    H2F 7927  13.168  13.261  13.762
    1HEX    H2G 7928  12.896  12.976  13.052
    1HEX    H2H 7929  12.951  13.134  13.098
    1HEX    H2I 7930  12.896  12.901  13.491
    1HEX    H2J 7931  12.750  12.814  13.448
    1HEX    H2K 7932  12.641  13.035  13.382
    1HEX    H2M 7933  12.786  13.120  13.430
    1HEX    H2N 7934  12.582  12.935  13.614
    1STR    S00 7935  13.528  12.933  12.412
    1STR    S0E 7936  13.044  13.842  13.019
    1STR    S0M 7937  12.528  12.570  12.468
    1STR    S0X 7938  13.616  12.988  13.366
    1STR    S14 7939  13.265  13.172  13.784
    1STR    S1B 7940  12.668  13.037  13.622
  17.44000  17.44000  17.44000
