Gromacs.gro file
    7612
    1STR  BCK1     1   0.891   4.306   4.417
    1STR  O03      2   0.819   4.297   4.319
    1STR  N04      3   1.024   4.277   4.421
    1STR  C05      4   1.107   4.182   4.357
    1STR  C06      5   1.249   4.200   4.364
    1STR  C07      6   1.342   4.104   4.313
    1STR  N08      7   1.482   4.123   4.326
    1STR  C09      8   1.585   4.042   4.293
    1STR  O0A      9   1.574   3.931   4.243
    1STR  O0B     10   1.706   4.097   4.324
    1STR  C0C     11   1.828   4.024   4.295
    1STR  C0D     12   1.868   4.046   4.148
    1STR  C0E     13   1.941   4.067   4.391
    1STR  O0F     14   2.062   3.993   4.365
    1STR  C0G     15   2.174   4.025   4.448
    1STR  C0H     16   2.158   3.959   4.586
    1STR  C0I     17   2.305   3.977   4.379
    1STR  O0J     18   2.421   4.017   4.453
    1STR  C0K     19   2.549   3.984   4.397
    1STR  C0M     20   2.581   4.078   4.281
    1STR  C0N     21   2.657   3.996   4.508
    1STR  O0O     22   2.786   3.953   4.463
    1STR  C0P     23   2.893   4.037   4.456
    1STR  O0Q     24   2.890   4.159   4.473
    1STR  N0R     25   3.002   3.966   4.427
    1STR  C0S     26   3.136   3.997   4.402
    1STR  C0T     27   3.210   3.894   4.341
    1STR  C0U     28   3.343   3.913   4.301
    1STR  C0V     29   3.408   4.036   4.325
    1STR  C0W     30   3.543   4.059   4.258
    1STR  C0X     31   3.343   4.137   4.400
    1STR  N0Y     32   3.414   4.252   4.438
    1STR  BCK2    33   3.541   4.255   4.481
    1STR  O10     34   3.601   4.359   4.504
    1STR  C13     35   3.204   4.119   4.433
    1STR  C14     36   1.288   3.990   4.250
    1STR  C15     37   1.150   3.970   4.242
    1STR  C16     38   1.059   4.063   4.295
    1STR  C17     39   0.913   4.026   4.285
    1STR  H1B     40   1.073   4.341   4.481
    1STR  H1C     41   1.288   4.289   4.411
    1STR  H1D     42   1.515   4.209   4.365
    1STR  H1E     43   1.811   3.917   4.310
    1STR  H1F     44   1.887   4.152   4.127
    1STR  H1G     45   1.959   3.991   4.124
    1STR  H1H     46   1.790   4.012   4.080
    1STR  H1I     47   1.908   4.050   4.493
    1STR  H1J     48   1.960   4.174   4.381
    1STR  H1K     49   2.181   4.133   4.459
    1STR  H1M     50   2.148   3.851   4.577
    1STR  H1N     51   2.070   3.996   4.639
    1STR  H1O     52   2.244   3.979   4.649
    1STR  H1P     53   2.303   3.868   4.368
    1STR  H1Q     54   2.308   4.018   4.278
    1STR  H1R     55   2.546   3.880   4.362
    1STR  H1S     56   2.678   4.054   4.238
    1STR  H1T     57   2.586   4.182   4.315
    1STR  H1U     58   2.508   4.073   4.200
    1STR  H1V     59   2.629   3.931   4.591
    1STR  H1W     60   2.660   4.097   4.548
    1STR  H1X     61   2.976   3.870   4.417
    1STR  H1Y     62   3.165   3.798   4.320
    1STR  H1Z     63   3.394   3.834   4.249
    1STR  H20     64   3.543   4.157   4.211
    1STR  H21     65   3.625   4.054   4.330
    1STR  H22     66   3.562   3.986   4.180
    1STR  H23     67   3.366   4.341   4.440
    1STR  H27     68   3.150   4.197   4.483
    1STR  H28     69   1.350   3.912   4.208
    1STR  H29     70   1.114   3.880   4.194
    1STR  H2A     71   0.864   4.038   4.381
    1STR  H2B     72   0.899   3.922   4.255
    1STR  H2C     73   0.864   4.087   4.209
    1STR  BCK1    74   0.897   4.353   8.734
    1STR  O03     75   0.816   4.437   8.769
    1STR  N04     76   1.024   4.372   8.687
    1STR  C05     77   1.103   4.483   8.646
    1STR  C06     78   1.246   4.469   8.645
    1STR  C07     79   1.336   4.571   8.600
    1STR  N08     80   1.477   4.551   8.597
    1STR  C09     81   1.578   4.634   8.562
    1STR  O0A     82   1.564   4.750   8.525
    1STR  O0B     83   1.702   4.574   8.571
    1STR  C0C     84   1.823   4.649   8.541
    1STR  C0D     85   1.864   4.733   8.663
    1STR  C0E     86   1.940   4.555   8.498
    1STR  O0F     87   2.062   4.627   8.469
    1STR  C0G     88   2.176   4.548   8.429
    1STR  C0H     89   2.158   4.503   8.283
    1STR  C0I     90   2.308   4.629   8.446
    1STR  O0J     91   2.426   4.549   8.419
    1STR  C0K     92   2.555   4.611   8.442
    1STR  C0M     93   2.582   4.622   8.592
    1STR  C0N     94   2.669   4.528   8.376
    1STR  O0O     95   2.801   4.585   8.392
    1STR  C0P     96   2.901   4.525   8.467
    1STR  O0Q     97   2.888   4.426   8.537
    1STR  N0R     98   3.015   4.593   8.448
    1STR  C0S     99   3.148   4.589   8.496
    1STR  C0T    100   3.229   4.690   8.441
    1STR  C0U    101   3.362   4.706   8.482
    1STR  C0V    102   3.420   4.622   8.579
    1STR  C0W    103   3.560   4.659   8.623
    1STR  C0X    104   3.346   4.514   8.634
    1STR  N0Y    105   3.398   4.427   8.734
    1STR  BCK2   106   3.522   4.386   8.776
    1STR  O10    107   3.630   4.401   8.721
    1STR  C13    108   3.208   4.500   8.591
    1STR  C14    109   1.277   4.692   8.556
    1STR  C15    110   1.138   4.708   8.553
    1STR  C16    111   1.050   4.605   8.594
    1STR  C17    112   0.902   4.631   8.574
    1STR  H1B    113   1.074   4.285   8.684
    1STR  H1C    114   1.289   4.377   8.680
    1STR  H1D    115   1.512   4.461   8.625
    1STR  H1E    116   1.803   4.717   8.458
    1STR  H1F    117   1.884   4.671   8.750
    1STR  H1G    118   1.954   4.791   8.642
    1STR  H1H    119   1.785   4.804   8.690
    1STR  H1I    120   1.908   4.499   8.411
    1STR  H1J    121   1.959   4.482   8.577
    1STR  H1K    122   2.183   4.460   8.494
    1STR  H1M    123   2.148   4.589   8.216
    1STR  H1N    124   2.071   4.440   8.269
    1STR  H1O    125   2.245   4.446   8.250
    1STR  H1P    126   2.307   4.717   8.382
    1STR  H1Q    127   2.311   4.666   8.549
    1STR  H1R    128   2.555   4.711   8.397
    1STR  H1S    129   2.679   4.670   8.610
    1STR  H1T    130   2.586   4.523   8.638
    1STR  H1U    131   2.508   4.681   8.645
    1STR  H1V    132   2.650   4.523   8.268
    1STR  H1W    133   2.667   4.425   8.411
    1STR  H1X    134   2.995   4.667   8.383
    1STR  H1Y    135   3.191   4.759   8.368
    1STR  H1Z    136   3.420   4.787   8.439
    1STR  H20    137   3.570   4.650   8.731
    1STR  H21    138   3.633   4.595   8.574
    1STR  H22    139   3.585   4.762   8.598
    1STR  H23    140   3.326   4.381   8.787
    1STR  H27    141   3.146   4.422   8.632
    1STR  H28    142   1.336   4.775   8.520
    1STR  H29    143   1.098   4.801   8.516
    1STR  H2A    144   0.852   4.541   8.538
    1STR  H2B    145   0.885   4.709   8.501
    1STR  H2C    146   0.857   4.662   8.668
    1STR  BCK1   147   0.885  13.043  13.149
    1STR  O03    148   0.860  12.950  13.074
    1STR  N04    149   1.012  13.084  13.168
    1STR  C05    150   1.104  13.037  13.264
    1STR  C06    151   1.245  13.051  13.243
    1STR  C07    152   1.342  13.003  13.336
    1STR  N08    153   1.481  13.020  13.314
    1STR  C09    154   1.587  12.983  13.391
    1STR  O0A    155   1.578  12.923  13.497
    1STR  O0B    156   1.707  13.021  13.338
    1STR  C0C    157   1.829  12.987  13.407
    1STR  C0D    158   1.869  12.842  13.373
    1STR  C0E    159   1.942  13.086  13.373
    1STR  O0F    160   2.062  13.054  13.445
    1STR  C0G    161   2.175  13.139  13.421
    1STR  C0H    162   2.158  13.270  13.499
    1STR  C0I    163   2.305  13.066  13.463
    1STR  O0J    164   2.420  13.144  13.428
    1STR  C0K    165   2.548  13.086  13.457
    1STR  C0M    166   2.581  12.977  13.354
    1STR  C0N    167   2.656  13.197  13.454
    1STR  O0O    168   2.785  13.151  13.496
    1STR  C0P    169   2.892  13.143  13.413
    1STR  O0Q    170   2.892  13.163  13.292
    1STR  N0R    171   2.997  13.107  13.487
    1STR  C0S    172   3.131  13.072  13.463
    1STR  C0T    173   3.193  13.009  13.572
    1STR  C0U    174   3.321  12.954  13.561
    1STR  C0V    175   3.393  12.966  13.441
    1STR  C0W    176   3.519  12.882  13.429
    1STR  C0X    177   3.344  13.048  13.336
    1STR  N0Y    178   3.428  13.081  13.228
    1STR  BCK2   179   3.561  13.096  13.234
    1STR  O10    180   3.629  13.125  13.135
    1STR  C13    181   3.208  13.094  13.345
    1STR  C14    182   1.293  12.937  13.451
    1STR  C15    183   1.156  12.925  13.475
    1STR  C16    184   1.061  12.976  13.386
    1STR  C17    185   0.916  12.965  13.427
    1STR  H1B    186   1.049  13.141  13.094
    1STR  H1C    187   1.279  13.099  13.153
    1STR  H1D    188   1.511  13.068  13.231
    1STR  H1E    189   1.812  12.993  13.515
    1STR  H1F    190   1.888  12.829  13.266
    1STR  H1G    191   1.960  12.813  13.426
    1STR  H1H    192   1.792  12.771  13.402
    1STR  H1I    193   1.909  13.187  13.399
    1STR  H1J    194   1.962  13.085  13.266
    1STR  H1K    195   2.182  13.160  13.314
    1STR  H1M    196   2.148  13.252  13.606
    1STR  H1N    197   2.070  13.327  13.467
    1STR  H1O    198   2.244  13.335  13.485
    1STR  H1P    199   2.303  13.046  13.570
    1STR  H1Q    200   2.307  12.969  13.413
    1STR  H1R    201   2.547  13.042  13.558
    1STR  H1S    202   2.679  12.932  13.375
    1STR  H1T    203   2.587  13.019  13.253
    1STR  H1U    204   2.509  12.896  13.353
    1STR  H1V    205   2.627  13.276  13.523
    1STR  H1W    206   2.661  13.244  13.355
    1STR  H1X    207   2.966  13.098  13.582
    1STR  H1Y    208   3.140  12.996  13.665
    1STR  H1Z    209   3.362  12.899  13.644
    1STR  H20    210   3.535  12.851  13.326
    1STR  H21    211   3.606  12.937  13.465
    1STR  H22    212   3.510  12.790  13.487
    1STR  H23    213   3.386  13.107  13.139
    1STR  H27    214   3.164  13.148  13.262
    1STR  H28    215   1.357  12.895  13.526
    1STR  H29    216   1.124  12.876  13.566
    1STR  H2A    217   0.864  13.060  13.412
    1STR  H2B    218   0.906  12.940  13.532
    1STR  H2C    219   0.866  12.887  13.369
    1STR  BCK1   220   5.257   4.295   4.380
    1STR  O03    221   5.171   4.345   4.308
    1STR  N04    222   5.388   4.272   4.350
    1STR  C05    223   5.466   4.262   4.232
    1STR  C06    224   5.609   4.266   4.246
    1STR  C07    225   5.700   4.246   4.137
    1STR  N08    226   5.840   4.246   4.157
    1STR  C09    227   5.942   4.221   4.071
    1STR  O0A    228   5.928   4.194   3.952
    1STR  O0B    229   6.064   4.229   4.131
    1STR  C0C    230   6.186   4.207   4.055
    1STR  C0D    231   6.226   4.337   3.982
    1STR  C0E    232   6.301   4.156   4.146
    1STR  O0F    233   6.422   4.133   4.071
    1STR  C0G    234   6.535   4.087   4.147
    1STR  C0H    235   6.518   3.937   4.179
    1STR  C0I    236   6.667   4.111   4.068
    1STR  O0J    237   6.784   4.077   4.145
    1STR  C0K    238   6.912   4.103   4.085
    1STR  C0M    239   6.942   4.253   4.088
    1STR  C0N    240   7.023   4.026   4.163
    1STR  O0O    241   7.155   4.043   4.107
    1STR  C0P    242   7.258   4.101   4.176
    1STR  O0Q    243   7.249   4.160   4.283
    1STR  N0R    244   7.371   4.085   4.106
    1STR  C0S    245   7.506   4.125   4.121
    1STR  C0T    246   7.585   4.104   4.007
    1STR  C0U    247   7.718   4.148   4.002
    1STR  C0V    248   7.777   4.212   4.112
    1STR  C0W    249   7.913   4.276   4.088
    1STR  C0X    250   7.707   4.223   4.236
    1STR  N0Y    251   7.763   4.277   4.354
    1STR  BCK2   252   7.888   4.285   4.407
    1STR  O10    253   7.993   4.241   4.362
    1STR  C13    254   7.568   4.183   4.236
    1STR  C14    255   5.642   4.224   4.010
    1STR  C15    256   5.503   4.220   3.994
    1STR  C16    257   5.415   4.237   4.102
    1STR  C17    258   5.267   4.222   4.071
    1STR  H1B    259   5.441   4.262   4.434
    1STR  H1C    260   5.651   4.284   4.344
    1STR  H1D    261   5.875   4.267   4.249
    1STR  H1E    262   6.167   4.130   3.979
    1STR  H1F    263   6.245   4.418   4.053
    1STR  H1G    264   6.316   4.322   3.923
    1STR  H1H    265   6.148   4.370   3.914
    1STR  H1I    266   6.268   4.064   4.194
    1STR  H1J    267   6.319   4.229   4.225
    1STR  H1K    268   6.542   4.143   4.240
    1STR  H1M    269   6.508   3.878   4.088
    1STR  H1N    270   6.431   3.918   4.241
    1STR  H1O    271   6.605   3.899   4.233
    1STR  H1P    272   6.665   4.054   3.975
    1STR  H1Q    273   6.670   4.216   4.039
    1STR  H1R    274   6.911   4.067   3.982
    1STR  H1S    275   7.039   4.274   4.043
    1STR  H1T    276   6.946   4.289   4.191
    1STR  H1U    277   6.869   4.312   4.034
    1STR  H1V    278   7.000   3.919   4.159
    1STR  H1W    279   7.022   4.053   4.268
    1STR  H1X    280   7.350   4.033   4.023
    1STR  H1Y    281   7.544   4.057   3.919
    1STR  H1Z    282   7.773   4.136   3.910
    1STR  H20    283   7.919   4.372   4.138
    1STR  H21    284   7.994   4.211   4.122
    1STR  H22    285   7.929   4.294   3.982
    1STR  H23    286   7.694   4.310   4.419
    1STR  H27    287   7.508   4.197   4.324
    1STR  H28    288   5.701   4.209   3.922
    1STR  H29    289   5.464   4.202   3.895
    1STR  H2A    290   5.217   4.161   4.146
    1STR  H2B    291   5.251   4.173   3.975
    1STR  H2C    292   5.220   4.320   4.066
    1STR  BCK1   293   5.257   8.710   4.414
    1STR  O03    294   5.191   8.736   4.513
    1STR  N04    295   5.379   8.759   4.381
    1STR  C05    296   5.463   8.861   4.433
    1STR  C06    297   5.605   8.850   4.417
    1STR  C07    298   5.697   8.950   4.463
    1STR  N08    299   5.837   8.938   4.442
    1STR  C09    300   5.940   9.015   4.484
    1STR  O0A    301   5.928   9.115   4.555
    1STR  O0B    302   6.062   8.970   4.441
    1STR  C0C    303   6.184   9.038   4.481
    1STR  C0D    304   6.225   8.992   4.622
    1STR  C0E    305   6.300   9.014   4.380
    1STR  O0F    306   6.421   9.082   4.419
    1STR  C0G    307   6.535   9.065   4.332
    1STR  C0H    308   6.518   9.154   4.208
    1STR  C0I    309   6.667   9.100   4.407
    1STR  O0J    310   6.784   9.073   4.327
    1STR  C0K    311   6.912   9.094   4.389
    1STR  C0M    312   6.941   8.982   4.489
    1STR  C0N    313   7.025   9.097   4.282
    1STR  O0O    314   7.155   9.125   4.337
    1STR  C0P    315   7.257   9.034   4.342
    1STR  O0Q    316   7.250   8.916   4.310
    1STR  N0R    317   7.366   9.096   4.387
    1STR  C0S    318   7.500   9.064   4.420
    1STR  C0T    319   7.573   9.175   4.463
    1STR  C0U    320   7.706   9.163   4.505
    1STR  C0V    321   7.772   9.038   4.504
    1STR  C0W    322   7.914   9.038   4.557
    1STR  C0X    323   7.704   8.922   4.456
    1STR  N0Y    324   7.771   8.797   4.446
    1STR  BCK2   325   7.897   8.762   4.481
    1STR  O10    326   7.944   8.652   4.455
    1STR  C13    327   7.566   8.937   4.415
    1STR  C14    328   5.641   9.063   4.527
    1STR  C15    329   5.502   9.078   4.540
    1STR  C16    330   5.413   8.981   4.491
    1STR  C17    331   5.265   9.016   4.496
    1STR  H1B    332   5.420   8.708   4.304
    1STR  H1C    333   5.645   8.763   4.368
    1STR  H1D    334   5.870   8.860   4.388
    1STR  H1E    335   6.166   9.146   4.484
    1STR  H1F    336   6.245   8.885   4.625
    1STR  H1G    337   6.316   9.043   4.655
    1STR  H1H    338   6.147   9.014   4.695
    1STR  H1I    339   6.267   9.049   4.282
    1STR  H1J    340   6.319   8.907   4.371
    1STR  H1K    341   6.542   8.960   4.302
    1STR  H1M    342   6.508   9.259   4.235
    1STR  H1N    343   6.431   9.127   4.149
    1STR  H1O    344   6.604   9.145   4.142
    1STR  H1P    345   6.665   9.205   4.437
    1STR  H1Q    346   6.669   9.042   4.499
    1STR  H1R    347   6.911   9.191   4.441
    1STR  H1S    348   7.038   8.997   4.538
    1STR  H1T    349   6.946   8.885   4.438
    1STR  H1U    350   6.867   8.975   4.569
    1STR  H1V    351   7.002   9.177   4.211
    1STR  H1W    352   7.026   9.005   4.224
    1STR  H1X    353   7.341   9.192   4.401
    1STR  H1Y    354   7.529   9.273   4.466
    1STR  H1Z    355   7.758   9.251   4.539
    1STR  H20    356   7.923   8.969   4.641
    1STR  H21    357   7.984   9.009   4.478
    1STR  H22    358   7.945   9.136   4.593
    1STR  H23    359   7.720   8.721   4.403
    1STR  H27    360   7.510   8.851   4.381
    1STR  H28    361   5.702   9.143   4.567
    1STR  H29    362   5.465   9.167   4.588
    1STR  H2A    363   5.214   8.981   4.407
    1STR  H2B    364   5.251   9.124   4.502
    1STR  H2C    365   5.219   8.972   4.584
    1STR  BCK1   366   9.601   4.293   4.425
    1STR  O03    367   9.535   4.377   4.365
    1STR  N04    368   9.735   4.298   4.431
    1STR  C05    369   9.826   4.193   4.453
    1STR  C06    370   9.967   4.218   4.450
    1STR  C07    371  10.064   4.113   4.461
    1STR  N08    372  10.203   4.139   4.460
    1STR  C09    373  10.308   4.055   4.475
    1STR  O0A    374  10.299   3.934   4.492
    1STR  O0B    375  10.428   4.119   4.470
    1STR  C0C    376  10.550   4.043   4.485
    1STR  C0D    377  10.590   3.982   4.349
    1STR  C0E    378  10.663   4.130   4.543
    1STR  O0F    379  10.782   4.054   4.562
    1STR  C0G    380  10.895   4.125   4.614
    1STR  C0H    381  10.878   4.143   4.766
    1STR  C0I    382  11.024   4.047   4.582
    1STR  O0J    383  11.140   4.121   4.623
    1STR  C0K    384  11.268   4.062   4.594
    1STR  C0M    385  11.301   4.080   4.445
    1STR  C0N    386  11.376   4.131   4.681
    1STR  O0O    387  11.504   4.069   4.669
    1STR  C0P    388  11.611   4.133   4.616
    1STR  O0Q    389  11.611   4.243   4.563
    1STR  N0R    390  11.718   4.054   4.631
    1STR  C0S    391  11.853   4.062   4.592
    1STR  C0T    392  11.922   3.940   4.597
    1STR  C0U    393  12.054   3.930   4.550
    1STR  C0V    394  12.122   4.043   4.502
    1STR  C0W    395  12.254   4.022   4.431
    1STR  C0X    396  12.062   4.171   4.514
    1STR  N0Y    397  12.138   4.286   4.487
    1STR  BCK2   398  12.266   4.303   4.523
    1STR  O10    399  12.331   4.402   4.492
    1STR  C13    400  11.924   4.179   4.552
    1STR  C14    401  10.014   3.981   4.472
    1STR  C15    402   9.877   3.955   4.477
    1STR  C16    403   9.783   4.058   4.470
    1STR  C17    404   9.637   4.015   4.479
    1STR  H1B    405   9.772   4.388   4.405
    1STR  H1C    406  10.002   4.319   4.439
    1STR  H1D    407  10.234   4.234   4.446
    1STR  H1E    408  10.533   3.961   4.555
    1STR  H1F    409  10.609   4.059   4.274
    1STR  H1G    410  10.681   3.922   4.359
    1STR  H1H    411  10.512   3.916   4.311
    1STR  H1I    412  10.629   4.171   4.638
    1STR  H1J    413  10.682   4.215   4.477
    1STR  H1K    414  10.902   4.223   4.566
    1STR  H1M    415  10.868   4.047   4.816
    1STR  H1N    416  10.790   4.203   4.791
    1STR  H1O    417  10.964   4.194   4.809
    1STR  H1P    418  11.023   3.950   4.631
    1STR  H1Q    419  11.027   4.028   4.475
    1STR  H1R    420  11.265   3.956   4.620
    1STR  H1S    421  11.398   4.036   4.422
    1STR  H1T    422  11.307   4.185   4.419
    1STR  H1U    423  11.229   4.032   4.380
    1STR  H1V    424  11.346   4.123   4.786
    1STR  H1W    425  11.381   4.238   4.660
    1STR  H1X    426  11.690   3.969   4.677
    1STR  H1Y    427  11.874   3.850   4.633
    1STR  H1Z    428  12.103   3.833   4.549
    1STR  H20    429  12.259   4.086   4.343
    1STR  H21    430  12.339   4.044   4.495
    1STR  H22    431  12.264   3.919   4.395
    1STR  H23    432  12.094   4.366   4.444
    1STR  H27    433  11.873   4.274   4.553
    1STR  H28    434  10.078   3.895   4.477
    1STR  H29    435   9.845   3.852   4.486
    1STR  H2A    436   9.588   4.068   4.561
    1STR  H2B    437   9.627   3.909   4.498
    1STR  H2C    438   9.586   4.036   4.385
    1STR  BCK1   439   9.618   4.329   8.718
    1STR  O03    440   9.532   4.415   8.706
    1STR  N04    441   9.747   4.331   8.673
    1STR  C05    442   9.824   4.410   8.584
    1STR  C06    443   9.968   4.401   8.592
    1STR  C07    444  10.057   4.469   8.503
    1STR  N08    445  10.198   4.453   8.512
    1STR  C09    446  10.299   4.505   8.438
    1STR  O0A    447  10.284   4.583   8.345
    1STR  O0B    448  10.423   4.461   8.478
    1STR  C0C    449  10.543   4.508   8.414
    1STR  C0D    450  10.584   4.645   8.472
    1STR  C0E    451  10.660   4.406   8.428
    1STR  O0F    452  10.782   4.451   8.365
    1STR  C0G    453  10.896   4.363   8.373
    1STR  C0H    454  10.878   4.247   8.274
    1STR  C0I    455  11.028   4.440   8.345
    1STR  O0J    456  11.146   4.358   8.364
    1STR  C0K    457  11.275   4.422   8.350
    1STR  C0M    458  11.302   4.512   8.471
    1STR  C0N    459  11.388   4.315   8.339
    1STR  O0O    460  11.521   4.371   8.323
    1STR  C0P    461  11.620   4.356   8.416
    1STR  O0Q    462  11.607   4.309   8.529
    1STR  N0R    463  11.736   4.402   8.365
    1STR  C0S    464  11.869   4.420   8.409
    1STR  C0T    465  11.951   4.483   8.314
    1STR  C0U    466  12.084   4.517   8.343
    1STR  C0V    467  12.141   4.486   8.468
    1STR  C0W    468  12.279   4.543   8.493
    1STR  C0X    469  12.067   4.413   8.565
    1STR  N0Y    470  12.120   4.377   8.692
    1STR  BCK2   471  12.244   4.352   8.745
    1STR  O10    472  12.351   4.344   8.686
    1STR  C13    473  11.929   4.383   8.534
    1STR  C14    474   9.997   4.551   8.405
    1STR  C15    475   9.858   4.562   8.394
    1STR  C16    476   9.771   4.492   8.480
    1STR  C17    477   9.623   4.504   8.450
    1STR  H1B    478   9.800   4.259   8.717
    1STR  H1C    479  10.011   4.339   8.669
    1STR  H1D    480  10.233   4.392   8.584
    1STR  H1E    481  10.524   4.521   8.307
    1STR  H1F    482  10.604   4.639   8.579
    1STR  H1G    483  10.674   4.682   8.423
    1STR  H1H    484  10.506   4.719   8.456
    1STR  H1I    485  10.628   4.311   8.384
    1STR  H1J    486  10.679   4.387   8.533
    1STR  H1K    487  10.903   4.323   8.475
    1STR  H1M    488  10.868   4.283   8.172
    1STR  H1N    489  10.791   4.186   8.296
    1STR  H1O    490  10.965   4.180   8.277
    1STR  H1P    491  11.027   4.480   8.243
    1STR  H1Q    492  11.031   4.527   8.411
    1STR  H1R    493  11.275   4.482   8.259
    1STR  H1S    494  11.399   4.561   8.461
    1STR  H1T    495  11.306   4.453   8.563
    1STR  H1U    496  11.228   4.590   8.484
    1STR  H1V    497  11.369   4.254   8.251
    1STR  H1W    498  11.385   4.247   8.424
    1STR  H1X    499  11.717   4.432   8.271
    1STR  H1Y    500  11.912   4.511   8.217
    1STR  H1Z    501  12.141   4.570   8.269
    1STR  H20    502  12.288   4.580   8.595
    1STR  H21    503  12.355   4.467   8.475
    1STR  H22    504  12.301   4.627   8.427
    1STR  H23    505  12.048   4.360   8.761
    1STR  H27    506  11.867   4.332   8.606
    1STR  H28    507  10.056   4.607   8.333
    1STR  H29    508   9.818   4.624   8.316
    1STR  H2A    509   9.573   4.408   8.459
    1STR  H2B    510   9.606   4.540   8.349
    1STR  H2C    511   9.577   4.576   8.518
    1STR  BCK1   512  13.976   4.320  13.137
    1STR  O03    513  13.936   4.238  13.218
    1STR  N04    514  14.093   4.388  13.146
    1STR  C05    515  14.183   4.403  13.253
    1STR  C06    516  14.325   4.406  13.230
    1STR  C07    517  14.420   4.424  13.335
    1STR  N08    518  14.559   4.431  13.309
    1STR  C09    519  14.664   4.443  13.394
    1STR  O0A    520  14.655   4.449  13.516
    1STR  O0B    521  14.785   4.448  13.329
    1STR  C0C    522  14.907   4.457  13.406
    1STR  C0D    523  14.948   4.316  13.455
    1STR  C0E    524  15.021   4.523  13.325
    1STR  O0F    525  15.141   4.534  13.403
    1STR  C0G    526  15.254   4.593  13.336
    1STR  C0H    527  15.237   4.745  13.332
    1STR  C0I    528  15.385   4.553  13.411
    1STR  O0J    529  15.501   4.600  13.339
    1STR  C0K    530  15.629   4.566  13.394
    1STR  C0M    531  15.661   4.418  13.366
    1STR  C0N    532  15.738   4.656  13.330
    1STR  O0O    533  15.867   4.636  13.389
    1STR  C0P    534  15.972   4.580  13.322
    1STR  O0Q    535  15.970   4.532  13.210
    1STR  N0R    536  16.077   4.588  13.403
    1STR  C0S    537  16.211   4.546  13.404
    1STR  C0T    538  16.274   4.571  13.527
    1STR  C0U    539  16.405   4.528  13.551
    1STR  C0V    540  16.478   4.460  13.453
    1STR  C0W    541  16.612   4.404  13.497
    1STR  C0X    542  16.424   4.444  13.322
    1STR  N0Y    543  16.503   4.391  13.216
    1STR  BCK2   544  16.636   4.373  13.211
    1STR  O10    545  16.693   4.331  13.112
    1STR  C13    546  16.288   4.484  13.300
    1STR  C14    547  14.368   4.437  13.466
    1STR  C15    548  14.230   4.438  13.490
    1STR  C16    549  14.138   4.426  13.386
    1STR  C17    550  13.991   4.445  13.421
    1STR  H1B    551  14.122   4.430  13.059
    1STR  H1C    552  14.361   4.394  13.129
    1STR  H1D    553  14.590   4.426  13.213
    1STR  H1E    554  14.890   4.520  13.494
    1STR  H1F    555  14.967   4.249  13.372
    1STR  H1G    556  15.038   4.321  13.516
    1STR  H1H    557  14.870   4.272  13.517
    1STR  H1I    558  14.988   4.621  13.292
    1STR  H1J    559  15.040   4.464  13.235
    1STR  H1K    560  15.261   4.553  13.235
    1STR  H1M    561  15.228   4.787  13.432
    1STR  H1N    562  15.150   4.776  13.274
    1STR  H1O    563  15.324   4.792  13.285
    1STR  H1P    564  15.383   4.594  13.512
    1STR  H1Q    565  15.387   4.445  13.420
    1STR  H1R    566  15.628   4.584  13.502
    1STR  H1S    567  15.758   4.392  13.408
    1STR  H1T    568  15.666   4.400  13.259
    1STR  H1U    569  15.588   4.350  13.409
    1STR  H1V    570  15.711   4.760  13.348
    1STR  H1W    571  15.741   4.644  13.222
    1STR  H1X    572  16.047   4.634  13.486
    1STR  H1Y    573  16.223   4.621  13.607
    1STR  H1Z    574  16.448   4.545  13.649
    1STR  H20    575  16.623   4.301  13.463
    1STR  H21    576  16.694   4.465  13.459
    1STR  H22    577  16.621   4.401  13.606
    1STR  H23    578  16.457   4.370  13.129
    1STR  H27    579  16.241   4.468  13.204
    1STR  H28    580  14.431   4.449  13.552
    1STR  H29    581  14.196   4.452  13.592
    1STR  H2A    582  13.939   4.498  13.342
    1STR  H2B    583  13.980   4.504  13.512
    1STR  H2C    584  13.943   4.349  13.438
    1STR  BCK1   585  17.410   0.902   4.300
    1STR  O03    586  17.426   0.835   4.199
    1STR  N04    587   0.025   1.023   4.331
    1STR  C05    588   0.124   1.105   4.271
    1STR  C06    589   0.118   1.248   4.289
    1STR  C07    590   0.214   1.339   4.234
    1STR  N08    591   0.206   1.479   4.256
    1STR  C09    592   0.280   1.582   4.205
    1STR  O0A    593   0.371   1.569   4.124
    1STR  O0B    594   0.241   1.705   4.254
    1STR  C0C    595   0.304   1.827   4.205
    1STR  C0D    596   0.242   1.867   4.070
    1STR  C0E    597   0.291   1.944   4.308
    1STR  O0F    598   0.352   2.068   4.262
    1STR  C0G    599   0.346   2.182   4.351
    1STR  C0H    600   0.448   2.162   4.464
    1STR  C0I    601   0.373   2.316   4.274
    1STR  O0J    602   0.355   2.436   4.354
    1STR  C0K    603   0.363   2.565   4.286
    1STR  C0M    604   0.241   2.584   4.197
    1STR  C0N    605   0.369   2.688   4.385
    1STR  O0O    606   0.373   2.818   4.320
    1STR  C0P    607   0.270   2.913   4.326
    1STR  O0Q    608   0.160   2.896   4.377
    1STR  N0R    609   0.312   3.028   4.268
    1STR  C0S    610   0.269   3.161   4.237
    1STR  C0T    611   0.378   3.241   4.201
    1STR  C0U    612   0.362   3.375   4.165
    1STR  C0V    613   0.235   3.436   4.159
    1STR  C0W    614   0.237   3.585   4.131
    1STR  C0X    615   0.117   3.362   4.190
    1STR  N0Y    616  17.427   3.426   4.185
    1STR  BCK2   617  17.377   3.539   4.124
    1STR  O10    618  17.262   3.577   4.142
    1STR  C13    619   0.138   3.223   4.231
    1STR  C14    620   0.319   1.281   4.159
    1STR  C15    621   0.330   1.142   4.145
    1STR  C16    622   0.237   1.054   4.203
    1STR  C17    623   0.269   0.906   4.195
    1STR  H1B    624  17.423   1.063   4.412
    1STR  H1C    625   0.036   1.289   4.346
    1STR  H1D    626   0.136   1.513   4.319
    1STR  H1E    627   0.410   1.808   4.190
    1STR  H1F    628   0.135   1.886   4.078
    1STR  H1G    629   0.289   1.957   4.031
    1STR  H1H    630   0.257   1.788   3.995
    1STR  H1I    631   0.337   1.912   4.401
    1STR  H1J    632   0.186   1.962   4.329
    1STR  H1K    633   0.246   2.188   4.393
    1STR  H1M    634   0.549   2.151   4.425
    1STR  H1N    635   0.426   2.074   4.525
    1STR  H1O    636   0.448   2.248   4.532
    1STR  H1P    637   0.474   2.314   4.233
    1STR  H1Q    638   0.306   2.317   4.189
    1STR  H1R    639   0.454   2.565   4.226
    1STR  H1S    640   0.247   2.679   4.144
    1STR  H1T    641   0.150   2.586   4.257
    1STR  H1U    642   0.230   2.507   4.121
    1STR  H1V    643   0.461   2.678   4.444
    1STR  H1W    644   0.288   2.683   4.458
    1STR  H1X    645   0.408   3.011   4.244
    1STR  H1Y    646   0.479   3.203   4.204
    1STR  H1Z    647   0.451   3.432   4.142
    1STR  H20    648   0.160   3.617   4.060
    1STR  H21    649   0.225   3.640   4.224
    1STR  H22    650   0.331   3.616   4.086
    1STR  H23    651  17.355   3.380   4.238
    1STR  H27    652   0.053   3.162   4.259
    1STR  H28    653   0.396   1.341   4.112
    1STR  H29    654   0.415   1.103   4.089
    1STR  H2A    655   0.243   0.856   4.288
    1STR  H2B    656   0.376   0.889   4.179
    1STR  H2C    657   0.215   0.860   4.112
    1STR  BCK1   658  17.355   5.243  17.378
    1STR  O03    659  17.436   5.171  -0.006
    1STR  N04    660  17.363   5.377  17.379
    1STR  C05    661  17.257   5.469  17.369
    1STR  C06    662  17.284   5.610  17.370
    1STR  C07    663  17.180   5.708  17.369
    1STR  N08    664  17.208   5.847  17.367
    1STR  C09    665  17.123   5.952  17.360
    1STR  O0A    666  17.001   5.944  17.355
    1STR  O0B    667  17.188   6.071  17.357
    1STR  C0C    668  17.111   6.193  17.351
    1STR  C0D    669  17.065   6.233   0.052
    1STR  C0E    670  17.192   6.306  17.283
    1STR  O0F    671  17.114   6.426  17.273
    1STR  C0G    672  17.179   6.538  17.212
    1STR  C0H    673  17.180   6.520  17.059
    1STR  C0I    674  17.105   6.668  17.252
    1STR  O0J    675  17.175   6.784  17.204
    1STR  C0K    676  17.119   6.912  17.240
    1STR  C0M    677  17.152   6.943  17.386
    1STR  C0N    678  17.177   7.022  17.147
    1STR  O0O    679  17.111   7.148  17.163
    1STR  C0P    680  17.176   7.261  17.202
    1STR  O0Q    681  17.291   7.268  17.242
    1STR  N0R    682  17.090   7.363  17.193
    1STR  C0S    683  17.092   7.499  17.230
    1STR  C0T    684  16.965   7.551  17.262
    1STR  C0U    685  16.952   7.680  17.318
    1STR  C0V    686  17.065   7.762  17.330
    1STR  C0W    687  17.059   7.884  17.422
    1STR  C0X    688  17.185   7.725  17.266
    1STR  N0Y    689  17.276   7.827  17.235
    1STR  BCK2   690  17.237   7.943  17.177
    1STR  O10    691  17.315   8.034  17.152
    1STR  C13    692  17.203   7.588  17.229
    1STR  C14    693  17.047   5.660  17.372
    1STR  C15    694  17.019   5.523  17.369
    1STR  C16    695  17.121   5.428  17.365
    1STR  C17    696  17.075   5.283  17.359
    1STR  H1B    697   0.014   5.410  17.404
    1STR  H1C    698  17.387   5.643  17.371
    1STR  H1D    699  17.304   5.876  17.370
    1STR  H1E    700  17.022   6.177  17.289
    1STR  H1F    701  17.150   6.252   0.118
    1STR  H1G    702  17.005   6.324   0.049
    1STR  H1H    703  17.004   6.155   0.097
    1STR  H1I    704  17.222   6.272  17.184
    1STR  H1J    705  17.283   6.325  17.340
    1STR  H1K    706  17.282   6.545  17.249
    1STR  H1M    707  17.079   6.509  17.020
    1STR  H1N    708  17.237   6.432  17.028
    1STR  H1O    709  17.226   6.606  17.011
    1STR  H1P    710  17.003   6.666  17.214
    1STR  H1Q    711  17.098   6.670  17.361
    1STR  H1R    712  17.011   6.908  17.225
    1STR  H1S    713  17.111   7.041  17.414
    1STR  H1T    714  17.260   6.948  17.401
    1STR  H1U    715  17.111   6.870   0.016
    1STR  H1V    716  17.162   6.991  17.043
    1STR  H1W    717  17.285   7.030  17.159
    1STR  H1X    718  17.002   7.327  17.160
    1STR  H1Y    719  16.876   7.491  17.252
    1STR  H1Z    720  16.856   7.714  17.353
    1STR  H20    721  17.138   7.873   0.056
    1STR  H21    722  17.074   7.979  17.372
    1STR  H22    723  16.965   7.888   0.037
    1STR  H23    724  17.375   7.814  17.246
    1STR  H27    725  17.300   7.552  17.196
    1STR  H28    726  16.961   5.724  17.376
    1STR  H29    727  16.915   5.493  17.370
    1STR  H2A    728  17.116   5.235  17.270
    1STR  H2B    729  16.967   5.274  17.352
    1STR  H2C    730  17.106   5.229   0.008
    1STR  BCK1   731  17.394   5.261  13.084
    1STR  O03    732   0.039   5.174  13.084
    1STR  N04    733  17.405   5.389  13.131
    1STR  C05    734   0.056   5.466  13.209
    1STR  C06    735   0.047   5.609  13.204
    1STR  C07    736   0.127   5.698  13.284
    1STR  N08    737   0.112   5.839  13.277
    1STR  C09    738   0.173   5.940  13.345
    1STR  O0A    739   0.261   5.924  13.429
    1STR  O0B    740   0.126   6.065  13.310
    1STR  C0C    741   0.181   6.186  13.369
    1STR  C0D    742   0.310   6.225  13.296
    1STR  C0E    743   0.078   6.304  13.366
    1STR  O0F    744   0.129   6.427  13.423
    1STR  C0G    745   0.040   6.541  13.424
    1STR  C0H    746  17.376   6.522  13.535
    1STR  C0I    747   0.119   6.676  13.445
    1STR  O0J    748   0.036   6.795  13.433
    1STR  C0K    749   0.099   6.926  13.437
    1STR  C0M    750   0.179   6.947  13.307
    1STR  C0N    751  17.434   7.042  13.451
    1STR  O0O    752   0.044   7.180  13.444
    1STR  C0P    753   0.001   7.274  13.350
    1STR  O0Q    754  17.376   7.247  13.250
    1STR  N0R    755   0.041   7.398  13.384
    1STR  C0S    756   0.040   7.532  13.334
    1STR  C0T    757   0.119   7.617  13.412
    1STR  C0U    758   0.142   7.750  13.375
    1STR  C0V    759   0.084   7.806  13.259
    1STR  C0W    760   0.138   7.942  13.221
    1STR  C0X    761  17.429   7.733  13.180
    1STR  N0Y    762  17.359   7.788  13.066
    1STR  BCK2   763  17.323   7.911  13.010
    1STR  O10    764  17.347   8.022  13.056
    1STR  C13    765  17.413   7.592  13.220
    1STR  C14    766   0.221   5.637  13.370
    1STR  C15    767   0.232   5.497  13.378
    1STR  C16    768   0.150   5.411  13.301
    1STR  C17    769   0.166   5.263  13.327
    1STR  H1B    770  17.327   5.444  13.099
    1STR  H1C    771  17.416   5.654  13.137
    1STR  H1D    772   0.044   5.876  13.213
    1STR  H1E    773   0.205   6.166  13.474
    1STR  H1F    774   0.292   6.245  13.190
    1STR  H1G    775   0.353   6.315  13.340
    1STR  H1H    776   0.386   6.146  13.303
    1STR  H1I    777  17.429   6.272  13.420
    1STR  H1J    778   0.047   6.322  13.263
    1STR  H1K    779  17.430   6.547  13.328
    1STR  H1M    780  17.423   6.510  13.633
    1STR  H1N    781  17.313   6.434  13.519
    1STR  H1O    782  17.309   6.608  13.541
    1STR  H1P    783   0.169   6.674  13.541
    1STR  H1Q    784   0.198   6.678  13.370
    1STR  H1R    785   0.168   6.929  13.522
    1STR  H1S    786   0.230   7.044  13.310
    1STR  H1T    787   0.112   6.948  13.222
    1STR  H1U    788   0.255   6.872  13.291
    1STR  H1V    789  17.388   7.031  13.550
    1STR  H1W    790  17.354   7.029  13.380
    1STR  H1X    791   0.089   7.388  13.472
    1STR  H1Y    792   0.169   7.581  13.501
    1STR  H1Z    793   0.209   7.808  13.436
    1STR  H20    794   0.160   7.945  13.114
    1STR  H21    795   0.068   8.022  13.246
    1STR  H22    796   0.232   7.963  13.273
    1STR  H23    797  17.322   7.714  13.009
    1STR  H27    798  17.350   7.528  13.162
    1STR  H28    799   0.286   5.694  13.433
    1STR  H29    800   0.304   5.456  13.447
    1STR  H2A    801   0.069   5.213  13.331
    1STR  H2B    802   0.214   5.244  13.423
    1STR  H2C    803   0.227   5.217  13.250
    1STR  BCK1   804  17.377   9.615  13.029
    1STR  O03    805  17.303   9.558  12.949
    1STR  N04    806  17.438   9.736  13.014
    1STR  C05    807   0.011   9.824  12.905
    1STR  C06    808   0.019   9.966  12.927
    1STR  C07    809   0.033  10.061  12.821
    1STR  N08    810   0.044  10.201  12.845
    1STR  C09    811   0.048  10.305  12.759
    1STR  O0A    812   0.039  10.295  12.637
    1STR  O0B    813   0.061  10.426  12.822
    1STR  C0C    814   0.061  10.549  12.744
    1STR  C0D    815  17.356  10.589  12.711
    1STR  C0E    816   0.135  10.664  12.818
    1STR  O0F    817   0.137  10.786  12.741
    1STR  C0G    818   0.204  10.899  12.800
    1STR  C0H    819   0.356  10.880  12.788
    1STR  C0I    820   0.158  11.031  12.731
    1STR  O0J    821   0.211  11.150  12.796
    1STR  C0K    822   0.166  11.277  12.746
    1STR  C0M    823   0.021  11.302  12.789
    1STR  C0N    824   0.254  11.395  12.799
    1STR  O0O    825   0.215  11.523  12.744
    1STR  C0P    826   0.156  11.625  12.816
    1STR  O0Q    827   0.121  11.620  12.933
    1STR  N0R    828   0.147  11.731  12.735
    1STR  C0S    829   0.104  11.866  12.732
    1STR  C0T    830   0.159  11.934  12.622
    1STR  C0U    831   0.133  12.068  12.597
    1STR  C0V    832   0.047  12.142  12.680
    1STR  C0W    833   0.038  12.291  12.652
    1STR  C0X    834  17.420  12.079  12.789
    1STR  N0Y    835  17.325  12.154  12.864
    1STR  BCK2   836  17.253  12.263  12.827
    1STR  O10    837  17.181  12.324  12.906
    1STR  C13    838   0.014  11.940  12.817
    1STR  C14    839   0.037  10.008  12.689
    1STR  C15    840   0.035   9.870  12.666
    1STR  C16    841   0.028   9.778  12.771
    1STR  C17    842   0.046   9.632  12.736
    1STR  H1B    843   0.037   9.770  13.101
    1STR  H1C    844   0.014  10.003  13.028
    1STR  H1D    845   0.050  10.231  12.941
    1STR  H1E    846   0.114  10.531  12.650
    1STR  H1F    847  17.298  10.608  12.801
    1STR  H1G    848  17.354  10.680  12.651
    1STR  H1H    849  17.306  10.511  12.654
    1STR  H1I    850   0.237  10.631  12.839
    1STR  H1J    851   0.088  10.682  12.914
    1STR  H1K    852   0.176  10.905  12.905
    1STR  H1M    853   0.386  10.870  12.684
    1STR  H1N    854   0.392  10.793  12.842
    1STR  H1O    855   0.409  10.967  12.829
    1STR  H1P    856   0.187  11.029  12.626
    1STR  H1Q    857   0.049  11.033  12.733
    1STR  H1R    858   0.173  11.276  12.637
    1STR  H1S    859  17.426  11.398  12.751
    1STR  H1T    860   0.014  11.306  12.898
    1STR  H1U    861  17.392  11.226  12.753
    1STR  H1V    862   0.357  11.376  12.768
    1STR  H1W    863   0.256  11.398  12.908
    1STR  H1X    864   0.190  11.701  12.649
    1STR  H1Y    865   0.226  11.883  12.553
    1STR  H1Z    866   0.180  12.116  12.513
    1STR  H20    867  17.384  12.314  12.604
    1STR  H21    868   0.048  12.347  12.745
    1STR  H22    869   0.118  12.324  12.586
    1STR  H23    870  17.306  12.124  12.959
    1STR  H27    871  17.410  11.889  12.901
    1STR  H28    872   0.045  10.071  12.602
    1STR  H29    873   0.043   9.835  12.564
    1STR  H2A    874   0.100   9.579  12.814
    1STR  H2B    875   0.103   9.621  12.644
    1STR  H2C    876  17.389   9.585  12.720
    1STR  BCK1   877  17.327  13.980   4.317
    1STR  O03    878  17.393  13.893   4.373
    1STR  N04    879  17.341  14.111   4.342
    1STR  C05    880  17.278  14.193   4.438
    1STR  C06    881  17.292  14.335   4.426
    1STR  C07    882  17.229  14.426   4.516
    1STR  N08    883  17.241  14.566   4.497
    1STR  C09    884  17.183  14.668   4.563
    1STR  O0A    885  17.105  14.656   4.657
    1STR  O0B    886  17.218  14.789   4.511
    1STR  C0C    887  17.167  14.911   4.569
    1STR  C0D    888  17.252  14.951   4.690
    1STR  C0E    889  17.163  15.024   4.463
    1STR  O0F    890  17.108  15.145   4.518
    1STR  C0G    891  17.100  15.257   4.429
    1STR  C0H    892  16.980  15.239   4.335
    1STR  C0I    893  17.087  15.388   4.512
    1STR  O0J    894  17.090  15.505   4.427
    1STR  C0K    895  17.086  15.633   4.493
    1STR  C0M    896  17.223  15.664   4.556
    1STR  C0N    897  17.050  15.744   4.389
    1STR  O0O    898  17.033  15.874   4.447
    1STR  C0P    899  17.101  15.985   4.403
    1STR  O0Q    900  17.198  15.984   4.327
    1STR  N0R    901  17.046  16.094   4.456
    1STR  C0S    902  17.076  16.232   4.456
    1STR  C0T    903  17.033  16.300   4.571
    1STR  C0U    904  17.067  16.434   4.592
    1STR  C0V    905  17.137  16.507   4.495
    1STR  C0W    906  17.204  16.636   4.538
    1STR  C0X    907  17.160  16.451   4.367
    1STR  N0Y    908  17.210  16.533   4.262
    1STR  BCK2   909  17.158  16.649   4.214
    1STR  O10    910  17.214  16.713   4.126
    1STR  C13    911  17.139  16.309   4.352
    1STR  C14    912  17.154  14.370   4.622
    1STR  C15    913  17.140  14.231   4.636
    1STR  C16    914  17.200  14.142   4.546
    1STR  C17    915  17.178  13.994   4.573
    1STR  H1B    916  17.403  14.157   4.278
    1STR  H1C    917  17.351  14.375   4.345
    1STR  H1D    918  17.301  14.598   4.423
    1STR  H1E    919  17.064  14.894   4.602
    1STR  H1F    920  17.356  14.969   4.662
    1STR  H1G    921  17.214  15.042   4.736
    1STR  H1H    922  17.251  14.873   4.766
    1STR  H1I    923  17.102  14.990   4.379
    1STR  H1J    924  17.263  15.042   4.425
    1STR  H1K    925  17.192  15.264   4.371
    1STR  H1M    926  16.887  15.229   4.391
    1STR  H1N    927  16.990  15.152   4.271
    1STR  H1O    928  16.970  15.326   4.269
    1STR  H1P    929  16.995  15.386   4.570
    1STR  H1Q    930  17.169  15.391   4.583
    1STR  H1R    931  17.009  15.631   4.570
    1STR  H1S    932  17.221  15.761   4.606
    1STR  H1T    933  17.301  15.667   4.480
    1STR  H1U    934  17.252  15.590   4.631
    1STR  H1V    935  16.956  15.717   4.342
    1STR  H1W    936  17.124  15.746   4.308
    1STR  H1X    937  16.972  16.066   4.517
    1STR  H1Y    938  16.979  16.248   4.649
    1STR  H1Z    939  17.042  16.480   4.687
    1STR  H20    940  17.311  16.616   4.547
    1STR  H21    941  17.191  16.718   4.468
    1STR  H22    942  17.171  16.668   4.637
    1STR  H23    943  17.295  16.503   4.216
    1STR  H27    944  17.169  16.259   4.262
    1STR  H28    945  17.104  14.431   4.695
    1STR  H29    946  17.082  14.194   4.719
    1STR  H2A    947  17.140  13.943   4.485
    1STR  H2B    948  17.105  13.978   4.651
    1STR  H2C    949  17.272  13.947   4.604
    1STR  BCK1   950   4.344   5.263   4.324
    1STR  O03    951   4.406   5.188   4.250
    1STR  N04    952   4.382   5.386   4.369
    1STR  C05    953   4.500   5.466   4.363
    1STR  C06    954   4.488   5.609   4.373
    1STR  C07    955   4.601   5.698   4.373
    1STR  N08    956   4.585   5.839   4.385
    1STR  C09    957   4.676   5.940   4.381
    1STR  O0A    958   4.796   5.925   4.362
    1STR  O0B    959   4.619   6.065   4.400
    1STR  C0C    960   4.699   6.186   4.393
    1STR  C0D    961   4.720   6.225   4.246
    1STR  C0E    962   4.634   6.304   4.472
    1STR  O0F    963   4.710   6.428   4.466
    1STR  C0G    964   4.657   6.542   4.538
    1STR  C0H    965   4.682   6.522   4.688
    1STR  C0I    966   4.721   6.677   4.488
    1STR  O0J    967   4.662   6.798   4.545
    1STR  C0K    968   4.704   6.928   4.494
    1STR  C0M    969   4.649   6.946   4.352
    1STR  C0N    970   4.653   7.049   4.580
    1STR  O0O    971   4.681   7.183   4.527
    1STR  C0P    972   4.583   7.275   4.486
    1STR  O0Q    973   4.463   7.250   4.475
    1STR  N0R    974   4.638   7.395   4.462
    1STR  C0S    975   4.606   7.528   4.417
    1STR  C0T    976   4.716   7.614   4.432
    1STR  C0U    977   4.712   7.747   4.389
    1STR  C0V    978   4.597   7.802   4.329
    1STR  C0W    979   4.614   7.945   4.282
    1STR  C0X    980   4.478   7.726   4.311
    1STR  N0Y    981   4.360   7.777   4.244
    1STR  BCK2   982   4.303   7.897   4.199
    1STR  O10    983   4.337   8.011   4.227
    1STR  C13    984   4.487   7.586   4.358
    1STR  C14    985   4.728   5.638   4.361
    1STR  C15    986   4.743   5.498   4.354
    1STR  C16    987   4.631   5.412   4.359
    1STR  C17    988   4.661   5.263   4.366
    1STR  H1B    989   4.305   5.432   4.415
    1STR  H1C    990   4.390   5.652   4.381
    1STR  H1D    991   4.493   5.874   4.400
    1STR  H1E    992   4.797   6.166   4.437
    1STR  H1F    993   4.626   6.245   4.195
    1STR  H1G    994   4.781   6.316   4.238
    1STR  H1H    995   4.772   6.147   4.190
    1STR  H1I    996   4.623   6.272   4.576
    1STR  H1J    997   4.534   6.322   4.434
    1STR  H1K    998   4.550   6.548   4.519
    1STR  H1M    999   4.788   6.511   4.710
    1STR  H1N   1000   4.631   6.435   4.728
    1STR  H1O   1001   4.646   6.608   4.745
    1STR  H1P   1002   4.828   6.676   4.507
    1STR  H1Q   1003   4.710   6.678   4.380
    1STR  H1R   1004   4.813   6.930   4.492
    1STR  H1S   1005   4.683   7.041   4.311
    1STR  H1T   1006   4.540   6.947   4.353
    1STR  H1U   1007   4.682   6.869   4.283
    1STR  H1V   1008   4.702   7.042   4.678
    1STR  H1W   1009   4.546   7.039   4.601
    1STR  H1X   1010   4.735   7.385   4.487
    1STR  H1Y   1011   4.809   7.579   4.476
    1STR  H1Z   1012   4.801   7.807   4.402
    1STR  H20   1013   4.567   7.962   4.186
    1STR  H21   1014   4.574   8.014   4.357
    1STR  H22   1015   4.720   7.969   4.267
    1STR  H23   1016   4.296   7.702   4.222
    1STR  H27   1017   4.402   7.521   4.347
    1STR  H28   1018   4.819   5.696   4.358
    1STR  H29   1019   4.842   5.457   4.349
    1STR  H2A   1020   4.593   5.214   4.436
    1STR  H2B   1021   4.762   5.245   4.402
    1STR  H2C   1022   4.652   5.218   4.268
    1STR  BCK1  1023   4.306   5.242  13.039
    1STR  O03   1024   4.201   5.182  13.059
    1STR  N04   1025   4.320   5.370  12.996
    1STR  C05   1026   4.232   5.464  12.936
    1STR  C06   1027   4.256   5.605  12.951
    1STR  C07   1028   4.174   5.704  12.889
    1STR  N08   1029   4.201   5.843  12.899
    1STR  C09   1030   4.136   5.949  12.846
    1STR  O0A   1031   4.035   5.941  12.776
    1STR  O0B   1032   4.193   6.069  12.876
    1STR  C0C   1033   4.132   6.192  12.829
    1STR  C0D   1034   4.017   6.232  12.923
    1STR  C0E   1035   4.236   6.306  12.815
    1STR  O0F   1036   4.175   6.426  12.765
    1STR  C0G   1037   4.262   6.539  12.748
    1STR  C0H   1038   4.345   6.520  12.619
    1STR  C0I   1039   4.179   6.670  12.742
    1STR  O0J   1040   4.264   6.787  12.738
    1STR  C0K   1041   4.198   6.915  12.739
    1STR  C0M   1042   4.146   6.945  12.881
    1STR  C0N   1043   4.298   7.027  12.696
    1STR  O0O   1044   4.236   7.155  12.674
    1STR  C0P   1045   4.264   7.267  12.746
    1STR  O0Q   1046   4.333   7.273  12.847
    1STR  N0R   1047   4.200   7.370  12.689
    1STR  C0S   1048   4.167   7.503  12.721
    1STR  C0T   1049   4.048   7.545  12.659
    1STR  C0U   1050   3.983   7.662  12.700
    1STR  C0V   1051   4.042   7.745  12.795
    1STR  C0W   1052   3.955   7.839  12.877
    1STR  C0X   1053   4.179   7.728  12.825
    1STR  N0Y   1054   4.249   7.843  12.868
    1STR  BCK2  1055   4.224   7.967  12.819
    1STR  O10   1056   4.286   8.066  12.856
    1STR  C13   1057   4.238   7.599  12.801
    1STR  C14   1058   4.064   5.657  12.813
    1STR  C15   1059   4.041   5.521  12.794
    1STR  C16   1060   4.126   5.424  12.851
    1STR  C17   1061   4.100   5.281  12.808
    1STR  H1B   1062   4.412   5.406  13.016
    1STR  H1C   1063   4.339   5.637  13.012
    1STR  H1D   1064   4.281   5.872  12.954
    1STR  H1E   1065   4.090   6.175  12.729
    1STR  H1F   1066   4.053   6.251  13.024
    1STR  H1G   1067   3.968   6.322  12.888
    1STR  H1H   1068   3.941   6.154  12.928
    1STR  H1I   1069   4.314   6.272  12.747
    1STR  H1J   1070   4.283   6.325  12.912
    1STR  H1K   1071   4.329   6.546  12.834
    1STR  H1M   1072   4.281   6.510  12.532
    1STR  H1N   1073   4.410   6.433  12.624
    1STR  H1O   1074   4.410   6.606  12.603
    1STR  H1P   1075   4.113   6.668  12.655
    1STR  H1Q   1076   4.115   6.672  12.830
    1STR  H1R   1077   4.115   6.913  12.668
    1STR  H1S   1078   4.096   7.042  12.883
    1STR  H1T   1079   4.228   6.948  12.952
    1STR  H1U   1080   4.074   6.871  12.916
    1STR  H1V   1081   4.341   6.997  12.600
    1STR  H1W   1082   4.381   7.034  12.765
    1STR  H1X   1083   4.153   7.333  12.608
    1STR  H1Y   1084   3.999   7.483  12.585
    1STR  H1Z   1085   3.884   7.685  12.662
    1STR  H20   1086   3.976   7.821  12.983
    1STR  H21   1087   3.971   7.945  12.859
    1STR  H22   1088   3.849   7.818  12.862
    1STR  H23   1089   4.330   7.835  12.928
    1STR  H27   1090   4.335   7.574  12.840
    1STR  H28   1091   3.994   5.722  12.764
    1STR  H29   1092   3.958   5.490  12.732
    1STR  H2A   1093   4.194   5.230  12.789
    1STR  H2B   1094   4.042   5.277  12.716
    1STR  H2C   1095   4.043   5.229  12.885
    1STR  BCK1  1096   4.281   9.620  13.079
    1STR  O03   1097   4.351   9.529  13.121
    1STR  N04   1098   4.279   9.750  13.120
    1STR  C05   1099   4.324   9.827  13.231
    1STR  C06   1100   4.323   9.970  13.219
    1STR  C07   1101   4.355  10.060  13.327
    1STR  N08   1102   4.347  10.201  13.311
    1STR  C09   1103   4.363  10.302  13.400
    1STR  O0A   1104   4.392  10.287  13.518
    1STR  O0B   1105   4.343  10.426  13.344
    1STR  C0C   1106   4.358  10.547  13.422
    1STR  C0D   1107   4.507  10.586  13.430
    1STR  C0E   1108   4.273  10.663  13.363
    1STR  O0F   1109   4.285  10.786  13.439
    1STR  C0G   1110   4.209  10.900  13.392
    1STR  C0H   1111   4.061  10.881  13.430
    1STR  C0I   1112   4.265  11.033  13.452
    1STR  O0J   1113   4.200  11.151  13.398
    1STR  C0K   1114   4.250  11.282  13.437
    1STR  C0M   1115   4.386  11.307  13.370
    1STR  C0N   1116   4.150  11.395  13.396
    1STR  O0O   1117   4.189  11.532  13.425
    1STR  C0P   1118   4.194  11.632  13.328
    1STR  O0Q   1119   4.192  11.613  13.208
    1STR  N0R   1120   4.201  11.753  13.387
    1STR  C0S   1121   4.217  11.889  13.349
    1STR  C0T   1122   4.260  11.969  13.457
    1STR  C0U   1123   4.295  12.103  13.439
    1STR  C0V   1124   4.286  12.165  13.312
    1STR  C0W   1125   4.361  12.295  13.296
    1STR  C0X   1126   4.225  12.098  13.202
    1STR  N0Y   1127   4.210  12.165  13.075
    1STR  BCK2  1128   4.164  12.289  13.036
    1STR  O10   1129   4.172  12.326  12.919
    1STR  C13   1130   4.198  11.956  13.222
    1STR  C14   1131   4.392  10.000  13.449
    1STR  C15   1132   4.396   9.860  13.464
    1STR  C16   1133   4.361   9.774  13.358
    1STR  C17   1134   4.362   9.626  13.390
    1STR  H1B   1135   4.234   9.807  13.051
    1STR  H1C   1136   4.295  10.014  13.125
    1STR  H1D   1137   4.324  10.236  13.220
    1STR  H1E   1138   4.322  10.528  13.524
    1STR  H1F   1139   4.548  10.606  13.331
    1STR  H1G   1140   4.519  10.677  13.489
    1STR  H1H   1141   4.566  10.508  13.477
    1STR  H1I   1142   4.169  10.631  13.361
    1STR  H1J   1143   4.303  10.681  13.260
    1STR  H1K   1144   4.219  10.906  13.284
    1STR  H1M   1145   4.049  10.870  13.538
    1STR  H1N   1146   4.017  10.793  13.382
    1STR  H1O   1147   4.002  10.967  13.398
    1STR  H1P   1148   4.256  11.031  13.561
    1STR  H1Q   1149   4.372  11.035  13.431
    1STR  H1R   1150   4.263  11.283  13.546
    1STR  H1S   1151   4.426  11.403  13.400
    1STR  H1T   1152   4.374  11.308  13.261
    1STR  H1U   1153   4.461  11.232  13.395
    1STR  H1V   1154   4.057  11.377  13.450
    1STR  H1W   1155   4.124  11.385  13.291
    1STR  H1X   1156   4.200  11.737  13.486
    1STR  H1Y   1157   4.272  11.927  13.556
    1STR  H1Z   1158   4.337  12.156  13.523
    1STR  H20   1159   4.436  12.283  13.219
    1STR  H21   1160   4.296  12.379  13.270
    1STR  H22   1161   4.415  12.321  13.388
    1STR  H23   1162   4.240  12.111  12.996
    1STR  H27   1163   4.163  11.896  13.139
    1STR  H28   1164   4.418  10.058  13.536
    1STR  H29   1165   4.424   9.820  13.560
    1STR  H2A   1166   4.274   9.576  13.350
    1STR  H2B   1167   4.361   9.608  13.498
    1STR  H2C   1168   4.452   9.579  13.349
    1STR  BCK1  1169   4.316  13.983  17.380
    1STR  O03   1170   4.297  13.919  17.277
    1STR  N04   1171   4.378  14.103  17.394
    1STR  C05   1172   4.451  14.187  17.306
    1STR  C06   1173   4.450  14.329  17.327
    1STR  C07   1174   4.522  14.420  17.244
    1STR  N08   1175   4.520  14.560  17.268
    1STR  C09   1176   4.571  14.664  17.197
    1STR  O0A   1177   4.629  14.652  17.089
    1STR  O0B   1178   4.551  14.786  17.256
    1STR  C0C   1179   4.592  14.908  17.190
    1STR  C0D   1180   4.488  14.948  17.084
    1STR  C0E   1181   4.615  15.025  17.291
    1STR  O0F   1182   4.658  15.147  17.227
    1STR  C0G   1183   4.682  15.261  17.313
    1STR  C0H   1184   4.817  15.241  17.385
    1STR  C0I   1185   4.681  15.394  17.231
    1STR  O0J   1186   4.691  15.514  17.313
    1STR  C0K   1187   4.677  15.642  17.246
    1STR  C0M   1188   4.531  15.663  17.205
    1STR  C0N   1189   4.719  15.764  17.336
    1STR  O0O   1190   4.706  15.893  17.271
    1STR  C0P   1191   4.613  15.990  17.305
    1STR  O0Q   1192   4.524  15.978  17.389
    1STR  N0R   1193   4.638  16.102  17.234
    1STR  C0S   1194   4.592  16.235  17.214
    1STR  C0T   1195   4.690  16.313  17.149
    1STR  C0U   1196   4.669  16.447  17.118
    1STR  C0V   1197   4.547  16.511  17.148
    1STR  C0W   1198   4.544  16.661  17.125
    1STR  C0X   1199   4.439  16.439  17.206
    1STR  N0Y   1200   4.314  16.505  17.231
    1STR  BCK2  1201   4.256  16.616  17.175
    1STR  O10   1202   4.149  16.662  17.217
    1STR  C13   1203   4.466  16.300  17.243
    1STR  C14   1204   4.596  14.364  17.137
    1STR  C15   1205   4.603  14.225  17.118
    1STR  C16   1206   4.536  14.136  17.204
    1STR  C17   1207   4.565  13.989  17.185
    1STR  H1B   1208   4.365  14.141   0.046
    1STR  H1C   1209   4.391  14.369  17.408
    1STR  H1D   1210   4.475  14.593  17.352
    1STR  H1E   1211   4.687  14.890  17.139
    1STR  H1F   1212   4.390  14.967  17.129
    1STR  H1G   1213   4.518  15.038  17.031
    1STR  H1H   1214   4.476  14.870  17.009
    1STR  H1I   1215   4.690  14.992  17.363
    1STR  H1J   1216   4.524  15.042  17.347
    1STR  H1K   1217   4.602  15.267  17.387
    1STR  H1M   1218   4.898  15.230  17.313
    1STR  H1N   1219   4.817  15.154   0.009
    1STR  H1O   1220   4.840  15.327   0.008
    1STR  H1P   1221   4.762  15.392  17.158
    1STR  H1Q   1222   4.589  15.395  17.174
    1STR  H1R   1223   4.741  15.642  17.157
    1STR  H1S   1224   4.520  15.758  17.153
    1STR  H1T   1225   4.467  15.666  17.293
    1STR  H1U   1226   4.494  15.586  17.137
    1STR  H1V   1227   4.824  15.750  17.363
    1STR  H1W   1228   4.665  15.762  17.431
    1STR  H1X   1229   4.721  16.080  17.182
    1STR  H1Y   1230   4.786  16.271  17.123
    1STR  H1Z   1231   4.749  16.502  17.072
    1STR  H20   1232   4.462  16.693  17.062
    1STR  H21   1233   4.539  16.712  17.221
    1STR  H22   1234   4.635  16.696  17.074
    1STR  H23   1235   4.257  16.466  17.304
    1STR  H27   1236   4.390  16.241  17.292
    1STR  H28   1237   4.652  14.425  17.068
    1STR  H29   1238   4.664  14.187  17.038
    1STR  H2A   1239   4.569  13.937  17.281
    1STR  H2B   1240   4.661  13.973  17.136
    1STR  H2C   1241   4.488  13.942  17.123
    1STR  BCK1  1242  12.983   0.887   4.306
    1STR  O03   1243  13.079   0.813   4.321
    1STR  N04   1244  12.991   1.021   4.317
    1STR  C05   1245  12.887   1.111   4.349
    1STR  C06   1246  12.911   1.252   4.341
    1STR  C07   1247  12.812   1.348   4.380
    1STR  N08   1248  12.836   1.487   4.369
    1STR  C09   1249  12.754   1.591   4.393
    1STR  O0A   1250  12.638   1.582   4.431
    1STR  O0B   1251  12.813   1.711   4.368
    1STR  C0C   1252  12.739   1.833   4.389
    1STR  C0D   1253  12.746   1.873   4.538
    1STR  C0E   1254  12.792   1.945   4.298
    1STR  O0F   1255  12.716   2.065   4.315
    1STR  C0G   1256  12.757   2.177   4.235
    1STR  C0H   1257  12.706   2.159   4.092
    1STR  C0I   1258  12.701   2.307   4.299
    1STR  O0J   1259  12.750   2.423   4.229
    1STR  C0K   1260  12.710   2.551   4.282
    1STR  C0M   1261  12.791   2.583   4.408
    1STR  C0N   1262  12.733   2.661   4.175
    1STR  O0O   1263  12.679   2.788   4.213
    1STR  C0P   1264  12.754   2.900   4.222
    1STR  O0Q   1265  12.876   2.906   4.215
    1STR  N0R   1266  12.673   3.004   4.243
    1STR  C0S   1267  12.691   3.141   4.269
    1STR  C0T   1268  12.589   3.200   4.346
    1STR  C0U   1269  12.600   3.332   4.392
    1STR  C0V   1270  12.709   3.412   4.352
    1STR  C0W   1271  12.739   3.539   4.431
    1STR  C0X   1272  12.797   3.365   4.251
    1STR  N0Y   1273  12.878   3.459   4.186
    1STR  BCK2  1274  12.831   3.573   4.131
    1STR  O10   1275  12.904   3.656   4.078
    1STR  C13   1276  12.795   3.225   4.219
    1STR  C14   1277  12.690   1.298   4.429
    1STR  C15   1278  12.665   1.160   4.436
    1STR  C16   1279  12.760   1.066   4.395
    1STR  C17   1280  12.720   0.921   4.409
    1STR  H1B   1281  13.085   1.055   4.313
    1STR  H1C   1282  13.006   1.287   4.306
    1STR  H1D   1283  12.927   1.517   4.339
    1STR  H1E   1284  12.635   1.817   4.362
    1STR  H1F   1285  12.848   1.891   4.570
    1STR  H1G   1286  12.688   1.964   4.556
    1STR  H1H   1287  12.703   1.795   4.602
    1STR  H1I   1288  12.787   1.911   4.195
    1STR  H1J   1289  12.898   1.964   4.320
    1STR  H1K   1290  12.866   2.184   4.236
    1STR  H1M   1291  12.597   2.149   4.089
    1STR  H1N   1292  12.748   2.072   4.043
    1STR  H1O   1293  12.732   2.245   4.030
    1STR  H1P   1294  12.592   2.305   4.298
    1STR  H1Q   1295  12.731   2.310   4.403
    1STR  H1R   1296  12.603   2.548   4.306
    1STR  H1S   1297  12.763   2.680   4.449
    1STR  H1T   1298  12.898   2.587   4.385
    1STR  H1U   1299  12.777   2.510   4.488
    1STR  H1V   1300  12.681   2.631   4.083
    1STR  H1W   1301  12.838   2.668   4.148
    1STR  H1X   1302  12.578   2.970   4.248
    1STR  H1Y   1303  12.503   3.142   4.377
    1STR  H1Z   1304  12.526   3.371   4.460
    1STR  H20   1305  12.833   3.523   4.484
    1STR  H21   1306  12.752   3.627   4.369
    1STR  H22   1307  12.663   3.560   4.505
    1STR  H23   1308  12.976   3.441   4.173
    1STR  H27   1309  12.871   3.183   4.154
    1STR  H28   1310  12.610   1.361   4.464
    1STR  H29   1311  12.569   1.128   4.474
    1STR  H2A   1312  12.723   0.872   4.312
    1STR  H2B   1313  12.619   0.909   4.447
    1STR  H2C   1314  12.787   0.869   4.478
    1STR  BCK1  1315  13.052   5.262  17.433
    1STR  O03   1316  13.137   5.178  17.404
    1STR  N04   1317  13.072   5.388   0.042
    1STR  C05   1318  13.181   5.465   0.091
    1STR  C06   1319  13.170   5.609   0.091
    1STR  C07   1320  13.270   5.697   0.143
    1STR  N08   1321  13.253   5.839   0.145
    1STR  C09   1322  13.333   5.939   0.188
    1STR  O0A   1323  13.445   5.923   0.236
    1STR  O0B   1324  13.276   6.064   0.173
    1STR  C0C   1325  13.348   6.185   0.210
    1STR  C0D   1326  13.445   6.225   0.097
    1STR  C0E   1327  13.251   6.304   0.242
    1STR  O0F   1328  13.319   6.427   0.278
    1STR  C0G   1329  13.236   6.542   0.310
    1STR  C0H   1330  13.176   6.522   0.450
    1STR  C0I   1331  13.316   6.677   0.302
    1STR  O0J   1332  13.234   6.797   0.319
    1STR  C0K   1333  13.296   6.927   0.299
    1STR  C0M   1334  13.327   6.947   0.150
    1STR  C0N   1335  13.203   7.046   0.347
    1STR  O0O   1336  13.249   7.182   0.318
    1STR  C0P   1337  13.180   7.274   0.238
    1STR  O0Q   1338  13.084   7.247   0.166
    1STR  N0R   1339  13.232   7.398   0.252
    1STR  C0S   1340  13.218   7.532   0.200
    1STR  C0T   1341  13.313   7.618   0.256
    1STR  C0U   1342  13.326   7.751   0.214
    1STR  C0V   1343  13.242   7.805   0.114
    1STR  C0W   1344  13.282   7.944   0.069
    1STR  C0X   1345  13.135   7.731   0.057
    1STR  N0Y   1346  13.044   7.784  17.397
    1STR  BCK2  1347  13.000   7.906  17.344
    1STR  O10   1348  13.031   8.018  17.381
    1STR  C13   1349  13.128   7.590   0.102
    1STR  C14   1350  13.386   5.636   0.196
    1STR  C15   1351  13.400   5.496   0.199
    1STR  C16   1352  13.299   5.411   0.150
    1STR  C17   1353  13.321   5.262   0.170
    1STR  H1B   1354  12.986   5.440   0.040
    1STR  H1C   1355  13.081   5.653   0.049
    1STR  H1D   1356  13.167   5.875   0.108
    1STR  H1E   1357  13.407   6.165   0.300
    1STR  H1F   1358  13.392   6.245   0.004
    1STR  H1G   1359  13.501   6.315   0.123
    1STR  H1H   1360  13.519   6.146   0.078
    1STR  H1I   1361  13.186   6.272   0.324
    1STR  H1J   1362  13.187   6.322   0.156
    1STR  H1K   1363  13.155   6.548   0.236
    1STR  H1M   1364  13.254   6.511   0.525
    1STR  H1N   1365  13.111   6.434   0.455
    1STR  H1O   1366  13.115   6.608   0.478
    1STR  H1P   1367  13.396   6.675   0.376
    1STR  H1Q   1368  13.365   6.678   0.205
    1STR  H1R   1369  13.389   6.930   0.356
    1STR  H1S   1370  13.376   7.043   0.135
    1STR  H1T   1371  13.234   6.948   0.093
    1STR  H1U   1372  13.392   6.871   0.109
    1STR  H1V   1373  13.194   7.038   0.455
    1STR  H1W   1374  13.103   7.032   0.308
    1STR  H1X   1375  13.304   7.389   0.321
    1STR  H1Y   1376  13.382   7.583   0.332
    1STR  H1Z   1377  13.404   7.810   0.258
    1STR  H20   1378  13.273   7.954  17.401
    1STR  H21   1379  13.221   8.020   0.119
    1STR  H22   1380  13.387   7.965   0.093
    1STR  H23   1381  12.994   7.709  17.353
    1STR  H27   1382  13.053   7.525   0.061
    1STR  H28   1383  13.468   5.693   0.237
    1STR  H29   1384  13.489   5.455   0.242
    1STR  H2A   1385  13.230   5.213   0.200
    1STR  H2B   1386  13.395   5.243   0.248
    1STR  H2C   1387  13.358   5.217   0.078
    1STR  BCK1  1388  13.015   5.252  13.039
    1STR  O03   1389  12.917   5.197  12.991
    1STR  N04   1390  13.066   5.373  13.006
    1STR  C05   1391  13.037   5.464  12.902
    1STR  C06   1392  13.050   5.605  12.923
    1STR  C07   1393  13.023   5.702  12.821
    1STR  N08   1394  13.040   5.841  12.843
    1STR  C09   1395  13.014   5.947  12.762
    1STR  O0A   1396  12.965   5.938  12.650
    1STR  O0B   1397  13.048   6.067  12.817
    1STR  C0C   1398  13.022   6.190  12.745
    1STR  C0D   1399  12.875   6.230  12.763
    1STR  C0E   1400  13.117   6.304  12.788
    1STR  O0F   1401  13.093   6.425  12.714
    1STR  C0G   1402  13.176   6.538  12.747
    1STR  C0H   1403  13.314   6.520  12.684
    1STR  C0I   1404  13.109   6.669  12.698
    1STR  O0J   1405  13.181   6.786  12.742
    1STR  C0K   1406  13.123   6.914  12.710
    1STR  C0M   1407  13.002   6.941  12.800
    1STR  C0N   1408  13.226   7.029  12.730
    1STR  O0O   1409  13.174   7.157  12.690
    1STR  C0P   1410  13.147   7.261  12.776
    1STR  O0Q   1411  13.155   7.260  12.898
    1STR  N0R   1412  13.113   7.365  12.699
    1STR  C0S   1413  13.076   7.501  12.702
    1STR  C0T   1414  13.083   7.554  12.572
    1STR  C0U   1415  13.049   7.686  12.546
    1STR  C0V   1416  13.005   7.772  12.647
    1STR  C0W   1417  12.978   7.914  12.604
    1STR  C0X   1418  12.990   7.724  12.781
    1STR  N0Y   1419  12.939   7.811  12.881
    1STR  BCK2  1420  12.871   7.929  12.868
    1STR  O10   1421  12.840   7.997  12.965
    1STR  C13   1422  13.030   7.587  12.808
    1STR  C14   1423  12.979   5.652  12.697
    1STR  C15   1424  12.970   5.515  12.672
    1STR  C16   1425  13.003   5.421  12.771
    1STR  C17   1426  13.008   5.276  12.727
    1STR  H1B   1427  13.134   5.406  13.073
    1STR  H1C   1428  13.081   5.640  13.020
    1STR  H1D   1429  13.079   5.871  12.931
    1STR  H1E   1430  13.040   6.172  12.638
    1STR  H1F   1431  12.851   6.249  12.868
    1STR  H1G   1432  12.852   6.321  12.707
    1STR  H1H   1433  12.807   6.152  12.726
    1STR  H1I   1434  13.220   6.270  12.773
    1STR  H1J   1435  13.105   6.323  12.895
    1STR  H1K   1436  13.185   6.544  12.856
    1STR  H1M   1437  13.307   6.509  12.576
    1STR  H1N   1438  13.367   6.432  12.722
    1STR  H1O   1439  13.378   6.606  12.705
    1STR  H1P   1440  13.100   6.668  12.589
    1STR  H1Q   1441  13.007   6.671  12.737
    1STR  H1R   1442  13.092   6.914  12.605
    1STR  H1S   1443  12.957   7.037  12.775
    1STR  H1T   1444  13.032   6.946  12.904
    1STR  H1U   1445  12.924   6.866  12.790
    1STR  H1V   1446  13.313   7.008  12.667
    1STR  H1W   1447  13.264   7.032  12.832
    1STR  H1X   1448  13.123   7.329  12.606
    1STR  H1Y   1449  13.116   7.494  12.489
    1STR  H1Z   1450  13.057   7.723  12.445
    1STR  H20   1451  12.870   7.931  12.603
    1STR  H21   1452  13.027   7.984  12.671
    1STR  H22   1453  13.015   7.935  12.504
    1STR  H23   1454  12.952   7.785  12.978
    1STR  H27   1455  13.024   7.547  12.908
    1STR  H28   1456  12.953   5.716  12.614
    1STR  H29   1457  12.940   5.481  12.574
    1STR  H2A   1458  13.088   5.222  12.779
    1STR  H2B   1459  13.028   5.268  12.620
    1STR  H2C   1460  12.913   5.227  12.747
    1STR  BCK1  1461  12.991  13.981   8.690
    1STR  O03   1462  13.027  13.888   8.762
    1STR  N04   1463  12.978  14.112   8.722
    1STR  C05   1464  12.959  14.190   8.840
    1STR  C06   1465  12.966  14.333   8.827
    1STR  C07   1466  12.938  14.423   8.934
    1STR  N08   1467  12.942  14.563   8.914
    1STR  C09   1468  12.909  14.665   8.996
    1STR  O0A   1469  12.870  14.652   9.112
    1STR  O0B   1470  12.924  14.787   8.937
    1STR  C0C   1471  12.895  14.909   9.009
    1STR  C0D   1472  13.017  14.949   9.095
    1STR  C0E   1473  12.855  15.023   8.912
    1STR  O0F   1474  12.823  15.145   8.983
    1STR  C0G   1475  12.785  15.258   8.902
    1STR  C0H   1476  12.640  15.240   8.854
    1STR  C0I   1477  12.800  15.390   8.984
    1STR  O0J   1478  12.774  15.507   8.903
    1STR  C0K   1479  12.794  15.636   8.965
    1STR  C0M   1480  12.944  15.665   8.979
    1STR  C0N   1481  12.726  15.748   8.878
    1STR  O0O   1482  12.735  15.881   8.933
    1STR  C0P   1483  12.784  15.988   8.861
    1STR  O0Q   1484  12.848  15.981   8.757
    1STR  N0R   1485  12.752  16.102   8.924
    1STR  C0S   1486  12.780  16.240   8.907
    1STR  C0T   1487  12.773  16.313   9.027
    1STR  C0U   1488  12.812  16.447   9.032
    1STR  C0V   1489  12.852  16.515   8.916
    1STR  C0W   1490  12.930  16.644   8.936
    1STR  C0X   1491  12.839  16.455   8.788
    1STR  N0Y   1492  12.866  16.530   8.670
    1STR  BCK2  1493  12.814  16.648   8.625
    1STR  O10   1494  12.853  16.700   8.520
    1STR  C13   1495  12.812  16.313   8.787
    1STR  C14   1496  12.905  14.366   9.058
    1STR  C15   1497  12.898  14.226   9.074
    1STR  C16   1498  12.924  14.138   8.967
    1STR  C17   1499  12.908  13.991   8.998
    1STR  H1B   1500  12.984  14.168   8.639
    1STR  H1C   1501  12.993  14.375   8.731
    1STR  H1D   1502  12.972  14.598   8.825
    1STR  H1E   1503  12.810  14.891   9.076
    1STR  H1F   1504  13.105  14.968   9.033
    1STR  H1G   1505  12.996  15.040   9.151
    1STR  H1H   1506  13.042  14.871   9.167
    1STR  H1I   1507  12.769  14.990   8.854
    1STR  H1J   1508  12.936  15.042   8.842
    1STR  H1K   1509  12.851  15.265   8.816
    1STR  H1M   1510  12.571  15.229   8.939
    1STR  H1N   1511  12.628  15.152   8.791
    1STR  H1O   1512  12.607  15.326   8.796
    1STR  H1P   1513  12.734  15.388   9.070
    1STR  H1Q   1514  12.902  15.393   9.023
    1STR  H1R   1515  12.747  15.636   9.064
    1STR  H1S   1516  12.960  15.762   9.025
    1STR  H1T   1517  12.991  15.668   8.881
    1STR  H1U   1518  12.996  15.591   9.039
    1STR  H1V   1519  12.620  15.724   8.869
    1STR  H1W   1520  12.766  15.745   8.777
    1STR  H1X   1521  12.702  16.078   9.008
    1STR  H1Y   1522  12.745  16.265   9.120
    1STR  H1Z   1523  12.816  16.495   9.129
    1STR  H20   1524  13.034  16.625   8.910
    1STR  H21   1525  12.894  16.726   8.874
    1STR  H22   1526  12.930  16.676   9.040
    1STR  H23   1527  12.935  16.492   8.608
    1STR  H27   1528  12.814  16.258   8.694
    1STR  H28   1529  12.882  14.425   9.145
    1STR  H29   1530  12.872  14.188   9.171
    1STR  H2A   1531  12.849  13.941   8.921
    1STR  H2B   1532  12.857  13.974   9.093
    1STR  H2C   1533  13.006  13.944   9.005
    1STR  BCK1  1534  13.058  13.984  13.028
    1STR  O03   1535  13.093  13.914  12.934
    1STR  N04   1536  13.107  14.105  13.065
    1STR  C05   1537  13.217  14.186  13.025
    1STR  C06   1538  13.208  14.329  13.040
    1STR  C07   1539  13.314  14.419  13.005
    1STR  N08   1540  13.303  14.559  13.024
    1STR  C09   1541  13.385  14.661  12.990
    1STR  O0A   1542  13.492  14.647  12.930
    1STR  O0B   1543  13.338  14.785  13.028
    1STR  C0C   1544  13.410  14.907  12.994
    1STR  C0D   1545  13.379  14.946  12.849
    1STR  C0E   1546  13.376  15.025  13.091
    1STR  O0F   1547  13.445  15.148  13.060
    1STR  C0G   1548  13.420  15.262  13.145
    1STR  C0H   1549  13.495  15.242  13.278
    1STR  C0I   1550  13.463  15.397  13.076
    1STR  O0J   1551  13.427  15.517  13.150
    1STR  C0K   1552  13.450  15.646  13.086
    1STR  C0M   1553  13.349  15.665  12.972
    1STR  C0N   1554  13.433  15.769  13.184
    1STR  O0O   1555  13.446  15.901  13.122
    1STR  C0P   1556  13.343  15.994  13.109
    1STR  O0Q   1557  13.225  15.974  13.137
    1STR  N0R   1558  13.392  16.111  13.063
    1STR  C0S   1559  13.352  16.244  13.025
    1STR  C0T   1560  13.465  16.326  13.008
    1STR  C0U   1561  13.453  16.459  12.968
    1STR  C0V   1562  13.329  16.519  12.942
    1STR  C0W   1563  13.334  16.667  12.908
    1STR  C0X   1564  13.208  16.444  12.955
    1STR  N0Y   1565  13.079  16.507  12.932
    1STR  BCK2  1566  13.034  16.622  12.871
    1STR  O10   1567  12.917  16.657  12.874
    1STR  C13   1568  13.223  16.305  12.999
    1STR  C14   1569  13.431  14.360  12.953
    1STR  C15   1570  13.444  14.221  12.942
    1STR  C16   1571  13.341  14.133  12.980
    1STR  C17   1572  13.372  13.985  12.979
    1STR  H1B   1573  13.050  14.148  13.136
    1STR  H1C   1574  13.117  14.371  13.079
    1STR  H1D   1575  13.220  14.594  13.070
    1STR  H1E   1576  13.517  14.887  13.003
    1STR  H1F   1577  13.273  14.965  12.834
    1STR  H1G   1578  13.433  15.037  12.821
    1STR  H1H   1579  13.409  14.868  12.779
    1STR  H1I   1580  13.401  14.992  13.193
    1STR  H1J   1581  13.268  15.042  13.090
    1STR  H1K   1582  13.313  15.268  13.165
    1STR  H1M   1583  13.602  15.231  13.262
    1STR  H1N   1584  13.461  15.155  13.333
    1STR  H1O   1585  13.481  15.328  13.344
    1STR  H1P   1586  13.570  15.395  13.058
    1STR  H1Q   1587  13.416  15.398  12.978
    1STR  H1R   1588  13.551  15.647  13.047
    1STR  H1S   1589  13.366  15.760  12.922
    1STR  H1T   1590  13.248  15.667  13.012
    1STR  H1U   1591  13.355  15.587  12.896
    1STR  H1V   1592  13.511  15.760  13.260
    1STR  H1W   1593  13.339  15.762  13.239
    1STR  H1X   1594  13.491  16.096  13.058
    1STR  H1Y   1595  13.565  16.288  13.026
    1STR  H1Z   1596  13.544  16.517  12.958
    1STR  H20   1597  13.266  16.695  12.828
    1STR  H21   1598  13.313  16.725  12.998
    1STR  H22   1599  13.433  16.695  12.873
    1STR  H23   1600  13.001  16.457  12.972
    1STR  H27   1601  13.136  16.243  13.013
    1STR  H28   1602  13.516  14.419  12.923
    1STR  H29   1603  13.537  14.181  12.904
    1STR  H2A   1604  13.328  13.935  13.065
    1STR  H2B   1605  13.480  13.968  12.983
    1STR  H2C   1606  13.335  13.939  12.887
    1STR  BCK1  1607   0.088  13.102   5.253
    1STR  O03   1608   0.013  13.159   5.174
    1STR  N04   1609   0.090  13.121   5.387
    1STR  C05   1610   0.100  13.234   5.470
    1STR  C06   1611   0.095  13.214   5.612
    1STR  C07   1612   0.113  13.320   5.705
    1STR  N08   1613   0.112  13.296   5.844
    1STR  C09   1614   0.134  13.379   5.948
    1STR  O0A   1615   0.160  13.498   5.938
    1STR  O0B   1616   0.126  13.316   6.067
    1STR  C0C   1617   0.146  13.390   6.189
    1STR  C0D   1618   0.014  13.459   6.230
    1STR  C0E   1619   0.198  13.297   6.300
    1STR  O0F   1620   0.223  13.373   6.419
    1STR  C0G   1621   0.270  13.298   6.531
    1STR  C0H   1622   0.420  13.269   6.515
    1STR  C0I   1623   0.242  13.379   6.658
    1STR  O0J   1624   0.277  13.302   6.772
    1STR  C0K   1625   0.257  13.364   6.899
    1STR  C0M   1626   0.108  13.354   6.938
    1STR  C0N   1627   0.348  13.293   7.000
    1STR  O0O   1628   0.346  13.359   7.126
    1STR  C0P   1629   0.277  13.308   7.229
    1STR  O0Q   1630   0.209  13.206   7.225
    1STR  N0R   1631   0.295  13.385   7.336
    1STR  C0S   1632   0.246  13.374   7.467
    1STR  C0T   1633   0.271  13.483   7.554
    1STR  C0U   1634   0.222  13.482   7.686
    1STR  C0V   1635   0.150  13.371   7.735
    1STR  C0W   1636   0.089  13.379   7.874
    1STR  C0X   1637   0.132  13.257   7.652
    1STR  N0Y   1638   0.070  13.142   7.699
    1STR  BCK2  1639   0.096  13.084   7.816
    1STR  O10   1640   0.034  12.986   7.853
    1STR  C13   1641   0.177  13.262   7.518
    1STR  C14   1642   0.133  13.450   5.653
    1STR  C15   1643   0.139  13.472   5.515
    1STR  C16   1644   0.124  13.366   5.423
    1STR  C17   1645   0.139  13.403   5.277
    1STR  H1B   1646   0.083  13.033   5.435
    1STR  H1C   1647   0.078  13.115   5.650
    1STR  H1D   1648   0.092  13.202   5.876
    1STR  H1E   1649   0.222  13.467   6.173
    1STR  H1F   1650  17.375  13.387   6.249
    1STR  H1G   1651   0.028  13.517   6.321
    1STR  H1H   1652  17.420  13.528   6.153
    1STR  H1I   1653   0.290  13.249   6.266
    1STR  H1J   1654   0.126  13.218   6.320
    1STR  H1K   1655   0.215  13.204   6.538
    1STR  H1M   1656   0.477  13.361   6.506
    1STR  H1N   1657   0.442  13.207   6.428
    1STR  H1O   1658   0.458  13.215   6.603
    1STR  H1P   1659   0.298  13.473   6.656
    1STR  H1Q   1660   0.136  13.405   6.661
    1STR  H1R   1661   0.287  13.469   6.894
    1STR  H1S   1662   0.091  13.400   7.035
    1STR  H1T   1663   0.077  13.250   6.946
    1STR  H1U   1664   0.042  13.403   6.867
    1STR  H1V   1665   0.451  13.295   6.964
    1STR  H1W   1666   0.321  13.187   7.008
    1STR  H1X   1667   0.353  13.464   7.314
    1STR  H1Y   1668   0.325  13.570   7.520
    1STR  H1Z   1669   0.239  13.567   7.749
    1STR  H20   1670  17.428  13.337   7.873
    1STR  H21   1671   0.149  13.323   7.946
    1STR  H22   1672   0.080  13.482   7.908
    1STR  H23   1673   0.006  13.092   7.640
    1STR  H27   1674   0.160  13.176   7.455
    1STR  H28   1675   0.147  13.537   5.715
    1STR  H29   1676   0.156  13.572   5.480
    1STR  H2A   1677   0.213  13.340   5.228
    1STR  H2B   1678   0.171  13.506   5.263
    1STR  H2C   1679   0.043  13.393   5.226
    1STR  BCK1  1680   4.374   4.372  13.985
    1STR  O03   1681   4.357   4.281  13.905
    1STR  N04   1682   4.321   4.383  14.110
    1STR  C05   1683   4.224   4.314  14.186
    1STR  C06   1684   4.231   4.324  14.329
    1STR  C07   1685   4.136   4.264  14.417
    1STR  N08   1686   4.145   4.280  14.558
    1STR  C09   1687   4.068   4.233  14.658
    1STR  O0A   1688   3.969   4.162  14.643
    1STR  O0B   1689   4.112   4.274  14.781
    1STR  C0C   1690   4.044   4.232  14.901
    1STR  C0D   1691   4.093   4.092  14.943
    1STR  C0E   1692   4.066   4.334  15.016
    1STR  O0F   1693   3.997   4.294  15.135
    1STR  C0G   1694   4.014   4.380  15.249
    1STR  C0H   1695   3.923   4.504  15.234
    1STR  C0I   1696   3.980   4.302  15.378
    1STR  O0J   1697   4.005   4.384  15.492
    1STR  C0K   1698   3.979   4.324  15.619
    1STR  C0M   1699   4.096   4.231  15.658
    1STR  C0N   1700   3.962   4.437  15.722
    1STR  O0O   1701   3.925   4.388  15.851
    1STR  C0P   1702   4.014   4.382  15.951
    1STR  O0Q   1703   4.133   4.411  15.941
    1STR  N0R   1704   3.954   4.339  16.062
    1STR  C0S   1705   4.003   4.312  16.190
    1STR  C0T   1706   3.912   4.262  16.285
    1STR  C0U   1707   3.956   4.225  16.414
    1STR  C0V   1708   4.091   4.238  16.450
    1STR  C0W   1709   4.131   4.182  16.585
    1STR  C0X   1710   4.184   4.295  16.359
    1STR  N0Y   1711   4.322   4.311  16.384
    1STR  BCK2  1712   4.393   4.340  16.493
    1STR  O10   1713   4.349   4.370  16.604
    1STR  C13   1714   4.138   4.331  16.230
    1STR  C14   1715   4.031   4.191  14.357
    1STR  C15   1716   4.021   4.181  14.218
    1STR  C16   1717   4.114   4.243  14.132
    1STR  C17   1718   4.084   4.234  13.983
    1STR  H1B   1719   4.366   4.458  14.160
    1STR  H1C   1720   4.312   4.380  14.373
    1STR  H1D   1721   4.221   4.336  14.594
    1STR  H1E   1722   3.936   4.226  14.882
    1STR  H1F   1723   4.200   4.091  14.964
    1STR  H1G   1724   4.042   4.058  15.034
    1STR  H1H   1725   4.073   4.018  14.866
    1STR  H1I   1726   4.029   4.432  14.983
    1STR  H1J   1727   4.172   4.345  15.036
    1STR  H1K   1728   4.118   4.412  15.256
    1STR  H1M   1729   3.818   4.475  15.225
    1STR  H1N   1730   3.948   4.564  15.147
    1STR  H1O   1731   3.932   4.568  15.321
    1STR  H1P   1732   3.876   4.271  15.376
    1STR  H1Q   1733   4.041   4.212  15.381
    1STR  H1R   1734   3.886   4.267  15.616
    1STR  H1S   1735   4.078   4.184  15.755
    1STR  H1T   1736   4.189   4.286  15.666
    1STR  H1U   1737   4.110   4.150  15.587
    1STR  H1V   1738   3.883   4.505  15.689
    1STR  H1W   1739   4.052   4.499  15.727
    1STR  H1X   1740   3.856   4.322  16.045
    1STR  H1Y   1741   3.808   4.248  16.261
    1STR  H1Z   1742   3.885   4.185  16.484
    1STR  H20   1743   4.234   4.148  16.587
    1STR  H21   1744   4.118   4.260  16.660
    1STR  H22   1745   4.070   4.096  16.611
    1STR  H23   1746   4.377   4.311  16.300
    1STR  H27   1747   4.208   4.372  16.160
    1STR  H28   1748   3.955   4.142  14.415
    1STR  H29   1749   3.938   4.125  14.176
    1STR  H2A   1750   4.105   4.329  13.933
    1STR  H2B   1751   3.979   4.211  13.965
    1STR  H2C   1752   4.144   4.155  13.938
    1STR  BCK1  1753   8.778   0.025  13.975
    1STR  O03   1754   8.865   0.089  13.918
    1STR  N04   1755   8.785  17.406  14.096
    1STR  C05   1756   8.892  17.383  14.185
    1STR  C06   1757   8.868  17.383  14.326
    1STR  C07   1758   8.972  17.358  14.421
    1STR  N08   1759   8.945  17.355  14.560
    1STR  C09   1760   9.029  17.337  14.664
    1STR  O0A   1761   9.150  17.322  14.655
    1STR  O0B   1762   8.964  17.337  14.784
    1STR  C0C   1763   9.040  17.322  14.906
    1STR  C0D   1764   9.098   0.019  14.948
    1STR  C0E   1765   8.953  17.261  15.017
    1STR  O0F   1766   9.031  17.243  15.135
    1STR  C0G   1767   8.961  17.191  15.248
    1STR  C0H   1768   8.945  17.039  15.234
    1STR  C0I   1769   9.039  17.227  15.375
    1STR  O0J   1770   8.962  17.185  15.488
    1STR  C0K   1771   9.021  17.208  15.616
    1STR  C0M   1772   9.001  17.354  15.658
    1STR  C0N   1773   8.952  17.109  15.712
    1STR  O0O   1774   9.015  17.106  15.839
    1STR  C0P   1775   8.963  17.172  15.943
    1STR  O0Q   1776   8.862  17.240  15.943
    1STR  N0R   1777   9.044  17.154  16.048
    1STR  C0S   1778   9.046  17.213  16.174
    1STR  C0T   1779   9.169  17.206  16.243
    1STR  C0U   1780   9.188  17.282  16.360
    1STR  C0V   1781   9.083  17.360  16.411
    1STR  C0W   1782   9.114   0.022  16.520
    1STR  C0X   1783   8.953  17.345  16.358
    1STR  N0Y   1784   8.842  17.387  16.430
    1STR  BCK2  1785   8.823  17.353  16.558
    1STR  O10   1786   8.719  17.381  16.617
    1STR  C13   1787   8.936  17.278  16.234
    1STR  C14   1788   9.102  17.336  14.370
    1STR  C15   1789   9.126  17.332  14.233
    1STR  C16   1790   9.023  17.351  14.140
    1STR  C17   1791   9.058  17.326  13.994
    1STR  H1B   1792   8.694  17.378  14.131
    1STR  H1C   1793   8.768  17.403  14.362
    1STR  H1D   1794   8.850  17.366  14.591
    1STR  H1E   1795   9.123  17.253  14.889
    1STR  H1F   1796   9.019   0.091  14.967
    1STR  H1G   1797   9.157   0.009  15.039
    1STR  H1H   1798   9.163   0.059  14.871
    1STR  H1I   1799   8.913  17.165  14.983
    1STR  H1J   1800   8.868  17.326  15.037
    1STR  H1K   1801   8.862  17.238  15.255
    1STR  H1M   1802   9.042  16.990  15.225
    1STR  H1N   1803   8.886  17.011  15.147
    1STR  H1O   1804   8.895  16.997  15.321
    1STR  H1P   1805   9.137  17.178  15.375
    1STR  H1Q   1806   9.056  17.334  15.378
    1STR  H1R   1807   9.128  17.184  15.613
    1STR  H1S   1808   9.046  17.373  15.756
    1STR  H1T   1809   8.895  17.378  15.666
    1STR  H1U   1810   9.046  17.424  15.588
    1STR  H1V   1811   8.960  17.008  15.671
    1STR  H1W   1812   8.845  17.130  15.720
    1STR  H1X   1813   9.121  17.094  16.023
    1STR  H1Y   1814   9.251  17.148  16.206
    1STR  H1Z   1815   9.285  17.283  16.408
    1STR  H20   1816   9.040   0.102  16.519
    1STR  H21   1817   9.117  17.417  16.618
    1STR  H22   1818   9.211   0.068  16.501
    1STR  H23   1819   8.760  17.423  16.383
    1STR  H27   1820   8.839  17.275  16.187
    1STR  H28   1821   9.187  17.319  14.433
    1STR  H29   1822   9.226  17.311  14.199
    1STR  H2A   1823   8.975  17.279  13.942
    1STR  H2B   1824   9.143  17.260  13.985
    1STR  H2C   1825   9.083  17.420  13.946
    1STR  BCK1  1826   8.779  13.131   9.622
    1STR  O03   1827   8.695  13.134   9.533
    1STR  N04   1828   8.764  13.165   9.752
    1STR  C05   1829   8.674  13.242   9.829
    1STR  C06   1830   8.682  13.230   9.972
    1STR  C07   1831   8.605  13.309  10.062
    1STR  N08   1832   8.621  13.296  10.202
    1STR  C09   1833   8.566  13.366  10.303
    1STR  O0A   1834   8.487  13.459  10.290
    1STR  O0B   1835   8.610  13.323  10.425
    1STR  C0C   1836   8.563  13.385  10.546
    1STR  C0D   1837   8.428  13.323  10.587
    1STR  C0E   1838   8.668  13.371  10.658
    1STR  O0F   1839   8.623  13.436  10.778
    1STR  C0G   1840   8.711  13.427  10.890
    1STR  C0H   1841   8.825  13.528  10.875
    1STR  C0I   1842   8.630  13.454  11.018
    1STR  O0J   1843   8.713  13.436  11.133
    1STR  C0K   1844   8.650  13.456  11.260
    1STR  C0M   1845   8.568  13.332  11.298
    1STR  C0N   1846   8.761  13.484  11.363
    1STR  O0O   1847   8.708  13.519  11.490
    1STR  C0P   1848   8.710  13.432  11.592
    1STR  O0Q   1849   8.751  13.316  11.585
    1STR  N0R   1850   8.662  13.490  11.702
    1STR  C0S   1851   8.644  13.442  11.832
    1STR  C0T   1852   8.576  13.525  11.923
    1STR  C0U   1853   8.549  13.481  12.054
    1STR  C0V   1854   8.591  13.354  12.098
    1STR  C0W   1855   8.545  13.310  12.236
    1STR  C0X   1856   8.668  13.272  12.011
    1STR  N0Y   1857   8.718  13.145  12.043
    1STR  BCK2  1858   8.770  13.094  12.156
    1STR  O10   1859   8.786  13.155  12.261
    1STR  C13   1860   8.691  13.317  11.879
    1STR  C14   1861   8.515  13.401  10.005
    1STR  C15   1862   8.504  13.415   9.865
    1STR  C16   1863   8.583  13.338   9.777
    1STR  C17   1864   8.566  13.368   9.630
    1STR  H1B   1865   8.838  13.123   9.807
    1STR  H1C   1866   8.751  13.158  10.014
    1STR  H1D   1867   8.683  13.225  10.236
    1STR  H1E   1868   8.548  13.492  10.528
    1STR  H1F   1869   8.437  13.216  10.607
    1STR  H1G   1870   8.390  13.370  10.678
    1STR  H1H   1871   8.353  13.337  10.510
    1STR  H1I   1872   8.762  13.415  10.624
    1STR  H1J   1873   8.687  13.266  10.678
    1STR  H1K   1874   8.751  13.326  10.897
    1STR  H1M   1875   8.787  13.630  10.866
    1STR  H1N   1876   8.887  13.508  10.788
    1STR  H1O   1877   8.891  13.525  10.962
    1STR  H1P   1878   8.589  13.555  11.016
    1STR  H1Q   1879   8.545  13.386  11.022
    1STR  H1R   1880   8.585  13.544  11.255
    1STR  H1S   1881   8.520  13.346  11.395
    1STR  H1T   1882   8.632  13.244  11.306
    1STR  H1U   1883   8.489  13.310  11.227
    1STR  H1V   1884   8.822  13.568  11.329
    1STR  H1W   1885   8.830  13.400  11.369
    1STR  H1X   1886   8.633  13.584  11.682
    1STR  H1Y   1887   8.540  13.623  11.893
    1STR  H1Z   1888   8.494  13.545  12.120
    1STR  H20   1889   8.524  13.203  12.237
    1STR  H21   1890   8.622  13.331  12.310
    1STR  H22   1891   8.454  13.361  12.266
    1STR  H23   1892   8.726  13.083  11.964
    1STR  H27   1893   8.747  13.253  11.812
    1STR  H28   1894   8.452  13.466  10.064
    1STR  H29   1895   8.435  13.488   9.827
    1STR  H2A   1896   8.662  13.376   9.580
    1STR  H2B   1897   8.515  13.463   9.614
    1STR  H2C   1898   8.506  13.290   9.583
    1STR  BCK1  1899  13.126   4.350  13.986
    1STR  O03   1900  13.192   4.272  13.917
    1STR  N04   1901  13.069   4.326  14.106
    1STR  C05   1902  13.052   4.211  14.187
    1STR  C06   1903  13.045   4.226  14.329
    1STR  C07   1904  13.025   4.116  14.418
    1STR  N08   1905  13.016   4.137  14.558
    1STR  C09   1906  13.004   4.048  14.660
    1STR  O0A   1907  13.001   3.926  14.647
    1STR  O0B   1908  12.997   4.109  14.781
    1STR  C0C   1909  12.989   4.031  14.902
    1STR  C0D   1910  13.130   3.985  14.944
    1STR  C0E   1911  12.921   4.111  15.016
    1STR  O0F   1912  12.911   4.032  15.135
    1STR  C0G   1913  12.853   4.098  15.248
    1STR  C0H   1914  12.700   4.101  15.234
    1STR  C0I   1915  12.895   4.024  15.377
    1STR  O0J   1916  12.846   4.094  15.491
    1STR  C0K   1917  12.877   4.037  15.618
    1STR  C0M   1918  13.021   4.072  15.658
    1STR  C0N   1919  12.776   4.094  15.720
    1STR  O0O   1920  12.790   4.031  15.847
    1STR  C0P   1921  12.850   4.094  15.948
    1STR  O0Q   1922  12.900   4.206  15.943
    1STR  N0R   1923  12.847   4.016  16.056
    1STR  C0S   1924  12.896   4.032  16.185
    1STR  C0T   1925  12.872   3.926  16.275
    1STR  C0U   1926  12.920   3.932  16.406
    1STR  C0V   1927  12.994   4.043  16.451
    1STR  C0W   1928  13.045   4.035  16.593
    1STR  C0X   1929  13.021   4.152  16.363
    1STR  N0Y   1930  13.104   4.262  16.392
    1STR  BCK2  1931  13.144   4.324  16.504
    1STR  O10   1932  13.088   4.319  16.613
    1STR  C13   1933  12.970   4.144  16.231
    1STR  C14   1934  13.012   3.988  14.360
    1STR  C15   1935  13.015   3.971  14.221
    1STR  C16   1936  13.031   4.080  14.134
    1STR  C17   1937  13.016   4.052  13.986
    1STR  H1B   1938  13.035   4.411  14.149
    1STR  H1C   1939  13.056   4.325  14.371
    1STR  H1D   1940  13.018   4.231  14.593
    1STR  H1E   1941  12.928   3.942  14.884
    1STR  H1F   1942  13.196   4.069  14.964
    1STR  H1G   1943  13.126   3.924  15.035
    1STR  H1H   1944  13.177   3.923  14.867
    1STR  H1I   1945  12.822   4.142  14.983
    1STR  H1J   1946  12.978   4.202  15.036
    1STR  H1K   1947  12.891   4.200  15.256
    1STR  H1M   1948  12.659   4.000  15.225
    1STR  H1N   1949  12.667   4.158  15.147
    1STR  H1O   1950  12.654   4.147  15.321
    1STR  H1P   1951  12.856   3.922  15.376
    1STR  H1Q   1952  13.004   4.016  15.380
    1STR  H1R   1953  12.864   3.929  15.614
    1STR  H1S   1954  13.047   4.029  15.755
    1STR  H1T   1955  13.035   4.180  15.666
    1STR  H1U   1956  13.095   4.034  15.586
    1STR  H1V   1957  12.674   4.074  15.685
    1STR  H1W   1958  12.784   4.202  15.727
    1STR  H1X   1959  12.799   3.930  16.035
    1STR  H1Y   1960  12.817   3.838  16.245
    1STR  H1Z   1961  12.901   3.849  16.473
    1STR  H20   1962  13.150   4.060  16.594
    1STR  H21   1963  12.989   4.103  16.656
    1STR  H22   1964  13.036   3.936  16.636
    1STR  H23   1965  13.134   4.311  16.309
    1STR  H27   1966  12.989   4.225  16.163
    1STR  H28   1967  12.998   3.899  14.419
    1STR  H29   1968  13.001   3.872  14.182
    1STR  H2A   1969  12.963   4.133  13.935
    1STR  H2B   1970  12.959   3.960  13.969
    1STR  H2C   1971  13.114   4.039  13.940
    1STR  BCK1  1972  13.140   8.729   0.889
    1STR  O03   1973  13.132   8.829   0.818
    1STR  N04   1974  13.175   8.724   1.020
    1STR  C05   1975  13.246   8.809   1.107
    1STR  C06   1976  13.229   8.792   1.248
    1STR  C07   1977  13.303   8.867   1.345
    1STR  N08   1978  13.288   8.844   1.484
    1STR  C09   1979  13.352   8.900   1.588
    1STR  O0A   1980  13.438   8.987   1.579
    1STR  O0B   1981  13.311   8.850   1.707
    1STR  C0C   1982  13.368   8.902   1.829
    1STR  C0D   1983  13.295   9.031   1.871
    1STR  C0E   1984  13.363   8.796   1.940
    1STR  O0F   1985  13.425   8.847   2.059
    1STR  C0G   1986  13.424   8.758   2.171
    1STR  C0H   1987  13.536   8.654   2.156
    1STR  C0I   1988  13.444   8.842   2.299
    1STR  O0J   1989  13.433   8.758   2.413
    1STR  C0K   1990  13.449   8.822   2.539
    1STR  C0M   1991  13.319   8.893   2.579
    1STR  C0N   1992  13.487   8.712   2.640
    1STR  O0O   1993  13.523   8.769   2.766
    1STR  C0P   1994  13.438   8.765   2.870
    1STR  O0Q   1995  13.325   8.717   2.867
    1STR  N0R   1996  13.496   8.821   2.976
    1STR  C0S   1997  13.450   8.843   3.106
    1STR  C0T   1998  13.530   8.924   3.190
    1STR  C0U   1999  13.488   8.956   3.320
    1STR  C0V   2000  13.367   8.905   3.371
    1STR  C0W   2001  13.319   8.952   3.507
    1STR  C0X   2002  13.292   8.813   3.293
    1STR  N0Y   2003  13.182   8.748   3.345
    1STR  BCK2  2004  13.183   8.683   3.462
    1STR  O10   2005  13.083   8.627   3.505
    1STR  C13   2006  13.331   8.787   3.159
    1STR  C14   2007  13.392   8.964   1.295
    1STR  C15   2008  13.412   8.981   1.158
    1STR  C16   2009  13.343   8.904   1.064
    1STR  C17   2010  13.384   8.924   0.919
    1STR  H1B   2011  13.138   8.641   1.063
    1STR  H1C   2012  13.158   8.718   1.284
    1STR  H1D   2013  13.221   8.776   1.514
    1STR  H1E   2014  13.473   8.926   1.813
    1STR  H1F   2015  13.189   9.013   1.890
    1STR  H1G   2016  13.338   9.073   1.962
    1STR  H1H   2017  13.303   9.108   1.793
    1STR  H1I   2018  13.415   8.706   1.906
    1STR  H1J   2019  13.260   8.768   1.961
    1STR  H1K   2020  13.327   8.709   2.179
    1STR  H1M   2021  13.634   8.701   2.146
    1STR  H1N   2022  13.521   8.590   2.069
    1STR  H1O   2023  13.539   8.588   2.243
    1STR  H1P   2024  13.542   8.891   2.296
    1STR  H1Q   2025  13.369   8.921   2.302
    1STR  H1R   2026  13.531   8.894   2.534
    1STR  H1S   2027  13.329   8.942   2.676
    1STR  H1T   2028  13.236   8.822   2.587
    1STR  H1U   2029  13.290   8.970   2.507
    1STR  H1V   2030  13.574   8.658   2.604
    1STR  H1W   2031  13.408   8.638   2.650
    1STR  H1X   2032  13.588   8.854   2.952
    1STR  H1Y   2033  13.624   8.964   3.155
    1STR  H1Z   2034  13.549   9.021   3.381
    1STR  H20   2035  13.210   8.964   3.506
    1STR  H21   2036  13.344   8.880   3.585
    1STR  H22   2037  13.362   9.048   3.534
    1STR  H23   2038  13.099   8.735   3.289
    1STR  H27   2039  13.271   8.721   3.099
    1STR  H28   2040  13.452   9.027   1.359
    1STR  H29   2041  13.484   9.055   1.125
    1STR  H2A   2042  13.400   8.828   0.871
    1STR  H2B   2043  13.476   8.980   0.911
    1STR  H2C   2044  13.308   8.981   0.866
    1HEX  C01   2045   0.271  17.289  16.756
    1HEX  C02   2046   0.210  17.290  16.896
    1HEX  C03   2047   0.059  17.291  16.887
    1HEX  O04   2048  17.437  17.192  16.847
    1HEX  O05   2049   0.005  17.408  16.924
    1HEX  C06   2050  17.303  17.422  16.930
    1HEX  C07   2051  17.253  17.413  17.076
    1HEX  C08   2052  17.299   0.101  17.148
    1HEX  O09   2053  17.237   0.222  17.107
    1HEX  C0A   2054  17.178   0.298  17.200
    1HEX  O0B   2055  17.123   0.257  17.302
    1HEX  C0C   2056  17.193   0.447  17.172
    1HEX  C0D   2057  17.194   0.529  17.302
    1HEX  C0F   2058  17.097  17.411  17.082
    1HEX  O0G   2059  17.049  17.292  17.020
    1HEX  C0H   2060  17.008  17.294  16.893
    1HEX  O0I   2061  16.984  17.394  16.826
    1HEX  C0J   2062  17.003  17.155  16.832
    1HEX  C0K   2063  16.884  17.076  16.888
    1HEX  C0N   2064  17.300  17.279  17.145
    1HEX  O0O   2065  17.437  17.259  17.184
    1HEX  C0P   2066   0.067  17.343  17.277
    1HEX  C0Q   2067   0.032  17.341  17.429
    1HEX  C0R   2068   0.068  17.203   0.047
    1HEX  O0S   2069   0.209  17.179   0.041
    1HEX  C0T   2070   0.282  17.171   0.154
    1HEX  O0U   2071   0.239  17.181   0.269
    1HEX  C0V   2072   0.429  17.149   0.126
    1HEX  C0W   2073   0.509  17.280   0.132
    1HEX  C0Y   2074   0.120   0.011   0.053
    1HEX  O0Z   2075   0.096   0.012   0.191
    1HEX  C10   2076   0.182   0.068   0.274
    1HEX  O11   2077   0.283   0.130   0.241
    1HEX  C12   2078   0.140   0.046   0.418
    1HEX  C13   2079   0.249   0.088   0.517
    1HEX  C15   2080  17.324  17.379   0.023
    1HEX  O16   2081  17.287  17.358   0.159
    1HEX  C17   2082  17.218  17.249   0.194
    1HEX  O18   2083  17.190  17.153   0.123
    1HEX  C19   2084  17.169  17.259   0.338
    1HEX  C1A   2085  17.087  17.387   0.356
    1HEX  H1D   2086   0.237  17.201  16.701
    1HEX  H1E   2087   0.238  17.376  16.699
    1HEX  H1F   2088   0.243  17.377  16.953
    1HEX  H1G   2089   0.240  17.202  16.952
    1HEX  H1H   2090  17.256  17.348  16.866
    1HEX  H1I   2091  17.276   0.078  16.887
    1HEX  H1J   2092  17.404   0.120  17.125
    1HEX  H1K   2093  17.291   0.088  17.254
    1HEX  H1M   2094  17.116   0.480  17.104
    1HEX  H1N   2095  17.289   0.461  17.121
    1HEX  H1O   2096  17.268   0.490  17.372
    1HEX  H1P   2097  17.097   0.522  17.352
    1HEX  H1R   2098  17.054   0.060  17.037
    1HEX  H1S   2099  17.063  17.411  17.185
    1HEX  H1T   2100  17.097  17.104  16.854
    1HEX  H1U   2101  16.996  17.164  16.724
    1HEX  H1V   2102  16.791  17.129  16.869
    1HEX  H1W   2103  16.893  17.065  16.996
    1HEX  H1Y   2104  17.284  17.200  17.071
    1HEX  H1Z   2105  17.233  17.246  17.222
    1HEX  H20   2106   0.080   0.003  17.239
    1HEX  H21   2107   0.169  17.305  17.269
    1HEX  H22   2108   0.016  17.124  17.432
    1HEX  H23   2109   0.033  17.194   0.150
    1HEX  H24   2110   0.439  17.102   0.028
    1HEX  H25   2111   0.468  17.078   0.200
    1HEX  H26   2112   0.459  17.359   0.077
    1HEX  H27   2113   0.609  17.267   0.090
    1HEX  H29   2114   0.099   0.110   0.012
    1HEX  H2A   2115   0.226  17.433   0.033
    1HEX  H2B   2116   0.116  17.381   0.430
    1HEX  H2C   2117   0.048   0.102   0.434
    1HEX  H2D   2118   0.278   0.191   0.499
    1HEX  H2E   2119   0.338   0.027   0.501
    1HEX  H2G   2120  17.250  17.331  17.401
    1HEX  H2H   2121  17.309   0.046   0.012
    1HEX  H2I   2122  17.256  17.259   0.404
    1HEX  H2J   2123  17.110  17.171   0.362
    1HEX  H2K   2124  17.006  17.391   0.282
    1HEX  H2M   2125  17.149   0.035   0.340
    1STR  S00   2126   0.452  17.292  16.765
    1STR  S0E   2127  17.243   0.701  17.276
    1STR  S0M   2128  16.890  16.910  16.815
    1STR  S0X   2129   0.559  17.357   0.289
    1STR  S14   2130   0.171   0.092   0.681
    1STR  S1B   2131  17.028  17.420   0.524
    1HEX  C01   2132   0.266  17.290   3.678
    1HEX  C02   2133   0.202  17.294   3.817
    1HEX  C03   2134   0.050  17.295   3.806
    1HEX  O04   2135  17.429  17.197   3.763
    1HEX  O05   2136  17.435  17.412   3.847
    1HEX  C06   2137  17.293  17.423   3.858
    1HEX  C07   2138  17.247  17.412   4.006
    1HEX  C08   2139  17.282   0.107   4.080
    1HEX  O09   2140  17.227   0.235   4.043
    1HEX  C0A   2141  17.211   0.332   4.141
    1HEX  O0B   2142  17.184   0.308   4.259
    1HEX  C0C   2143  17.233   0.478   4.095
    1HEX  C0D   2144  17.261   0.585   4.206
    1HEX  C0F   2145  17.093  17.383   4.015
    1HEX  O0G   2146  17.065  17.241   4.006
    1HEX  C0H   2147  17.039  17.182   3.888
    1HEX  O0I   2148  16.999  17.244   3.790
    1HEX  C0J   2149  17.072  17.031   3.876
    1HEX  C0K   2150  17.075  16.933   3.999
    1HEX  C0N   2151  17.312  17.283   4.071
    1HEX  O0O   2152   0.011  17.273   4.101
    1HEX  C0P   2153   0.074  17.354   4.199
    1HEX  C0Q   2154   0.034  17.346   4.350
    1HEX  C0R   2155   0.069  17.205   4.405
    1HEX  O0S   2156   0.210  17.181   4.400
    1HEX  C0T   2157   0.282  17.172   4.514
    1HEX  O0U   2158   0.238  17.180   4.628
    1HEX  C0V   2159   0.429  17.149   4.486
    1HEX  C0W   2160   0.509  17.280   4.492
    1HEX  C0Y   2161   0.123   0.013   4.416
    1HEX  O0Z   2162   0.098   0.012   4.555
    1HEX  C10   2163   0.183   0.069   4.637
    1HEX  O11   2164   0.284   0.131   4.605
    1HEX  C12   2165   0.140   0.047   4.781
    1HEX  C13   2166   0.249   0.088   4.880
    1HEX  C15   2167  17.327  17.383   4.386
    1HEX  O16   2168  17.289  17.359   4.520
    1HEX  C17   2169  17.219  17.251   4.555
    1HEX  O18   2170  17.191  17.156   4.482
    1HEX  C19   2171  17.170  17.260   4.698
    1HEX  C1A   2172  17.087  17.388   4.716
    1HEX  H1D   2173   0.234  17.201   3.624
    1HEX  H1E   2174   0.235  17.377   3.620
    1HEX  H1F   2175   0.235  17.380   3.874
    1HEX  H1G   2176   0.230  17.205   3.874
    1HEX  H1H   2177  17.243  17.350   3.795
    1HEX  H1I   2178  17.264   0.080   3.817
    1HEX  H1J   2179  17.388   0.126   4.067
    1HEX  H1K   2180  17.264   0.092   4.185
    1HEX  H1M   2181  17.149   0.509   4.033
    1HEX  H1N   2182  17.320   0.476   4.030
    1HEX  H1O   2183  17.334   0.550   4.279
    1HEX  H1P   2184  17.170   0.609   4.262
    1HEX  H1R   2185  17.037   0.002   3.941
    1HEX  H1S   2186  17.055  17.417   4.112
    1HEX  H1T   2187  17.170  17.029   3.828
    1HEX  H1U   2188  17.004  16.994   3.800
    1HEX  H1V   2189  17.035  16.835   3.970
    1HEX  H1W   2190  17.014  16.969   4.082
    1HEX  H1Y   2191  17.301  17.204   3.997
    1HEX  H1Z   2192  17.253  17.241   4.152
    1HEX  H20   2193   0.082   0.016   4.165
    1HEX  H21   2194   0.177  17.319   4.193
    1HEX  H22   2195   0.018  17.128   4.347
    1HEX  H23   2196   0.033  17.193   4.507
    1HEX  H24   2197   0.439  17.102   4.388
    1HEX  H25   2198   0.468  17.078   4.560
    1HEX  H26   2199   0.459  17.359   4.437
    1HEX  H27   2200   0.608  17.267   4.449
    1HEX  H29   2201   0.101   0.113   4.378
    1HEX  H2A   2202   0.228  17.435   4.397
    1HEX  H2B   2203   0.116  17.381   4.792
    1HEX  H2C   2204   0.048   0.103   4.796
    1HEX  H2D   2205   0.278   0.192   4.861
    1HEX  H2E   2206   0.338   0.028   4.862
    1HEX  H2G   2207  17.251  17.338   4.323
    1HEX  H2H   2208  17.313   0.051   4.377
    1HEX  H2I   2209  17.257  17.260   4.764
    1HEX  H2J   2210  17.111  17.171   4.722
    1HEX  H2K   2211  17.007  17.391   4.642
    1HEX  H2M   2212  17.149   0.036   4.700
    1STR  S00   2213   0.447  17.293   3.685
    1STR  S0E   2214  17.341   0.745   4.258
    1STR  S0M   2215  17.124  16.792   4.113
    1STR  S0X   2216   0.559  17.356   4.649
    1STR  S14   2217   0.171   0.092   5.043
    1STR  S1B   2218  17.027  17.418   4.884
    1HEX  C01   2219   0.271  17.289   8.036
    1HEX  C02   2220   0.210  17.290   8.176
    1HEX  C03   2221   0.059  17.291   8.167
    1HEX  O04   2222  17.438  17.192   8.128
    1HEX  O05   2223   0.005  17.408   8.204
    1HEX  C06   2224  17.303  17.422   8.210
    1HEX  C07   2225  17.253  17.413   8.356
    1HEX  C08   2226  17.299   0.101   8.428
    1HEX  O09   2227  17.237   0.222   8.387
    1HEX  C0A   2228  17.178   0.298   8.480
    1HEX  O0B   2229  17.123   0.257   8.582
    1HEX  C0C   2230  17.193   0.447   8.452
    1HEX  C0D   2231  17.194   0.529   8.582
    1HEX  C0F   2232  17.097  17.411   8.362
    1HEX  O0G   2233  17.049  17.292   8.300
    1HEX  C0H   2234  17.008  17.294   8.173
    1HEX  O0I   2235  16.984  17.394   8.106
    1HEX  C0J   2236  17.003  17.155   8.112
    1HEX  C0K   2237  16.884  17.076   8.168
    1HEX  C0N   2238  17.300  17.279   8.425
    1HEX  O0O   2239  17.437  17.259   8.464
    1HEX  C0P   2240   0.067  17.343   8.557
    1HEX  C0Q   2241   0.032  17.341   8.709
    1HEX  C0R   2242   0.068  17.203   8.767
    1HEX  O0S   2243   0.209  17.179   8.761
    1HEX  C0T   2244   0.282  17.171   8.874
    1HEX  O0U   2245   0.239  17.181   8.989
    1HEX  C0V   2246   0.429  17.149   8.846
    1HEX  C0W   2247   0.509  17.280   8.852
    1HEX  C0Y   2248   0.120   0.011   8.773
    1HEX  O0Z   2249   0.096   0.012   8.911
    1HEX  C10   2250   0.182   0.068   8.994
    1HEX  O11   2251   0.283   0.130   8.961
    1HEX  C12   2252   0.140   0.046   9.138
    1HEX  C13   2253   0.249   0.088   9.237
    1HEX  C15   2254  17.324  17.379   8.743
    1HEX  O16   2255  17.287  17.358   8.879
    1HEX  C17   2256  17.218  17.249   8.914
    1HEX  O18   2257  17.190  17.153   8.843
    1HEX  C19   2258  17.169  17.259   9.058
    1HEX  C1A   2259  17.087  17.387   9.076
    1HEX  H1D   2260   0.237  17.201   7.981
    1HEX  H1E   2261   0.238  17.376   7.979
    1HEX  H1F   2262   0.243  17.377   8.233
    1HEX  H1G   2263   0.240  17.202   8.232
    1HEX  H1H   2264  17.256  17.348   8.146
    1HEX  H1I   2265  17.276   0.078   8.167
    1HEX  H1J   2266  17.404   0.120   8.405
    1HEX  H1K   2267  17.291   0.088   8.534
    1HEX  H1M   2268  17.116   0.480   8.384
    1HEX  H1N   2269  17.289   0.461   8.401
    1HEX  H1O   2270  17.268   0.490   8.652
    1HEX  H1P   2271  17.097   0.522   8.632
    1HEX  H1R   2272  17.054   0.060   8.317
    1HEX  H1S   2273  17.063  17.411   8.465
    1HEX  H1T   2274  17.097  17.104   8.134
    1HEX  H1U   2275  16.996  17.164   8.004
    1HEX  H1V   2276  16.791  17.129   8.149
    1HEX  H1W   2277  16.893  17.065   8.276
    1HEX  H1Y   2278  17.284  17.201   8.351
    1HEX  H1Z   2279  17.233  17.246   8.502
    1HEX  H20   2280   0.080   0.003   8.519
    1HEX  H21   2281   0.169  17.305   8.549
    1HEX  H22   2282   0.016  17.124   8.712
    1HEX  H23   2283   0.033  17.194   8.870
    1HEX  H24   2284   0.439  17.102   8.748
    1HEX  H25   2285   0.468  17.078   8.920
    1HEX  H26   2286   0.459  17.359   8.797
    1HEX  H27   2287   0.609  17.267   8.810
    1HEX  H29   2288   0.099   0.110   8.732
    1HEX  H2A   2289   0.226  17.433   8.753
    1HEX  H2B   2290   0.116  17.381   9.150
    1HEX  H2C   2291   0.048   0.102   9.154
    1HEX  H2D   2292   0.278   0.191   9.219
    1HEX  H2E   2293   0.338   0.027   9.221
    1HEX  H2G   2294  17.250  17.331   8.681
    1HEX  H2H   2295  17.309   0.046   8.732
    1HEX  H2I   2296  17.256  17.259   9.124
    1HEX  H2J   2297  17.110  17.171   9.082
    1HEX  H2K   2298  17.006  17.391   9.002
    1HEX  H2M   2299  17.149   0.035   9.060
    1STR  S00   2300   0.452  17.292   8.045
    1STR  S0E   2301  17.243   0.701   8.556
    1STR  S0M   2302  16.890  16.910   8.095
    1STR  S0X   2303   0.559  17.357   9.008
    1STR  S14   2304   0.172   0.092   9.401
    1STR  S1B   2305  17.028  17.420   9.244
    1HEX  C01   2306   0.271  17.289  12.396
    1HEX  C02   2307   0.210  17.290  12.536
    1HEX  C03   2308   0.059  17.291  12.527
    1HEX  O04   2309  17.437  17.192  12.488
    1HEX  O05   2310   0.005  17.408  12.564
    1HEX  C06   2311  17.303  17.422  12.570
    1HEX  C07   2312  17.253  17.413  12.716
    1HEX  C08   2313  17.299   0.101  12.788
    1HEX  O09   2314  17.237   0.222  12.747
    1HEX  C0A   2315  17.178   0.298  12.840
    1HEX  O0B   2316  17.123   0.257  12.942
    1HEX  C0C   2317  17.193   0.447  12.812
    1HEX  C0D   2318  17.194   0.529  12.942
    1HEX  C0F   2319  17.097  17.411  12.722
    1HEX  O0G   2320  17.049  17.292  12.660
    1HEX  C0H   2321  17.008  17.294  12.533
    1HEX  O0I   2322  16.984  17.394  12.466
    1HEX  C0J   2323  17.003  17.155  12.472
    1HEX  C0K   2324  16.884  17.076  12.528
    1HEX  C0N   2325  17.300  17.279  12.785
    1HEX  O0O   2326  17.437  17.259  12.824
    1HEX  C0P   2327   0.067  17.343  12.917
    1HEX  C0Q   2328   0.032  17.341  13.069
    1HEX  C0R   2329   0.068  17.203  13.127
    1HEX  O0S   2330   0.209  17.179  13.121
    1HEX  C0T   2331   0.282  17.171  13.234
    1HEX  O0U   2332   0.239  17.181  13.349
    1HEX  C0V   2333   0.429  17.149  13.206
    1HEX  C0W   2334   0.509  17.280  13.212
    1HEX  C0Y   2335   0.120   0.011  13.133
    1HEX  O0Z   2336   0.096   0.012  13.271
    1HEX  C10   2337   0.182   0.068  13.354
    1HEX  O11   2338   0.283   0.130  13.321
    1HEX  C12   2339   0.140   0.046  13.498
    1HEX  C13   2340   0.249   0.088  13.597
    1HEX  C15   2341  17.324  17.379  13.103
    1HEX  O16   2342  17.287  17.358  13.239
    1HEX  C17   2343  17.218  17.249  13.274
    1HEX  O18   2344  17.190  17.153  13.203
    1HEX  C19   2345  17.169  17.259  13.418
    1HEX  C1A   2346  17.087  17.387  13.436
    1HEX  H1D   2347   0.237  17.201  12.341
    1HEX  H1E   2348   0.238  17.376  12.339
    1HEX  H1F   2349   0.243  17.377  12.593
    1HEX  H1G   2350   0.240  17.202  12.592
    1HEX  H1H   2351  17.256  17.348  12.506
    1HEX  H1I   2352  17.276   0.078  12.527
    1HEX  H1J   2353  17.404   0.120  12.765
    1HEX  H1K   2354  17.291   0.088  12.894
    1HEX  H1M   2355  17.116   0.480  12.744
    1HEX  H1N   2356  17.289   0.461  12.761
    1HEX  H1O   2357  17.268   0.490  13.012
    1HEX  H1P   2358  17.097   0.522  12.992
    1HEX  H1R   2359  17.054   0.060  12.677
    1HEX  H1S   2360  17.063  17.411  12.825
    1HEX  H1T   2361  17.097  17.104  12.494
    1HEX  H1U   2362  16.996  17.164  12.364
    1HEX  H1V   2363  16.791  17.129  12.509
    1HEX  H1W   2364  16.893  17.065  12.636
    1HEX  H1Y   2365  17.284  17.201  12.711
    1HEX  H1Z   2366  17.233  17.246  12.862
    1HEX  H20   2367   0.080   0.003  12.879
    1HEX  H21   2368   0.169  17.305  12.909
    1HEX  H22   2369   0.016  17.124  13.072
    1HEX  H23   2370   0.033  17.194  13.230
    1HEX  H24   2371   0.439  17.102  13.108
    1HEX  H25   2372   0.468  17.078  13.280
    1HEX  H26   2373   0.459  17.359  13.157
    1HEX  H27   2374   0.608  17.267  13.170
    1HEX  H29   2375   0.099   0.110  13.092
    1HEX  H2A   2376   0.226  17.433  13.113
    1HEX  H2B   2377   0.116  17.381  13.510
    1HEX  H2C   2378   0.048   0.102  13.514
    1HEX  H2D   2379   0.278   0.191  13.579
    1HEX  H2E   2380   0.338   0.027  13.581
    1HEX  H2G   2381  17.250  17.331  13.041
    1HEX  H2H   2382  17.309   0.046  13.092
    1HEX  H2I   2383  17.256  17.259  13.484
    1HEX  H2J   2384  17.110  17.171  13.442
    1HEX  H2K   2385  17.006  17.391  13.362
    1HEX  H2M   2386  17.149   0.035  13.420
    1STR  S00   2387   0.452  17.292  12.405
    1STR  S0E   2388  17.243   0.701  12.916
    1STR  S0M   2389  16.890  16.910  12.455
    1STR  S0X   2390   0.559  17.357  13.369
    1STR  S14   2391   0.171   0.092  13.761
    1STR  S1B   2392  17.028  17.420  13.604
    1HEX  C01   2393   0.270   4.209  16.757
    1HEX  C02   2394   0.209   4.212  16.898
    1HEX  C03   2395   0.057   4.216  16.889
    1HEX  O04   2396  17.434   4.119  16.848
    1HEX  O05   2397   0.006   4.334  16.929
    1HEX  C06   2398  17.304   4.352  16.934
    1HEX  C07   2399  17.251   4.342  17.079
    1HEX  C08   2400  17.294   4.470  17.156
    1HEX  O09   2401  17.235   4.595  17.118
    1HEX  C0A   2402  17.202   4.683  17.215
    1HEX  O0B   2403  17.163   4.654  17.328
    1HEX  C0C   2404  17.221   4.829  17.174
    1HEX  C0D   2405  17.245   4.928  17.292
    1HEX  C0F   2406  17.096   4.337  17.081
    1HEX  O0G   2407  17.050   4.217  17.020
    1HEX  C0H   2408  17.009   4.217  16.893
    1HEX  O0I   2409  16.984   4.317  16.825
    1HEX  C0J   2410  17.004   4.077  16.834
    1HEX  C0K   2411  16.885   3.998  16.889
    1HEX  C0N   2412  17.298   4.207  17.146
    1HEX  O0O   2413  17.434   4.184  17.184
    1HEX  C0P   2414   0.066   4.265  17.277
    1HEX  C0Q   2415   0.032   4.263  17.429
    1HEX  C0R   2416   0.068   4.124   0.046
    1HEX  O0S   2417   0.209   4.100   0.040
    1HEX  C0T   2418   0.282   4.092   0.154
    1HEX  O0U   2419   0.239   4.101   0.269
    1HEX  C0V   2420   0.429   4.069   0.126
    1HEX  C0W   2421   0.509   4.200   0.132
    1HEX  C0Y   2422   0.121   4.372   0.053
    1HEX  O0Z   2423   0.097   4.373   0.192
    1HEX  C10   2424   0.183   4.428   0.274
    1HEX  O11   2425   0.285   4.489   0.242
    1HEX  C12   2426   0.140   4.408   0.418
    1HEX  C13   2427   0.249   4.449   0.518
    1HEX  C15   2428  17.325   4.301   0.025
    1HEX  O16   2429  17.288   4.278   0.160
    1HEX  C17   2430  17.218   4.170   0.195
    1HEX  O18   2431  17.190   4.075   0.122
    1HEX  C19   2432  17.169   4.180   0.338
    1HEX  C1A   2433  17.087   4.308   0.356
    1HEX  H1D   2434   0.235   4.120  16.703
    1HEX  H1E   2435   0.237   4.296  16.700
    1HEX  H1F   2436   0.244   4.298  16.954
    1HEX  H1G   2437   0.237   4.123  16.954
    1HEX  H1H   2438  17.256   4.279  16.869
    1HEX  H1I   2439  17.279   4.449  16.891
    1HEX  H1J   2440  17.399   4.489  17.140
    1HEX  H1K   2441  17.278   4.453  17.261
    1HEX  H1M   2442  17.138   4.862  17.112
    1HEX  H1N   2443  17.310   4.831  17.111
    1HEX  H1O   2444  17.319   4.890  17.363
    1HEX  H1P   2445  17.154   4.946  17.348
    1HEX  H1R   2446  17.052   4.426  17.035
    1HEX  H1S   2447  17.060   4.338  17.184
    1HEX  H1T   2448  17.098   4.027  16.856
    1HEX  H1U   2449  16.998   4.086  16.725
    1HEX  H1V   2450  16.792   4.051  16.869
    1HEX  H1W   2451  16.894   3.987  16.997
    1HEX  H1Y   2452  17.281   4.129  17.071
    1HEX  H1Z   2453  17.230   4.172  17.223
    1HEX  H20   2454   0.080   4.366  17.240
    1HEX  H21   2455   0.167   4.226  17.268
    1HEX  H22   2456   0.016   4.045  17.431
    1HEX  H23   2457   0.033   4.114   0.149
    1HEX  H24   2458   0.439   4.022   0.028
    1HEX  H25   2459   0.468   3.999   0.199
    1HEX  H26   2460   0.458   4.280   0.078
    1HEX  H27   2461   0.608   4.188   0.090
    1HEX  H29   2462   0.099   4.471   0.013
    1HEX  H2A   2463   0.227   4.354   0.033
    1HEX  H2B   2464   0.115   4.302   0.430
    1HEX  H2C   2465   0.048   4.464   0.433
    1HEX  H2D   2466   0.278   4.552   0.500
    1HEX  H2E   2467   0.338   4.388   0.501
    1HEX  H2G   2468  17.251   4.254  17.402
    1HEX  H2H   2469  17.310   4.408   0.015
    1HEX  H2I   2470  17.256   4.180   0.404
    1HEX  H2J   2471  17.110   4.091   0.362
    1HEX  H2K   2472  17.007   4.312   0.283
    1HEX  H2M   2473  17.149   4.396   0.340
    1STR  S00   2474   0.450   4.212  16.765
    1STR  S0E   2475  17.346   5.073  17.339
    1STR  S0M   2476  16.890   3.833  16.816
    1STR  S0X   2477   0.560   4.276   0.289
    1STR  S14   2478   0.172   4.450   0.682
    1STR  S1B   2479  17.027   4.338   0.524
    1HEX  C01   2480   0.270   4.209   3.676
    1HEX  C02   2481   0.207   4.210   3.815
    1HEX  C03   2482   0.056   4.205   3.804
    1HEX  O04   2483  17.438   4.104   3.764
    1HEX  O05   2484  17.437   4.320   3.841
    1HEX  C06   2485  17.295   4.326   3.853
    1HEX  C07   2486  17.254   4.310   4.002
    1HEX  C08   2487  17.285   4.446   4.070
    1HEX  O09   2488  17.217   4.564   4.028
    1HEX  C0A   2489  17.172   4.649   4.123
    1HEX  O0B   2490  17.124   4.614   4.230
    1HEX  C0C   2491  17.193   4.797   4.090
    1HEX  C0D   2492  17.195   4.883   4.217
    1HEX  C0F   2493  17.102   4.273   4.013
    1HEX  O0G   2494  17.086   4.128   4.007
    1HEX  C0H   2495  17.072   4.066   3.888
    1HEX  O0I   2496  17.024   4.123   3.790
    1HEX  C0J   2497  17.128   3.921   3.872
    1HEX  C0K   2498  17.176   3.824   3.989
    1HEX  C0N   2499  17.326   4.188   4.072
    1HEX  O0O   2500   0.025   4.187   4.103
    1HEX  C0P   2501   0.082   4.274   4.200
    1HEX  C0Q   2502   0.044   4.268   4.351
    1HEX  C0R   2503   0.089   4.131   4.410
    1HEX  O0S   2504   0.231   4.113   4.400
    1HEX  C0T   2505   0.310   4.116   4.510
    1HEX  O0U   2506   0.272   4.134   4.626
    1HEX  C0V   2507   0.457   4.087   4.479
    1HEX  C0W   2508   0.552   4.210   4.482
    1HEX  C0Y   2509   0.126   4.382   4.414
    1HEX  O0Z   2510   0.097   4.388   4.552
    1HEX  C10   2511   0.188   4.429   4.638
    1HEX  O11   2512   0.299   4.475   4.610
    1HEX  C12   2513   0.140   4.408   4.780
    1HEX  C13   2514   0.245   4.450   4.882
    1HEX  C15   2515  17.334   4.298   4.386
    1HEX  O16   2516  17.298   4.274   4.521
    1HEX  C17   2517  17.224   4.168   4.555
    1HEX  O18   2518  17.196   4.073   4.482
    1HEX  C19   2519  17.172   4.179   4.697
    1HEX  C1A   2520  17.089   4.306   4.713
    1HEX  H1D   2521   0.237   4.120   3.621
    1HEX  H1E   2522   0.237   4.296   3.619
    1HEX  H1F   2523   0.237   4.298   3.872
    1HEX  H1G   2524   0.238   4.123   3.872
    1HEX  H1H   2525  17.247   4.252   3.789
    1HEX  H1I   2526  17.262   4.422   3.815
    1HEX  H1J   2527  17.389   4.472   4.049
    1HEX  H1K   2528  17.277   4.435   4.177
    1HEX  H1M   2529  17.117   4.831   4.020
    1HEX  H1N   2530  17.290   4.806   4.039
    1HEX  H1O   2531  17.269   4.847   4.288
    1HEX  H1P   2532  17.099   4.880   4.267
    1HEX  H1R   2533  17.042   4.327   3.939
    1HEX  H1S   2534  17.063   4.308   4.109
    1HEX  H1T   2535  17.213   3.936   3.805
    1HEX  H1U   2536  17.053   3.871   3.811
    1HEX  H1V   2537  17.147   3.722   3.963
    1HEX  H1W   2538  17.124   3.847   4.082
    1HEX  H1Y   2539  17.321   4.106   4.000
    1HEX  H1Z   2540  17.270   4.146   4.154
    1HEX  H20   2541   0.084   4.376   4.163
    1HEX  H21   2542   0.187   4.246   4.194
    1HEX  H22   2543   0.039   4.050   4.357
    1HEX  H23   2544   0.057   4.121   4.514
    1HEX  H24   2545   0.462   4.038   4.382
    1HEX  H25   2546   0.492   4.014   4.553
    1HEX  H26   2547   0.510   4.294   4.426
    1HEX  H27   2548   0.648   4.185   4.438
    1HEX  H29   2549   0.102   4.479   4.370
    1HEX  H2A   2550   0.233   4.367   4.397
    1HEX  H2B   2551   0.115   4.303   4.791
    1HEX  H2C   2552   0.048   4.465   4.792
    1HEX  H2D   2553   0.276   4.553   4.863
    1HEX  H2E   2554   0.335   4.389   4.868
    1HEX  H2G   2555  17.261   4.249   4.323
    1HEX  H2H   2556  17.315   4.405   4.375
    1HEX  H2I   2557  17.257   4.179   4.765
    1HEX  H2J   2558  17.113   4.091   4.721
    1HEX  H2K   2559  17.008   4.309   4.640
    1HEX  H2M   2560  17.150   4.395   4.696
    1STR  S00   2561   0.451   4.209   3.683
    1STR  S0E   2562  17.242   5.057   4.195
    1STR  S0M   2563  17.281   3.678   4.057
    1STR  S0X   2564   0.723   4.272   4.453
    1STR  S14   2565   0.170   4.451   5.046
    1STR  S1B   2566  17.030   4.341   4.881
    1HEX  C01   2567   0.271   4.208   8.036
    1HEX  C02   2568   0.211   4.210   8.177
    1HEX  C03   2569   0.060   4.210   8.168
    1HEX  O04   2570  17.438   4.112   8.129
    1HEX  O05   2571   0.006   4.328   8.206
    1HEX  C06   2572  17.305   4.342   8.212
    1HEX  C07   2573  17.254   4.333   8.358
    1HEX  C08   2574  17.300   4.461   8.430
    1HEX  O09   2575  17.238   4.582   8.389
    1HEX  C0A   2576  17.178   4.658   8.481
    1HEX  O0B   2577  17.123   4.617   8.583
    1HEX  C0C   2578  17.194   4.807   8.453
    1HEX  C0D   2579  17.194   4.889   8.582
    1HEX  C0F   2580  17.099   4.330   8.363
    1HEX  O0G   2581  17.051   4.212   8.301
    1HEX  C0H   2582  17.009   4.214   8.173
    1HEX  O0I   2583  16.984   4.315   8.108
    1HEX  C0J   2584  17.003   4.075   8.113
    1HEX  C0K   2585  16.884   3.996   8.168
    1HEX  C0N   2586  17.302   4.200   8.427
    1HEX  O0O   2587  17.439   4.179   8.468
    1HEX  C0P   2588   0.073   4.264   8.556
    1HEX  C0Q   2589   0.045   4.265   8.710
    1HEX  C0R   2590   0.100   4.133   8.772
    1HEX  O0S   2591   0.243   4.122   8.756
    1HEX  C0T   2592   0.327   4.130   8.864
    1HEX  O0U   2593   0.292   4.146   8.980
    1HEX  C0V   2594   0.475   4.104   8.828
    1HEX  C0W   2595   0.570   4.228   8.823
    1HEX  C0Y   2596   0.125   4.384   8.769
    1HEX  O0Z   2597   0.097   4.391   8.907
    1HEX  C10   2598   0.188   4.431   8.994
    1HEX  O11   2599   0.299   4.478   8.966
    1HEX  C12   2600   0.140   4.410   9.136
    1HEX  C13   2601   0.245   4.451   9.239
    1HEX  C15   2602  17.336   4.291   8.747
    1HEX  O16   2603  17.302   4.268   8.883
    1HEX  C17   2604  17.226   4.164   8.918
    1HEX  O18   2605  17.195   4.069   8.846
    1HEX  C19   2606  17.173   4.178   9.059
    1HEX  C1A   2607  17.090   4.306   9.073
    1HEX  H1D   2608   0.237   4.120   7.981
    1HEX  H1E   2609   0.238   4.296   7.980
    1HEX  H1F   2610   0.244   4.297   8.233
    1HEX  H1G   2611   0.241   4.121   8.233
    1HEX  H1H   2612  17.257   4.269   8.147
    1HEX  H1I   2613  17.277   4.439   8.169
    1HEX  H1J   2614  17.404   4.481   8.408
    1HEX  H1K   2615  17.292   4.448   8.537
    1HEX  H1M   2616  17.116   4.840   8.384
    1HEX  H1N   2617  17.289   4.820   8.401
    1HEX  H1O   2618  17.268   4.851   8.652
    1HEX  H1P   2619  17.097   4.882   8.632
    1HEX  H1R   2620  17.055   4.420   8.318
    1HEX  H1S   2621  17.064   4.331   8.466
    1HEX  H1T   2622  17.097   4.024   8.134
    1HEX  H1U   2623  16.996   4.085   8.004
    1HEX  H1V   2624  16.791   4.050   8.149
    1HEX  H1W   2625  16.893   3.985   8.276
    1HEX  H1Y   2626  17.287   4.121   8.353
    1HEX  H1Z   2627  17.233   4.166   8.503
    1HEX  H20   2628   0.083   4.364   8.517
    1HEX  H21   2629   0.175   4.227   8.544
    1HEX  H22   2630   0.052   4.048   8.723
    1HEX  H23   2631   0.071   4.126   8.877
    1HEX  H24   2632   0.476   4.051   8.734
    1HEX  H25   2633   0.512   4.034   8.903
    1HEX  H26   2634   0.522   4.315   8.779
    1HEX  H27   2635   0.662   4.208   8.769
    1HEX  H29   2636   0.097   4.479   8.723
    1HEX  H2A   2637   0.232   4.372   8.751
    1HEX  H2B   2638   0.115   4.304   9.147
    1HEX  H2C   2639   0.048   4.466   9.149
    1HEX  H2D   2640   0.276   4.554   9.221
    1HEX  H2E   2641   0.334   4.389   9.226
    1HEX  H2G   2642  17.266   4.237   8.685
    1HEX  H2H   2643  17.312   4.396   8.734
    1HEX  H2I   2644  17.257   4.179   9.128
    1HEX  H2J   2645  17.112   4.090   9.083
    1HEX  H2K   2646  17.010   4.308   8.999
    1HEX  H2M   2647  17.152   4.394   9.055
    1STR  S00   2648   0.452   4.210   8.044
    1STR  S0E   2649  17.243   5.062   8.556
    1STR  S0M   2650  16.890   3.830   8.096
    1STR  S0X   2651   0.738   4.292   8.775
    1STR  S14   2652   0.169   4.449   9.403
    1STR  S1B   2653  17.030   4.339   9.240
    1HEX  C01   2654   0.268   4.209  12.398
    1HEX  C02   2655   0.207   4.213  12.539
    1HEX  C03   2656   0.056   4.220  12.531
    1HEX  O04   2657  17.431   4.125  12.488
    1HEX  O05   2658   0.006   4.338  12.574
    1HEX  C06   2659  17.305   4.359  12.578
    1HEX  C07   2660  17.249   4.351  12.722
    1HEX  C08   2661  17.291   4.479  12.802
    1HEX  O09   2662  17.238   4.609  12.769
    1HEX  C0A   2663  17.217   4.701  12.870
    1HEX  O0B   2664  17.186   4.672  12.985
    1HEX  C0C   2665  17.237   4.849  12.829
    1HEX  C0D   2666  17.262   4.952  12.945
    1HEX  C0F   2667  17.094   4.344  12.721
    1HEX  O0G   2668  17.051   4.222  12.661
    1HEX  C0H   2669  17.010   4.220  12.533
    1HEX  O0I   2670  16.985   4.319  12.464
    1HEX  C0J   2671  17.005   4.080  12.476
    1HEX  C0K   2672  16.886   4.000  12.531
    1HEX  C0N   2673  17.295   4.214  12.788
    1HEX  O0O   2674  17.430   4.188  12.827
    1HEX  C0P   2675   0.062   4.268  12.922
    1HEX  C0Q   2676   0.026   4.266  13.074
    1HEX  C0R   2677   0.061   4.126  13.132
    1HEX  O0S   2678   0.201   4.101  13.124
    1HEX  C0T   2679   0.277   4.093  13.236
    1HEX  O0U   2680   0.236   4.102  13.352
    1HEX  C0V   2681   0.424   4.070  13.206
    1HEX  C0W   2682   0.505   4.200  13.213
    1HEX  C0Y   2683   0.117   4.373  13.137
    1HEX  O0Z   2684   0.092   4.375  13.275
    1HEX  C10   2685   0.180   4.428  13.357
    1HEX  O11   2686   0.283   4.487  13.324
    1HEX  C12   2687   0.139   4.407  13.501
    1HEX  C13   2688   0.249   4.449  13.599
    1HEX  C15   2689  17.319   4.307  13.107
    1HEX  O16   2690  17.269   4.281  13.238
    1HEX  C17   2691  17.181   4.181  13.256
    1HEX  O18   2692  17.172   4.081  13.186
    1HEX  C19   2693  17.084   4.208  13.370
    1HEX  C1A   2694  16.957   4.285  13.323
    1HEX  H1D   2695   0.233   4.121  12.344
    1HEX  H1E   2696   0.236   4.296  12.340
    1HEX  H1F   2697   0.244   4.299  12.595
    1HEX  H1G   2698   0.235   4.124  12.595
    1HEX  H1H   2699  17.256   4.287  12.513
    1HEX  H1I   2700  17.281   4.456  12.534
    1HEX  H1J   2701  17.397   4.495  12.790
    1HEX  H1K   2702  17.271   4.461  12.906
    1HEX  H1M   2703  17.152   4.880  12.768
    1HEX  H1N   2704  17.324   4.849  12.764
    1HEX  H1O   2705  17.335   4.915  13.017
    1HEX  H1P   2706  17.170   4.971  13.001
    1HEX  H1R   2707  17.050   4.432  12.675
    1HEX  H1S   2708  17.056   4.344  12.824
    1HEX  H1T   2709  17.099   4.030  12.498
    1HEX  H1U   2710  16.999   4.087  12.367
    1HEX  H1V   2711  16.793   4.052  12.511
    1HEX  H1W   2712  16.894   3.989  12.639
    1HEX  H1Y   2713  17.279   4.138  12.711
    1HEX  H1Z   2714  17.225   4.177  12.863
    1HEX  H20   2715   0.077   4.368  12.885
    1HEX  H21   2716   0.163   4.227  12.913
    1HEX  H22   2717   0.008   4.048  13.077
    1HEX  H23   2718   0.025   4.119  13.235
    1HEX  H24   2719   0.432   4.024  13.108
    1HEX  H25   2720   0.463   3.998  13.278
    1HEX  H26   2721   0.456   4.280  13.157
    1HEX  H27   2722   0.605   4.187  13.171
    1HEX  H29   2723   0.096   4.473  13.096
    1HEX  H2A   2724   0.222   4.353  13.117
    1HEX  H2B   2725   0.115   4.301  13.513
    1HEX  H2C   2726   0.047   4.463  13.516
    1HEX  H2D   2727   0.278   4.552  13.580
    1HEX  H2E   2728   0.338   4.388  13.582
    1HEX  H2G   2729  17.247   4.266  13.038
    1HEX  H2H   2730  17.310   4.415  13.100
    1HEX  H2I   2731  17.136   4.260  13.450
    1HEX  H2J   2732  17.055   4.111  13.411
    1HEX  H2K   2733  16.941   4.277  13.215
    1HEX  H2M   2734  16.965   4.391  13.347
    1STR  S00   2735   0.449   4.211  12.404
    1STR  S0E   2736  17.334   5.109  13.018
    1STR  S0M   2737  16.891   3.835  12.456
    1STR  S0X   2738   0.559   4.275  13.368
    1STR  S14   2739   0.171   4.452  13.763
    1STR  S1B   2740  16.803   4.327  13.232
    1HEX  C01   2741   0.269   8.568  16.757
    1HEX  C02   2742   0.205   8.570  16.895
    1HEX  C03   2743   0.054   8.568  16.883
    1HEX  O04   2744  17.435   8.469  16.841
    1HEX  O05   2745  17.437   8.683  16.921
    1HEX  C06   2746  17.295   8.692  16.931
    1HEX  C07   2747  17.250   8.680  17.079
    1HEX  C08   2748  17.290   8.813  17.147
    1HEX  O09   2749  17.223   8.931  17.106
    1HEX  C0A   2750  17.173   9.013  17.201
    1HEX  O0B   2751  17.123   8.975  17.307
    1HEX  C0C   2752  17.193   9.161  17.170
    1HEX  C0D   2753  17.195   9.246  17.299
    1HEX  C0F   2754  17.096   8.660  17.089
    1HEX  O0G   2755  17.065   8.521  17.064
    1HEX  C0H   2756  17.036   8.480  16.940
    1HEX  O0I   2757  16.990   8.552  16.852
    1HEX  C0J   2758  17.075   8.335  16.909
    1HEX  C0K   2759  17.085   8.231  17.025
    1HEX  C0N   2760  17.313   8.552  17.148
    1HEX  O0O   2761   0.011   8.545  17.182
    1HEX  C0P   2762   0.072   8.629  17.278
    1HEX  C0Q   2763   0.033   8.623  17.429
    1HEX  C0R   2764   0.069   8.483   0.045
    1HEX  O0S   2765   0.210   8.460   0.040
    1HEX  C0T   2766   0.282   8.452   0.154
    1HEX  O0U   2767   0.239   8.462   0.269
    1HEX  C0V   2768   0.429   8.429   0.127
    1HEX  C0W   2769   0.509   8.559   0.133
    1HEX  C0Y   2770   0.121   8.732   0.055
    1HEX  O0Z   2771   0.096   8.732   0.193
    1HEX  C10   2772   0.182   8.789   0.276
    1HEX  O11   2773   0.283   8.852   0.243
    1HEX  C12   2774   0.140   8.767   0.420
    1HEX  C13   2775   0.249   8.807   0.519
    1HEX  C15   2776  17.325   8.661   0.023
    1HEX  O16   2777  17.288   8.639   0.158
    1HEX  C17   2778  17.218   8.531   0.194
    1HEX  O18   2779  17.189   8.436   0.122
    1HEX  C19   2780  17.170   8.540   0.337
    1HEX  C1A   2781  17.087   8.668   0.356
    1HEX  H1D   2782   0.237   8.480  16.701
    1HEX  H1E   2783   0.237   8.655  16.699
    1HEX  H1F   2784   0.236   8.657  16.953
    1HEX  H1G   2785   0.235   8.482  16.953
    1HEX  H1H   2786  17.247   8.619  16.867
    1HEX  H1I   2787  17.264   8.789  16.890
    1HEX  H1J   2788  17.394   8.836  17.125
    1HEX  H1K   2789  17.282   8.802  17.254
    1HEX  H1M   2790  17.117   9.196  17.101
    1HEX  H1N   2791  17.289   9.172  17.120
    1HEX  H1O   2792  17.269   9.208  17.370
    1HEX  H1P   2793  17.098   9.241  17.349
    1HEX  H1R   2794  17.042   8.728  17.023
    1HEX  H1S   2795  17.062   8.684  17.190
    1HEX  H1T   2796  17.174   8.342  16.863
    1HEX  H1U   2797  17.009   8.300  16.830
    1HEX  H1V   2798  17.037   8.137  16.997
    1HEX  H1W   2799  17.039   8.266  17.117
    1HEX  H1Y   2800  17.302   8.471  17.076
    1HEX  H1Z   2801  17.252   8.514  17.229
    1HEX  H20   2802   0.080   8.731  17.242
    1HEX  H21   2803   0.176   8.596  17.273
    1HEX  H22   2804   0.018   8.406  17.429
    1HEX  H23   2805   0.033   8.473   0.148
    1HEX  H24   2806   0.439   8.382   0.029
    1HEX  H25   2807   0.468   8.358   0.200
    1HEX  H26   2808   0.459   8.639   0.077
    1HEX  H27   2809   0.608   8.547   0.089
    1HEX  H29   2810   0.100   8.832   0.015
    1HEX  H2A   2811   0.227   8.714   0.036
    1HEX  H2B   2812   0.116   8.661   0.431
    1HEX  H2C   2813   0.048   8.823   0.435
    1HEX  H2D   2814   0.278   8.911   0.501
    1HEX  H2E   2815   0.338   8.747   0.501
    1HEX  H2G   2816  17.251   8.614  17.400
    1HEX  H2H   2817  17.311   8.768   0.013
    1HEX  H2I   2818  17.257   8.540   0.403
    1HEX  H2J   2819  17.111   8.452   0.362
    1HEX  H2K   2820  17.007   8.672   0.282
    1HEX  H2M   2821  17.149   8.756   0.340
    1STR  S00   2822   0.450   8.574  16.765
    1STR  S0E   2823  17.242   9.419  17.275
    1STR  S0M   2824  17.168   8.087  17.106
    1STR  S0X   2825   0.559   8.638   0.288
    1STR  S14   2826   0.171   8.812   0.682
    1STR  S1B   2827  17.027   8.700   0.524
    1HEX  C01   2828   0.271   8.569   3.676
    1HEX  C02   2829   0.210   8.570   3.816
    1HEX  C03   2830   0.059   8.571   3.807
    1HEX  O04   2831  17.437   8.472   3.768
    1HEX  O05   2832   0.005   8.688   3.844
    1HEX  C06   2833  17.303   8.702   3.850
    1HEX  C07   2834  17.253   8.693   3.996
    1HEX  C08   2835  17.299   8.822   4.068
    1HEX  O09   2836  17.237   8.943   4.028
    1HEX  C0A   2837  17.178   9.019   4.120
    1HEX  O0B   2838  17.123   8.977   4.223
    1HEX  C0C   2839  17.193   9.167   4.092
    1HEX  C0D   2840  17.194   9.249   4.222
    1HEX  C0F   2841  17.097   8.691   4.002
    1HEX  O0G   2842  17.049   8.572   3.940
    1HEX  C0H   2843  17.008   8.574   3.813
    1HEX  O0I   2844  16.984   8.674   3.746
    1HEX  C0J   2845  17.003   8.435   3.752
    1HEX  C0K   2846  16.884   8.356   3.808
    1HEX  C0N   2847  17.300   8.560   4.065
    1HEX  O0O   2848  17.437   8.540   4.104
    1HEX  C0P   2849   0.067   8.623   4.197
    1HEX  C0Q   2850   0.032   8.622   4.349
    1HEX  C0R   2851   0.068   8.483   4.407
    1HEX  O0S   2852   0.209   8.459   4.401
    1HEX  C0T   2853   0.282   8.452   4.514
    1HEX  O0U   2854   0.239   8.461   4.629
    1HEX  C0V   2855   0.429   8.429   4.486
    1HEX  C0W   2856   0.509   8.560   4.492
    1HEX  C0Y   2857   0.121   8.731   4.413
    1HEX  O0Z   2858   0.096   8.733   4.551
    1HEX  C10   2859   0.182   8.789   4.634
    1HEX  O11   2860   0.283   8.851   4.602
    1HEX  C12   2861   0.140   8.767   4.778
    1HEX  C13   2862   0.249   8.808   4.877
    1HEX  C15   2863  17.324   8.660   4.383
    1HEX  O16   2864  17.287   8.638   4.519
    1HEX  C17   2865  17.218   8.530   4.554
    1HEX  O18   2866  17.190   8.434   4.482
    1HEX  C19   2867  17.169   8.540   4.698
    1HEX  C1A   2868  17.087   8.667   4.716
    1HEX  H1D   2869   0.237   8.481   3.621
    1HEX  H1E   2870   0.238   8.656   3.619
    1HEX  H1F   2871   0.243   8.657   3.873
    1HEX  H1G   2872   0.240   8.482   3.873
    1HEX  H1H   2873  17.256   8.629   3.786
    1HEX  H1I   2874  17.276   8.799   3.807
    1HEX  H1J   2875  17.404   8.841   4.045
    1HEX  H1K   2876  17.291   8.809   4.174
    1HEX  H1M   2877  17.116   9.201   4.024
    1HEX  H1N   2878  17.289   9.181   4.041
    1HEX  H1O   2879  17.268   9.211   4.292
    1HEX  H1P   2880  17.097   9.242   4.272
    1HEX  H1R   2881  17.054   8.781   3.957
    1HEX  H1S   2882  17.063   8.692   4.105
    1HEX  H1T   2883  17.097   8.385   3.774
    1HEX  H1U   2884  16.996   8.445   3.644
    1HEX  H1V   2885  16.791   8.410   3.789
    1HEX  H1W   2886  16.893   8.345   3.916
    1HEX  H1Y   2887  17.284   8.481   3.991
    1HEX  H1Z   2888  17.233   8.526   4.142
    1HEX  H20   2889   0.080   8.724   4.159
    1HEX  H21   2890   0.169   8.585   4.189
    1HEX  H22   2891   0.016   8.404   4.352
    1HEX  H23   2892   0.033   8.474   4.510
    1HEX  H24   2893   0.439   8.382   4.388
    1HEX  H25   2894   0.468   8.358   4.560
    1HEX  H26   2895   0.459   8.639   4.437
    1HEX  H27   2896   0.609   8.547   4.450
    1HEX  H29   2897   0.099   8.830   4.372
    1HEX  H2A   2898   0.226   8.713   4.393
    1HEX  H2B   2899   0.116   8.661   4.790
    1HEX  H2C   2900   0.048   8.823   4.794
    1HEX  H2D   2901   0.278   8.911   4.860
    1HEX  H2E   2902   0.338   8.747   4.860
    1HEX  H2G   2903  17.250   8.612   4.321
    1HEX  H2H   2904  17.309   8.767   4.372
    1HEX  H2I   2905  17.256   8.540   4.764
    1HEX  H2J   2906  17.110   8.451   4.722
    1HEX  H2K   2907  17.007   8.671   4.642
    1HEX  H2M   2908  17.149   8.756   4.700
    1STR  S00   2909   0.452   8.572   3.685
    1STR  S0E   2910  17.243   9.422   4.196
    1STR  S0M   2911  16.890   8.190   3.735
    1STR  S0X   2912   0.559   8.637   4.649
    1STR  S14   2913   0.172   8.812   5.041
    1STR  S1B   2914  17.028   8.700   4.884
    1HEX  C01   2915   0.271   8.569   8.036
    1HEX  C02   2916   0.210   8.570   8.176
    1HEX  C03   2917   0.059   8.571   8.167
    1HEX  O04   2918  17.437   8.472   8.128
    1HEX  O05   2919   0.005   8.688   8.204
    1HEX  C06   2920  17.303   8.702   8.210
    1HEX  C07   2921  17.253   8.693   8.356
    1HEX  C08   2922  17.299   8.822   8.428
    1HEX  O09   2923  17.237   8.943   8.388
    1HEX  C0A   2924  17.178   9.019   8.480
    1HEX  O0B   2925  17.123   8.977   8.583
    1HEX  C0C   2926  17.193   9.167   8.452
    1HEX  C0D   2927  17.194   9.249   8.582
    1HEX  C0F   2928  17.097   8.691   8.362
    1HEX  O0G   2929  17.049   8.572   8.300
    1HEX  C0H   2930  17.008   8.574   8.173
    1HEX  O0I   2931  16.984   8.674   8.106
    1HEX  C0J   2932  17.003   8.435   8.112
    1HEX  C0K   2933  16.884   8.356   8.168
    1HEX  C0N   2934  17.300   8.560   8.425
    1HEX  O0O   2935  17.437   8.540   8.464
    1HEX  C0P   2936   0.067   8.623   8.557
    1HEX  C0Q   2937   0.032   8.622   8.709
    1HEX  C0R   2938   0.068   8.483   8.767
    1HEX  O0S   2939   0.209   8.459   8.761
    1HEX  C0T   2940   0.282   8.452   8.874
    1HEX  O0U   2941   0.239   8.461   8.989
    1HEX  C0V   2942   0.429   8.429   8.846
    1HEX  C0W   2943   0.509   8.560   8.852
    1HEX  C0Y   2944   0.120   8.731   8.773
    1HEX  O0Z   2945   0.096   8.733   8.911
    1HEX  C10   2946   0.182   8.789   8.994
    1HEX  O11   2947   0.283   8.851   8.962
    1HEX  C12   2948   0.140   8.767   9.138
    1HEX  C13   2949   0.249   8.808   9.237
    1HEX  C15   2950  17.324   8.660   8.743
    1HEX  O16   2951  17.287   8.638   8.879
    1HEX  C17   2952  17.218   8.530   8.914
    1HEX  O18   2953  17.190   8.434   8.842
    1HEX  C19   2954  17.169   8.540   9.058
    1HEX  C1A   2955  17.087   8.667   9.076
    1HEX  H1D   2956   0.237   8.481   7.981
    1HEX  H1E   2957   0.238   8.656   7.979
    1HEX  H1F   2958   0.243   8.657   8.233
    1HEX  H1G   2959   0.240   8.482   8.233
    1HEX  H1H   2960  17.256   8.629   8.146
    1HEX  H1I   2961  17.276   8.799   8.167
    1HEX  H1J   2962  17.404   8.841   8.405
    1HEX  H1K   2963  17.291   8.809   8.534
    1HEX  H1M   2964  17.116   9.201   8.384
    1HEX  H1N   2965  17.289   9.181   8.401
    1HEX  H1O   2966  17.268   9.211   8.652
    1HEX  H1P   2967  17.097   9.242   8.632
    1HEX  H1R   2968  17.054   8.781   8.317
    1HEX  H1S   2969  17.063   8.692   8.465
    1HEX  H1T   2970  17.097   8.385   8.134
    1HEX  H1U   2971  16.996   8.445   8.004
    1HEX  H1V   2972  16.791   8.410   8.149
    1HEX  H1W   2973  16.893   8.345   8.276
    1HEX  H1Y   2974  17.284   8.481   8.351
    1HEX  H1Z   2975  17.233   8.526   8.502
    1HEX  H20   2976   0.080   8.724   8.519
    1HEX  H21   2977   0.169   8.585   8.549
    1HEX  H22   2978   0.016   8.404   8.712
    1HEX  H23   2979   0.033   8.474   8.870
    1HEX  H24   2980   0.439   8.382   8.748
    1HEX  H25   2981   0.468   8.358   8.920
    1HEX  H26   2982   0.459   8.639   8.797
    1HEX  H27   2983   0.609   8.547   8.810
    1HEX  H29   2984   0.099   8.830   8.732
    1HEX  H2A   2985   0.226   8.713   8.753
    1HEX  H2B   2986   0.116   8.661   9.150
    1HEX  H2C   2987   0.048   8.823   9.154
    1HEX  H2D   2988   0.278   8.911   9.220
    1HEX  H2E   2989   0.338   8.747   9.220
    1HEX  H2G   2990  17.250   8.612   8.681
    1HEX  H2H   2991  17.309   8.767   8.732
    1HEX  H2I   2992  17.256   8.540   9.124
    1HEX  H2J   2993  17.110   8.451   9.082
    1HEX  H2K   2994  17.007   8.671   9.002
    1HEX  H2M   2995  17.149   8.756   9.060
    1STR  S00   2996   0.452   8.572   8.045
    1STR  S0E   2997  17.243   9.422   8.556
    1STR  S0M   2998  16.890   8.190   8.095
    1STR  S0X   2999   0.559   8.637   9.008
    1STR  S14   3000   0.172   8.812   9.401
    1STR  S1B   3001  17.028   8.700   9.244
    1HEX  C01   3002   0.267   8.571  12.397
    1HEX  C02   3003   0.202   8.574  12.536
    1HEX  C03   3004   0.050   8.573  12.524
    1HEX  O04   3005  17.431   8.473  12.484
    1HEX  O05   3006  17.433   8.688  12.565
    1HEX  C06   3007  17.291   8.696  12.580
    1HEX  C07   3008  17.250   8.682  12.729
    1HEX  C08   3009  17.280   8.820  12.800
    1HEX  O09   3010  17.222   8.946  12.762
    1HEX  C0A   3011  17.203   9.043  12.860
    1HEX  O0B   3012  17.176   9.018  12.977
    1HEX  C0C   3013  17.224   9.189  12.815
    1HEX  C0D   3014  17.246   9.296  12.928
    1HEX  C0F   3015  17.099   8.640  12.743
    1HEX  O0G   3016  17.083   8.495  12.759
    1HEX  C0H   3017  17.076   8.413  12.651
    1HEX  O0I   3018  17.038   8.455  12.542
    1HEX  C0J   3019  17.125   8.264  12.662
    1HEX  C0K   3020  17.164   8.179  12.794
    1HEX  C0N   3021  17.326   8.559  12.794
    1HEX  O0O   3022   0.025   8.559  12.819
    1HEX  C0P   3023   0.081   8.639  12.921
    1HEX  C0Q   3024   0.036   8.627  13.071
    1HEX  C0R   3025   0.070   8.485  13.124
    1HEX  O0S   3026   0.210   8.461  13.120
    1HEX  C0T   3027   0.282   8.452  13.234
    1HEX  O0U   3028   0.239   8.461  13.349
    1HEX  C0V   3029   0.430   8.429  13.206
    1HEX  C0W   3030   0.509   8.559  13.212
    1HEX  C0Y   3031   0.124   8.734  13.139
    1HEX  O0Z   3032   0.098   8.732  13.277
    1HEX  C10   3033   0.183   8.789  13.359
    1HEX  O11   3034   0.284   8.852  13.327
    1HEX  C12   3035   0.140   8.767  13.502
    1HEX  C13   3036   0.249   8.808  13.601
    1HEX  C15   3037  17.328   8.665  13.106
    1HEX  O16   3038  17.291   8.640  13.240
    1HEX  C17   3039  17.218   8.533  13.273
    1HEX  O18   3040  17.187   8.440  13.198
    1HEX  C19   3041  17.170   8.540  13.417
    1HEX  C1A   3042  17.087   8.667  13.436
    1HEX  H1D   3043   0.234   8.482  12.343
    1HEX  H1E   3044   0.235   8.657  12.339
    1HEX  H1F   3045   0.234   8.661  12.593
    1HEX  H1G   3046   0.231   8.486  12.594
    1HEX  H1H   3047  17.241   8.622  12.517
    1HEX  H1I   3048  17.258   8.792  12.540
    1HEX  H1J   3049  17.386   8.842  12.786
    1HEX  H1K   3050  17.264   8.807  12.905
    1HEX  H1M   3051  17.141   9.220  12.751
    1HEX  H1N   3052  17.313   9.190  12.752
    1HEX  H1O   3053  17.317   9.262  13.003
    1HEX  H1P   3054  17.153   9.319  12.981
    1HEX  H1R   3055  17.038   8.681  12.662
    1HEX  H1S   3056  17.057   8.686  12.833
    1HEX  H1T   3057  17.212   8.264  12.596
    1HEX  H1U   3058  17.050   8.210  12.605
    1HEX  H1V   3059  17.147   8.073  12.771
    1HEX  H1W   3060  17.096   8.203  12.875
    1HEX  H1Y   3061  17.319   8.479  12.721
    1HEX  H1Z   3062  17.276   8.515  12.879
    1HEX  H20   3063   0.086   8.742  12.889
    1HEX  H21   3064   0.185   8.607  12.917
    1HEX  H22   3065   0.018   8.409  13.066
    1HEX  H23   3066   0.033   8.473  13.226
    1HEX  H24   3067   0.439   8.382  13.108
    1HEX  H25   3068   0.468   8.358  13.280
    1HEX  H26   3069   0.459   8.639  13.158
    1HEX  H27   3070   0.608   8.547  13.169
    1HEX  H29   3071   0.102   8.834  13.100
    1HEX  H2A   3072   0.230   8.716  13.120
    1HEX  H2B   3073   0.116   8.661  13.513
    1HEX  H2C   3074   0.048   8.823  13.517
    1HEX  H2D   3075   0.278   8.911  13.583
    1HEX  H2E   3076   0.338   8.747  13.583
    1HEX  H2G   3077  17.252   8.622  13.043
    1HEX  H2H   3078  17.316   8.773  13.098
    1HEX  H2I   3079  17.257   8.540  13.483
    1HEX  H2J   3080  17.111   8.451  13.440
    1HEX  H2K   3081  17.006   8.671  13.363
    1HEX  H2M   3082  17.148   8.756  13.420
    1STR  S00   3083   0.448   8.572  12.405
    1STR  S0E   3084  17.317   9.455  12.990
    1STR  S0M   3085  17.248   8.043  12.904
    1STR  S0X   3086   0.560   8.636  13.368
    1STR  S14   3087   0.172   8.812  13.765
    1STR  S1B   3088  17.028   8.700  13.604
    1HEX  C01   3089   0.271  12.929  16.756
    1HEX  C02   3090   0.210  12.930  16.896
    1HEX  C03   3091   0.059  12.931  16.887
    1HEX  O04   3092  17.437  12.832  16.848
    1HEX  O05   3093   0.005  13.048  16.924
    1HEX  C06   3094  17.303  13.062  16.930
    1HEX  C07   3095  17.253  13.053  17.076
    1HEX  C08   3096  17.300  13.182  17.148
    1HEX  O09   3097  17.237  13.303  17.107
    1HEX  C0A   3098  17.178  13.379  17.200
    1HEX  O0B   3099  17.123  13.337  17.302
    1HEX  C0C   3100  17.193  13.528  17.172
    1HEX  C0D   3101  17.194  13.610  17.302
    1HEX  C0F   3102  17.098  13.051  17.082
    1HEX  O0G   3103  17.049  12.932  17.020
    1HEX  C0H   3104  17.008  12.934  16.893
    1HEX  O0I   3105  16.984  13.035  16.826
    1HEX  C0J   3106  17.003  12.795  16.832
    1HEX  C0K   3107  16.884  12.716  16.888
    1HEX  C0N   3108  17.300  12.920  17.145
    1HEX  O0O   3109  17.437  12.900  17.184
    1HEX  C0P   3110   0.067  12.983  17.277
    1HEX  C0Q   3111   0.032  12.982  17.429
    1HEX  C0R   3112   0.068  12.843   0.047
    1HEX  O0S   3113   0.209  12.819   0.041
    1HEX  C0T   3114   0.282  12.812   0.154
    1HEX  O0U   3115   0.239  12.822   0.269
    1HEX  C0V   3116   0.429  12.789   0.126
    1HEX  C0W   3117   0.509  12.920   0.132
    1HEX  C0Y   3118   0.120  13.091   0.053
    1HEX  O0Z   3119   0.096  13.093   0.191
    1HEX  C10   3120   0.182  13.149   0.274
    1HEX  O11   3121   0.283  13.211   0.241
    1HEX  C12   3122   0.140  13.127   0.418
    1HEX  C13   3123   0.249  13.168   0.517
    1HEX  C15   3124  17.324  13.020   0.023
    1HEX  O16   3125  17.287  12.998   0.159
    1HEX  C17   3126  17.218  12.890   0.195
    1HEX  O18   3127  17.190  12.794   0.123
    1HEX  C19   3128  17.169  12.900   0.338
    1HEX  C1A   3129  17.087  13.028   0.356
    1HEX  H1D   3130   0.237  12.841  16.701
    1HEX  H1E   3131   0.238  13.016  16.699
    1HEX  H1F   3132   0.243  13.018  16.953
    1HEX  H1G   3133   0.240  12.842  16.953
    1HEX  H1H   3134  17.256  12.989  16.866
    1HEX  H1I   3135  17.276  13.159  16.887
    1HEX  H1J   3136  17.404  13.201  17.125
    1HEX  H1K   3137  17.291  13.169  17.254
    1HEX  H1M   3138  17.116  13.561  17.104
    1HEX  H1N   3139  17.289  13.541  17.121
    1HEX  H1O   3140  17.268  13.571  17.372
    1HEX  H1P   3141  17.097  13.602  17.352
    1HEX  H1R   3142  17.054  13.141  17.037
    1HEX  H1S   3143  17.063  13.052  17.185
    1HEX  H1T   3144  17.097  12.745  16.854
    1HEX  H1U   3145  16.996  12.805  16.724
    1HEX  H1V   3146  16.791  12.770  16.869
    1HEX  H1W   3147  16.893  12.705  16.996
    1HEX  H1Y   3148  17.284  12.841  17.071
    1HEX  H1Z   3149  17.233  12.886  17.222
    1HEX  H20   3150   0.080  13.084  17.239
    1HEX  H21   3151   0.169  12.945  17.269
    1HEX  H22   3152   0.016  12.764  17.432
    1HEX  H23   3153   0.033  12.834   0.150
    1HEX  H24   3154   0.439  12.742   0.028
    1HEX  H25   3155   0.468  12.719   0.200
    1HEX  H26   3156   0.459  13.000   0.077
    1HEX  H27   3157   0.609  12.908   0.090
    1HEX  H29   3158   0.099  13.191   0.012
    1HEX  H2A   3159   0.226  13.073   0.033
    1HEX  H2B   3160   0.115  13.021   0.430
    1HEX  H2C   3161   0.048  13.183   0.434
    1HEX  H2D   3162   0.278  13.272   0.500
    1HEX  H2E   3163   0.338  13.107   0.500
    1HEX  H2G   3164  17.250  12.972  17.401
    1HEX  H2H   3165  17.309  13.127   0.012
    1HEX  H2I   3166  17.256  12.900   0.404
    1HEX  H2J   3167  17.110  12.811   0.362
    1HEX  H2K   3168  17.007  13.032   0.282
    1HEX  H2M   3169  17.149  13.116   0.340
    1STR  S00   3170   0.452  12.932  16.765
    1STR  S0E   3171  17.243  13.782  17.276
    1STR  S0M   3172  16.891  12.550  16.815
    1STR  S0X   3173   0.559  12.997   0.289
    1STR  S14   3174   0.172  13.172   0.681
    1STR  S1B   3175  17.028  13.060   0.524
    1HEX  C01   3176   0.269  12.929   3.677
    1HEX  C02   3177   0.209  12.933   3.818
    1HEX  C03   3178   0.058  12.937   3.810
    1HEX  O04   3179  17.434  12.841   3.769
    1HEX  O05   3180   0.006  13.055   3.851
    1HEX  C06   3181  17.305  13.074   3.856
    1HEX  C07   3182  17.252  13.065   4.002
    1HEX  C08   3183  17.294  13.193   4.078
    1HEX  O09   3184  17.234  13.318   4.040
    1HEX  C0A   3185  17.200  13.407   4.137
    1HEX  O0B   3186  17.162  13.376   4.250
    1HEX  C0C   3187  17.218  13.553   4.095
    1HEX  C0D   3188  17.233  13.653   4.213
    1HEX  C0F   3189  17.097  13.058   4.003
    1HEX  O0G   3190  17.053  12.937   3.941
    1HEX  C0H   3191  17.010  12.937   3.814
    1HEX  O0I   3192  16.984  13.037   3.747
    1HEX  C0J   3193  17.005  12.798   3.755
    1HEX  C0K   3194  16.886  12.719   3.809
    1HEX  C0N   3195  17.302  12.931   4.070
    1HEX  O0O   3196  17.439  12.912   4.110
    1HEX  C0P   3197   0.069  12.994   4.205
    1HEX  C0Q   3198   0.035  12.987   4.357
    1HEX  C0R   3199   0.069  12.845   4.409
    1HEX  O0S   3200   0.209  12.820   4.403
    1HEX  C0T   3201   0.282  12.810   4.515
    1HEX  O0U   3202   0.240  12.817   4.631
    1HEX  C0V   3203   0.430  12.788   4.487
    1HEX  C0W   3204   0.509  12.919   4.492
    1HEX  C0Y   3205   0.123  13.093   4.430
    1HEX  O0Z   3206   0.091  13.088   4.567
    1HEX  C10   3207   0.169  13.139   4.662
    1HEX  O11   3208   0.274  13.200   4.644
    1HEX  C12   3209   0.108  13.113   4.799
    1HEX  C13   3210   0.197  13.146   4.920
    1HEX  C15   3211  17.327  13.025   4.389
    1HEX  O16   3212  17.287  13.001   4.523
    1HEX  C17   3213  17.218  12.892   4.556
    1HEX  O18   3214  17.192  12.797   4.483
    1HEX  C19   3215  17.169  12.900   4.699
    1HEX  C1A   3216  17.086  13.028   4.718
    1HEX  H1D   3217   0.235  12.841   3.623
    1HEX  H1E   3218   0.237  13.016   3.620
    1HEX  H1F   3219   0.245  13.019   3.874
    1HEX  H1G   3220   0.238  12.844   3.874
    1HEX  H1H   3221  17.257  13.001   3.791
    1HEX  H1I   3222  17.280  13.170   3.813
    1HEX  H1J   3223  17.399  13.212   4.062
    1HEX  H1K   3224  17.278  13.176   4.183
    1HEX  H1M   3225  17.136  13.582   4.030
    1HEX  H1N   3226  17.309  13.557   4.036
    1HEX  H1O   3227  17.309  13.622   4.285
    1HEX  H1P   3228  17.140  13.663   4.270
    1HEX  H1R   3229  17.053  13.146   3.957
    1HEX  H1S   3230  17.060  13.058   4.106
    1HEX  H1T   3231  17.099  12.747   3.777
    1HEX  H1U   3232  16.999  12.807   3.646
    1HEX  H1V   3233  16.793  12.771   3.789
    1HEX  H1W   3234  16.894  12.707   3.918
    1HEX  H1Y   3235  17.288  12.853   3.995
    1HEX  H1Z   3236  17.233  12.895   4.146
    1HEX  H20   3237   0.081  13.095   4.171
    1HEX  H21   3238   0.171  12.957   4.195
    1HEX  H22   3239   0.016  12.770   4.351
    1HEX  H23   3240   0.033  12.833   4.512
    1HEX  H24   3241   0.439  12.741   4.389
    1HEX  H25   3242   0.469  12.718   4.560
    1HEX  H26   3243   0.459  12.998   4.437
    1HEX  H27   3244   0.609  12.907   4.450
    1HEX  H29   3245   0.105  13.194   4.392
    1HEX  H2A   3246   0.230  13.074   4.415
    1HEX  H2B   3247   0.082  13.007   4.801
    1HEX  H2C   3248   0.014  13.168   4.805
    1HEX  H2D   3249   0.223  13.252   4.919
    1HEX  H2E   3250   0.290  13.090   4.915
    1HEX  H2G   3251  17.255  12.977   4.325
    1HEX  H2H   3252  17.313  13.132   4.378
    1HEX  H2I   3253  17.255  12.900   4.766
    1HEX  H2J   3254  17.109  12.812   4.722
    1HEX  H2K   3255  17.007  13.033   4.643
    1HEX  H2M   3256  17.149  13.116   4.703
    1STR  S00   3257   0.450  12.932   3.684
    1STR  S0E   3258  17.297  13.817   4.262
    1STR  S0M   3259  16.891  12.553   3.736
    1STR  S0X   3260   0.564  12.995   4.648
    1STR  S14   3261   0.127  13.106   5.084
    1STR  S1B   3262  17.021  13.056   4.884
    1HEX  C01   3263   0.264  12.927   8.033
    1HEX  C02   3264   0.210  12.927   8.176
    1HEX  C03   3265   0.059  12.926   8.175
    1HEX  O04   3266  17.436  12.823   8.148
    1HEX  O05   3267   0.006  13.046   8.205
    1HEX  C06   3268  17.304  13.061   8.210
    1HEX  C07   3269  17.253  13.053   8.356
    1HEX  C08   3270  17.300  13.182   8.428
    1HEX  O09   3271  17.237  13.303   8.388
    1HEX  C0A   3272  17.178  13.379   8.481
    1HEX  O0B   3273  17.124  13.337   8.583
    1HEX  C0C   3274  17.193  13.528   8.452
    1HEX  C0D   3275  17.193  13.610   8.582
    1HEX  C0F   3276  17.097  13.052   8.361
    1HEX  O0G   3277  17.049  12.933   8.300
    1HEX  C0H   3278  17.008  12.935   8.173
    1HEX  O0I   3279  16.981  13.035   8.107
    1HEX  C0J   3280  17.004  12.796   8.112
    1HEX  C0K   3281  16.885  12.716   8.167
    1HEX  C0N   3282  17.299  12.920   8.426
    1HEX  O0O   3283  17.435  12.899   8.466
    1HEX  C0P   3284   0.066  12.983   8.557
    1HEX  C0Q   3285   0.031  12.982   8.710
    1HEX  C0R   3286   0.068  12.843   8.768
    1HEX  O0S   3287   0.209  12.820   8.761
    1HEX  C0T   3288   0.282  12.812   8.875
    1HEX  O0U   3289   0.239  12.822   8.990
    1HEX  C0V   3290   0.429  12.789   8.847
    1HEX  C0W   3291   0.509  12.920   8.853
    1HEX  C0Y   3292   0.120  13.092   8.773
    1HEX  O0Z   3293   0.096  13.093   8.911
    1HEX  C10   3294   0.182  13.149   8.994
    1HEX  O11   3295   0.284  13.210   8.962
    1HEX  C12   3296   0.140  13.127   9.138
    1HEX  C13   3297   0.249  13.168   9.237
    1HEX  C15   3298  17.324  13.020   8.744
    1HEX  O16   3299  17.287  12.998   8.879
    1HEX  C17   3300  17.218  12.890   8.915
    1HEX  O18   3301  17.191  12.794   8.843
    1HEX  C19   3302  17.169  12.900   9.058
    1HEX  C1A   3303  17.086  13.028   9.076
    1HEX  H1D   3304   0.215  12.850   7.973
    1HEX  H1E   3305   0.243  13.022   7.984
    1HEX  H1F   3306   0.245  13.014   8.232
    1HEX  H1G   3307   0.243  12.838   8.230
    1HEX  H1H   3308  17.258  12.987   8.146
    1HEX  H1I   3309  17.278  13.157   8.166
    1HEX  H1J   3310  17.404  13.201   8.405
    1HEX  H1K   3311  17.292  13.169   8.534
    1HEX  H1M   3312  17.115  13.561   8.384
    1HEX  H1N   3313  17.288  13.541   8.401
    1HEX  H1O   3314  17.268  13.571   8.652
    1HEX  H1P   3315  17.097  13.602   8.632
    1HEX  H1R   3316  17.054  13.141   8.316
    1HEX  H1S   3317  17.062  13.053   8.464
    1HEX  H1T   3318  17.098  12.746   8.133
    1HEX  H1U   3319  16.997  12.806   8.003
    1HEX  H1V   3320  16.792  12.769   8.147
    1HEX  H1W   3321  16.894  12.705   8.275
    1HEX  H1Y   3322  17.282  12.841   8.353
    1HEX  H1Z   3323  17.230  12.887   8.504
    1HEX  H20   3324   0.079  13.083   8.519
    1HEX  H21   3325   0.168  12.945   8.549
    1HEX  H22   3326   0.016  12.765   8.713
    1HEX  H23   3327   0.033  12.834   8.870
    1HEX  H24   3328   0.438  12.742   8.749
    1HEX  H25   3329   0.468  12.718   8.920
    1HEX  H26   3330   0.459  12.999   8.798
    1HEX  H27   3331   0.608  12.908   8.810
    1HEX  H29   3332   0.099  13.191   8.732
    1HEX  H2A   3333   0.226  13.073   8.753
    1HEX  H2B   3334   0.115  13.021   9.150
    1HEX  H2C   3335   0.048  13.183   9.154
    1HEX  H2D   3336   0.278  13.272   9.220
    1HEX  H2E   3337   0.338  13.107   9.221
    1HEX  H2G   3338  17.250  12.972   8.682
    1HEX  H2H   3339  17.309  13.127   8.732
    1HEX  H2I   3340  17.256  12.900   9.124
    1HEX  H2J   3341  17.110  12.811   9.082
    1HEX  H2K   3342  17.006  13.031   9.002
    1HEX  H2M   3343  17.149  13.116   9.060
    1STR  S00   3344   0.244  13.031   7.886
    1STR  S0E   3345  17.244  13.782   8.556
    1STR  S0M   3346  16.889  12.549   8.096
    1STR  S0X   3347   0.560  12.998   9.008
    1STR  S14   3348   0.172  13.172   9.402
    1STR  S1B   3349  17.028  13.060   9.244
    1HEX  C01   3350   0.269  12.929  12.396
    1HEX  C02   3351   0.205  12.930  12.536
    1HEX  C03   3352   0.054  12.926  12.525
    1HEX  O04   3353  17.436  12.825  12.485
    1HEX  O05   3354  17.436  13.041  12.561
    1HEX  C06   3355  17.294  13.048  12.573
    1HEX  C07   3356  17.251  13.036  12.721
    1HEX  C08   3357  17.289  13.170  12.789
    1HEX  O09   3358  17.221  13.289  12.747
    1HEX  C0A   3359  17.173  13.371  12.842
    1HEX  O0B   3360  17.124  13.335  12.949
    1HEX  C0C   3361  17.193  13.519  12.810
    1HEX  C0D   3362  17.195  13.605  12.938
    1HEX  C0F   3363  17.098  13.011  12.733
    1HEX  O0G   3364  17.070  12.869  12.718
    1HEX  C0H   3365  17.044  12.817  12.598
    1HEX  O0I   3366  17.000  12.882  12.504
    1HEX  C0J   3367  17.084  12.669  12.577
    1HEX  C0K   3368  17.100  12.569  12.698
    1HEX  C0N   3369  17.317  12.910  12.791
    1HEX  O0O   3370   0.016  12.904  12.824
    1HEX  C0P   3371   0.078  12.991  12.919
    1HEX  C0Q   3372   0.042  12.987  13.071
    1HEX  C0R   3373   0.088  12.851  13.130
    1HEX  O0S   3374   0.230  12.834  13.120
    1HEX  C0T   3375   0.309  12.838  13.230
    1HEX  O0U   3376   0.271  12.855  13.346
    1HEX  C0V   3377   0.457  12.811  13.200
    1HEX  C0W   3378   0.548  12.936  13.195
    1HEX  C0Y   3379   0.125  13.102  13.133
    1HEX  O0Z   3380   0.097  13.108  13.270
    1HEX  C10   3381   0.188  13.149  13.356
    1HEX  O11   3382   0.298  13.196  13.328
    1HEX  C12   3383   0.140  13.129  13.499
    1HEX  C13   3384   0.246  13.170  13.601
    1HEX  C15   3385  17.333  13.018  13.106
    1HEX  O16   3386  17.297  12.995  13.241
    1HEX  C17   3387  17.224  12.888  13.276
    1HEX  O18   3388  17.195  12.794  13.203
    1HEX  C19   3389  17.172  12.899  13.418
    1HEX  C1A   3390  17.089  13.027  13.434
    1HEX  H1D   3391   0.237  12.841  12.341
    1HEX  H1E   3392   0.236  13.016  12.339
    1HEX  H1F   3393   0.236  13.018  12.592
    1HEX  H1G   3394   0.237  12.843  12.593
    1HEX  H1H   3395  17.246  12.974  12.510
    1HEX  H1I   3396  17.262  13.145  12.532
    1HEX  H1J   3397  17.392  13.194  12.766
    1HEX  H1K   3398  17.281  13.160  12.896
    1HEX  H1M   3399  17.117  13.554  12.741
    1HEX  H1N   3400  17.289  13.530  12.760
    1HEX  H1O   3401  17.269  13.568  13.009
    1HEX  H1P   3402  17.098  13.601  12.989
    1HEX  H1R   3403  17.041  13.073  12.662
    1HEX  H1S   3404  17.062  13.042  12.831
    1HEX  H1T   3405  17.180  12.675  12.525
    1HEX  H1U   3406  17.014  12.629  12.504
    1HEX  H1V   3407  17.056  12.472  12.673
    1HEX  H1W   3408  17.049  12.605  12.787
    1HEX  H1Y   3409  17.308  12.829  12.719
    1HEX  H1Z   3410  17.257  12.871  12.872
    1HEX  H20   3411   0.082  13.092  12.881
    1HEX  H21   3412   0.182  12.960  12.911
    1HEX  H22   3413   0.039  12.769  13.077
    1HEX  H23   3414   0.055  12.842  13.234
    1HEX  H24   3415   0.461  12.757  13.105
    1HEX  H25   3416   0.494  12.742  13.275
    1HEX  H26   3417   0.497  13.021  13.147
    1HEX  H27   3418   0.637  12.915  13.137
    1HEX  H29   3419   0.100  13.198  13.088
    1HEX  H2A   3420   0.232  13.086  13.115
    1HEX  H2B   3421   0.115  13.023  13.510
    1HEX  H2C   3422   0.048  13.185  13.511
    1HEX  H2D   3423   0.276  13.273  13.582
    1HEX  H2E   3424   0.334  13.109  13.588
    1HEX  H2G   3425  17.260  12.968  13.043
    1HEX  H2H   3426  17.313  13.124  13.095
    1HEX  H2I   3427  17.257  12.899  13.486
    1HEX  H2J   3428  17.112  12.811  13.441
    1HEX  H2K   3429  17.008  13.029  13.360
    1HEX  H2M   3430  17.150  13.115  13.417
    1STR  S00   3431   0.450  12.932  12.402
    1STR  S0E   3432  17.243  13.778  12.915
    1STR  S0M   3433  17.175  12.414  12.771
    1STR  S0X   3434   0.715  13.000  13.151
    1STR  S14   3435   0.170  13.171  13.765
    1STR  S1B   3436  17.030  13.061  13.602
    1HEX  C01   3437   4.630  17.289  16.756
    1HEX  C02   3438   4.566  17.290  16.895
    1HEX  C03   3439   4.415  17.286  16.883
    1HEX  O04   3440   4.357  17.184  16.844
    1HEX  O05   3441   4.356  17.401  16.920
    1HEX  C06   3442   4.214  17.406  16.932
    1HEX  C07   3443   4.171  17.392  17.080
    1HEX  C08   3444   4.205   0.087  17.148
    1HEX  O09   3445   4.137   0.206  17.106
    1HEX  C0A   3446   4.092   0.290  17.202
    1HEX  O0B   3447   4.044   0.254  17.309
    1HEX  C0C   3448   4.113   0.437  17.170
    1HEX  C0D   3449   4.115   0.524  17.297
    1HEX  C0F   3450   4.019  17.359  17.091
    1HEX  O0G   3451   3.999  17.215  17.080
    1HEX  C0H   3452   3.979  17.159  16.960
    1HEX  O0I   3453   3.931  17.220  16.864
    1HEX  C0J   3454   4.030  17.013  16.938
    1HEX  C0K   3455   4.067  16.911  17.054
    1HEX  C0N   3456   4.241  17.268  17.150
    1HEX  O0O   3457   4.380  17.267  17.181
    1HEX  C0P   3458   4.436  17.352  17.279
    1HEX  C0Q   3459   4.395  17.344  17.430
    1HEX  C0R   3460   4.430  17.204   0.045
    1HEX  O0S   3461   4.570  17.179   0.040
    1HEX  C0T   3462   4.642  17.172   0.154
    1HEX  O0U   3463   4.599  17.182   0.269
    1HEX  C0V   3464   4.790  17.149   0.127
    1HEX  C0W   3465   4.869  17.279   0.133
    1HEX  C0Y   3466   4.482   0.012   0.056
    1HEX  O0Z   3467   4.457   0.012   0.194
    1HEX  C10   3468   4.542   0.069   0.277
    1HEX  O11   3469   4.643   0.131   0.244
    1HEX  C12   3470   4.500   0.046   0.421
    1HEX  C13   3471   4.609   0.088   0.519
    1HEX  C15   3472   4.246  17.382   0.023
    1HEX  O16   3473   4.208  17.359   0.158
    1HEX  C17   3474   4.138  17.251   0.193
    1HEX  O18   3475   4.111  17.155   0.121
    1HEX  C19   3476   4.090  17.259   0.337
    1HEX  C1A   3477   4.007  17.387   0.356
    1HEX  H1D   3478   4.597  17.201  16.700
    1HEX  H1E   3479   4.597  17.376  16.699
    1HEX  H1F   3480   4.595  17.378  16.952
    1HEX  H1G   3481   4.597  17.203  16.952
    1HEX  H1H   3482   4.166  17.333  16.867
    1HEX  H1I   3483   4.181   0.063  16.892
    1HEX  H1J   3484   4.309   0.112  17.127
    1HEX  H1K   3485   4.197   0.077  17.254
    1HEX  H1M   3486   4.037   0.473  17.100
    1HEX  H1N   3487   4.210   0.448  17.119
    1HEX  H1O   3488   4.189   0.487  17.369
    1HEX  H1P   3489   4.018   0.520  17.348
    1HEX  H1R   3490   3.960  17.417  17.019
    1HEX  H1S   3491   3.982  17.391  17.189
    1HEX  H1T   3492   4.120  17.027  16.877
    1HEX  H1U   3493   3.957  16.968  16.871
    1HEX  H1V   3494   4.029  16.812  17.029
    1HEX  H1W   3495   4.018  16.939  17.147
    1HEX  H1Y   3496   4.234  17.186  17.079
    1HEX  H1Z   3497   4.184  17.228  17.233
    1HEX  H20   3498   4.441   0.014  17.244
    1HEX  H21   3499   4.541  17.322  17.275
    1HEX  H22   3500   4.378  17.126  17.429
    1HEX  H23   3501   4.393  17.193   0.148
    1HEX  H24   3502   4.799  17.101   0.029
    1HEX  H25   3503   4.828  17.078   0.200
    1HEX  H26   3504   4.819  17.359   0.078
    1HEX  H27   3505   4.969  17.267   0.089
    1HEX  H29   3506   4.460   0.112   0.017
    1HEX  H2A   3507   4.588  17.434   0.037
    1HEX  H2B   3508   4.476  17.381   0.432
    1HEX  H2C   3509   4.408   0.102   0.436
    1HEX  H2D   3510   4.638   0.191   0.501
    1HEX  H2E   3511   4.698   0.027   0.502
    1HEX  H2G   3512   4.172  17.335  17.400
    1HEX  H2H   3513   4.232   0.049   0.013
    1HEX  H2I   3514   4.177  17.260   0.403
    1HEX  H2J   3515   4.031  17.171   0.361
    1HEX  H2K   3516   3.926  17.390   0.282
    1HEX  H2M   3517   4.068   0.035   0.339
    1STR  S00   3518   4.810  17.290  16.766
    1STR  S0E   3519   4.163   0.697  17.274
    1STR  S0M   3520   4.165  16.760  17.116
    1STR  S0X   3521   4.920  17.357   0.288
    1STR  S14   3522   4.532   0.092   0.683
    1STR  S1B   3523   3.948  17.421   0.524
    1HEX  C01   3524   4.631  17.289   3.676
    1HEX  C02   3525   4.570  17.290   3.816
    1HEX  C03   3526   4.419  17.291   3.807
    1HEX  O04   3527   4.358  17.192   3.768
    1HEX  O05   3528   4.365  17.408   3.844
    1HEX  C06   3529   4.223  17.422   3.850
    1HEX  C07   3530   4.173  17.413   3.996
    1HEX  C08   3531   4.219   0.101   4.068
    1HEX  O09   3532   4.157   0.222   4.028
    1HEX  C0A   3533   4.098   0.298   4.120
    1HEX  O0B   3534   4.043   0.257   4.222
    1HEX  C0C   3535   4.113   0.447   4.092
    1HEX  C0D   3536   4.114   0.529   4.222
    1HEX  C0F   3537   4.017  17.411   4.002
    1HEX  O0G   3538   3.969  17.292   3.940
    1HEX  C0H   3539   3.928  17.294   3.813
    1HEX  O0I   3540   3.904  17.394   3.746
    1HEX  C0J   3541   3.923  17.155   3.752
    1HEX  C0K   3542   3.804  17.076   3.808
    1HEX  C0N   3543   4.220  17.279   4.065
    1HEX  O0O   3544   4.357  17.259   4.104
    1HEX  C0P   3545   4.427  17.343   4.197
    1HEX  C0Q   3546   4.392  17.341   4.349
    1HEX  C0R   3547   4.428  17.203   4.407
    1HEX  O0S   3548   4.569  17.179   4.401
    1HEX  C0T   3549   4.642  17.171   4.514
    1HEX  O0U   3550   4.599  17.181   4.629
    1HEX  C0V   3551   4.789  17.149   4.486
    1HEX  C0W   3552   4.869  17.280   4.492
    1HEX  C0Y   3553   4.480   0.011   4.413
    1HEX  O0Z   3554   4.456   0.012   4.551
    1HEX  C10   3555   4.542   0.068   4.634
    1HEX  O11   3556   4.643   0.130   4.601
    1HEX  C12   3557   4.500   0.046   4.778
    1HEX  C13   3558   4.609   0.088   4.877
    1HEX  C15   3559   4.244  17.379   4.383
    1HEX  O16   3560   4.207  17.358   4.519
    1HEX  C17   3561   4.138  17.249   4.554
    1HEX  O18   3562   4.110  17.153   4.483
    1HEX  C19   3563   4.089  17.259   4.698
    1HEX  C1A   3564   4.007  17.387   4.716
    1HEX  H1D   3565   4.597  17.201   3.621
    1HEX  H1E   3566   4.598  17.376   3.619
    1HEX  H1F   3567   4.603  17.377   3.873
    1HEX  H1G   3568   4.600  17.202   3.872
    1HEX  H1H   3569   4.176  17.348   3.786
    1HEX  H1I   3570   4.196   0.078   3.807
    1HEX  H1J   3571   4.324   0.120   4.045
    1HEX  H1K   3572   4.211   0.088   4.174
    1HEX  H1M   3573   4.036   0.480   4.024
    1HEX  H1N   3574   4.209   0.461   4.041
    1HEX  H1O   3575   4.188   0.490   4.292
    1HEX  H1P   3576   4.017   0.522   4.272
    1HEX  H1R   3577   3.974   0.060   3.957
    1HEX  H1S   3578   3.983  17.411   4.105
    1HEX  H1T   3579   4.017  17.104   3.774
    1HEX  H1U   3580   3.916  17.164   3.644
    1HEX  H1V   3581   3.711  17.129   3.789
    1HEX  H1W   3582   3.813  17.065   3.916
    1HEX  H1Y   3583   4.204  17.200   3.991
    1HEX  H1Z   3584   4.153  17.246   4.142
    1HEX  H20   3585   4.440   0.003   4.159
    1HEX  H21   3586   4.529  17.305   4.189
    1HEX  H22   3587   4.376  17.124   4.352
    1HEX  H23   3588   4.393  17.194   4.510
    1HEX  H24   3589   4.799  17.102   4.388
    1HEX  H25   3590   4.828  17.078   4.560
    1HEX  H26   3591   4.819  17.359   4.437
    1HEX  H27   3592   4.969  17.267   4.450
    1HEX  H29   3593   4.459   0.110   4.372
    1HEX  H2A   3594   4.586  17.433   4.393
    1HEX  H2B   3595   4.476  17.381   4.790
    1HEX  H2C   3596   4.408   0.102   4.794
    1HEX  H2D   3597   4.638   0.191   4.859
    1HEX  H2E   3598   4.698   0.027   4.861
    1HEX  H2G   3599   4.170  17.331   4.321
    1HEX  H2H   3600   4.229   0.046   4.372
    1HEX  H2I   3601   4.176  17.259   4.764
    1HEX  H2J   3602   4.030  17.171   4.722
    1HEX  H2K   3603   3.926  17.391   4.642
    1HEX  H2M   3604   4.069   0.035   4.700
    1STR  S00   3605   4.812  17.292   3.685
    1STR  S0E   3606   4.163   0.701   4.196
    1STR  S0M   3607   3.810  16.910   3.735
    1STR  S0X   3608   4.919  17.357   4.648
    1STR  S14   3609   4.532   0.092   5.041
    1STR  S1B   3610   3.948  17.420   4.884
    1HEX  C01   3611   4.631  17.289   8.036
    1HEX  C02   3612   4.570  17.290   8.176
    1HEX  C03   3613   4.419  17.291   8.167
    1HEX  O04   3614   4.357  17.192   8.128
    1HEX  O05   3615   4.365  17.408   8.204
    1HEX  C06   3616   4.223  17.422   8.210
    1HEX  C07   3617   4.173  17.413   8.356
    1HEX  C08   3618   4.219   0.101   8.428
    1HEX  O09   3619   4.157   0.222   8.387
    1HEX  C0A   3620   4.098   0.298   8.480
    1HEX  O0B   3621   4.043   0.257   8.582
    1HEX  C0C   3622   4.113   0.447   8.452
    1HEX  C0D   3623   4.114   0.529   8.582
    1HEX  C0F   3624   4.017  17.411   8.362
    1HEX  O0G   3625   3.969  17.292   8.300
    1HEX  C0H   3626   3.928  17.294   8.173
    1HEX  O0I   3627   3.904  17.394   8.106
    1HEX  C0J   3628   3.923  17.155   8.112
    1HEX  C0K   3629   3.804  17.076   8.168
    1HEX  C0N   3630   4.220  17.279   8.425
    1HEX  O0O   3631   4.357  17.259   8.464
    1HEX  C0P   3632   4.427  17.343   8.557
    1HEX  C0Q   3633   4.392  17.341   8.709
    1HEX  C0R   3634   4.428  17.203   8.767
    1HEX  O0S   3635   4.569  17.179   8.761
    1HEX  C0T   3636   4.642  17.171   8.874
    1HEX  O0U   3637   4.599  17.181   8.989
    1HEX  C0V   3638   4.789  17.149   8.846
    1HEX  C0W   3639   4.869  17.280   8.852
    1HEX  C0Y   3640   4.480   0.011   8.773
    1HEX  O0Z   3641   4.456   0.012   8.911
    1HEX  C10   3642   4.542   0.068   8.994
    1HEX  O11   3643   4.643   0.130   8.961
    1HEX  C12   3644   4.500   0.046   9.138
    1HEX  C13   3645   4.609   0.088   9.237
    1HEX  C15   3646   4.244  17.379   8.743
    1HEX  O16   3647   4.207  17.358   8.879
    1HEX  C17   3648   4.138  17.249   8.914
    1HEX  O18   3649   4.110  17.153   8.843
    1HEX  C19   3650   4.089  17.259   9.058
    1HEX  C1A   3651   4.007  17.387   9.076
    1HEX  H1D   3652   4.597  17.201   7.981
    1HEX  H1E   3653   4.598  17.376   7.979
    1HEX  H1F   3654   4.603  17.377   8.233
    1HEX  H1G   3655   4.600  17.202   8.232
    1HEX  H1H   3656   4.176  17.348   8.146
    1HEX  H1I   3657   4.196   0.078   8.167
    1HEX  H1J   3658   4.324   0.120   8.405
    1HEX  H1K   3659   4.211   0.088   8.534
    1HEX  H1M   3660   4.036   0.480   8.384
    1HEX  H1N   3661   4.209   0.461   8.401
    1HEX  H1O   3662   4.188   0.490   8.652
    1HEX  H1P   3663   4.017   0.522   8.632
    1HEX  H1R   3664   3.974   0.060   8.317
    1HEX  H1S   3665   3.983  17.411   8.465
    1HEX  H1T   3666   4.017  17.104   8.134
    1HEX  H1U   3667   3.916  17.164   8.004
    1HEX  H1V   3668   3.711  17.129   8.149
    1HEX  H1W   3669   3.813  17.065   8.276
    1HEX  H1Y   3670   4.204  17.201   8.351
    1HEX  H1Z   3671   4.153  17.246   8.502
    1HEX  H20   3672   4.440   0.003   8.519
    1HEX  H21   3673   4.529  17.305   8.549
    1HEX  H22   3674   4.376  17.124   8.712
    1HEX  H23   3675   4.393  17.194   8.870
    1HEX  H24   3676   4.799  17.102   8.748
    1HEX  H25   3677   4.828  17.078   8.920
    1HEX  H26   3678   4.819  17.359   8.797
    1HEX  H27   3679   4.969  17.267   8.810
    1HEX  H29   3680   4.459   0.110   8.732
    1HEX  H2A   3681   4.586  17.433   8.753
    1HEX  H2B   3682   4.476  17.381   9.150
    1HEX  H2C   3683   4.408   0.102   9.154
    1HEX  H2D   3684   4.638   0.191   9.219
    1HEX  H2E   3685   4.698   0.027   9.221
    1HEX  H2G   3686   4.170  17.331   8.681
    1HEX  H2H   3687   4.229   0.046   8.732
    1HEX  H2I   3688   4.176  17.259   9.124
    1HEX  H2J   3689   4.030  17.171   9.082
    1HEX  H2K   3690   3.926  17.391   9.002
    1HEX  H2M   3691   4.069   0.035   9.060
    1STR  S00   3692   4.812  17.292   8.045
    1STR  S0E   3693   4.163   0.701   8.556
    1STR  S0M   3694   3.810  16.910   8.095
    1STR  S0X   3695   4.919  17.357   9.008
    1STR  S14   3696   4.531   0.092   9.401
    1STR  S1B   3697   3.948  17.420   9.244
    1HEX  C01   3698   4.631  17.289  12.396
    1HEX  C02   3699   4.570  17.290  12.536
    1HEX  C03   3700   4.419  17.291  12.527
    1HEX  O04   3701   4.357  17.192  12.488
    1HEX  O05   3702   4.365  17.408  12.564
    1HEX  C06   3703   4.223  17.422  12.570
    1HEX  C07   3704   4.173  17.413  12.716
    1HEX  C08   3705   4.219   0.101  12.788
    1HEX  O09   3706   4.157   0.222  12.748
    1HEX  C0A   3707   4.098   0.298  12.840
    1HEX  O0B   3708   4.043   0.257  12.942
    1HEX  C0C   3709   4.113   0.447  12.812
    1HEX  C0D   3710   4.114   0.529  12.942
    1HEX  C0F   3711   4.017  17.411  12.722
    1HEX  O0G   3712   3.969  17.292  12.660
    1HEX  C0H   3713   3.928  17.294  12.533
    1HEX  O0I   3714   3.904  17.394  12.466
    1HEX  C0J   3715   3.923  17.155  12.472
    1HEX  C0K   3716   3.804  17.076  12.528
    1HEX  C0N   3717   4.220  17.279  12.785
    1HEX  O0O   3718   4.357  17.259  12.824
    1HEX  C0P   3719   4.427  17.343  12.917
    1HEX  C0Q   3720   4.392  17.341  13.069
    1HEX  C0R   3721   4.428  17.203  13.127
    1HEX  O0S   3722   4.569  17.179  13.121
    1HEX  C0T   3723   4.642  17.171  13.234
    1HEX  O0U   3724   4.599  17.181  13.349
    1HEX  C0V   3725   4.789  17.149  13.206
    1HEX  C0W   3726   4.869  17.280  13.212
    1HEX  C0Y   3727   4.480   0.011  13.133
    1HEX  O0Z   3728   4.456   0.012  13.271
    1HEX  C10   3729   4.542   0.068  13.354
    1HEX  O11   3730   4.643   0.130  13.321
    1HEX  C12   3731   4.500   0.046  13.498
    1HEX  C13   3732   4.609   0.088  13.597
    1HEX  C15   3733   4.244  17.379  13.103
    1HEX  O16   3734   4.207  17.358  13.239
    1HEX  C17   3735   4.138  17.249  13.274
    1HEX  O18   3736   4.110  17.153  13.203
    1HEX  C19   3737   4.089  17.259  13.418
    1HEX  C1A   3738   4.007  17.387  13.436
    1HEX  H1D   3739   4.597  17.201  12.341
    1HEX  H1E   3740   4.598  17.376  12.339
    1HEX  H1F   3741   4.603  17.377  12.593
    1HEX  H1G   3742   4.600  17.202  12.592
    1HEX  H1H   3743   4.176  17.348  12.506
    1HEX  H1I   3744   4.196   0.078  12.527
    1HEX  H1J   3745   4.324   0.120  12.765
    1HEX  H1K   3746   4.211   0.088  12.894
    1HEX  H1M   3747   4.036   0.480  12.744
    1HEX  H1N   3748   4.209   0.461  12.761
    1HEX  H1O   3749   4.188   0.490  13.012
    1HEX  H1P   3750   4.017   0.522  12.992
    1HEX  H1R   3751   3.974   0.060  12.677
    1HEX  H1S   3752   3.983  17.411  12.825
    1HEX  H1T   3753   4.017  17.104  12.494
    1HEX  H1U   3754   3.916  17.164  12.364
    1HEX  H1V   3755   3.711  17.129  12.509
    1HEX  H1W   3756   3.813  17.065  12.636
    1HEX  H1Y   3757   4.204  17.201  12.711
    1HEX  H1Z   3758   4.153  17.246  12.862
    1HEX  H20   3759   4.440   0.003  12.879
    1HEX  H21   3760   4.529  17.305  12.909
    1HEX  H22   3761   4.376  17.124  13.072
    1HEX  H23   3762   4.393  17.194  13.230
    1HEX  H24   3763   4.799  17.102  13.108
    1HEX  H25   3764   4.828  17.078  13.280
    1HEX  H26   3765   4.819  17.359  13.157
    1HEX  H27   3766   4.968  17.267  13.170
    1HEX  H29   3767   4.459   0.110  13.092
    1HEX  H2A   3768   4.586  17.433  13.113
    1HEX  H2B   3769   4.476  17.381  13.510
    1HEX  H2C   3770   4.408   0.102  13.514
    1HEX  H2D   3771   4.638   0.191  13.579
    1HEX  H2E   3772   4.698   0.027  13.581
    1HEX  H2G   3773   4.170  17.331  13.041
    1HEX  H2H   3774   4.229   0.046  13.092
    1HEX  H2I   3775   4.176  17.259  13.484
    1HEX  H2J   3776   4.030  17.171  13.442
    1HEX  H2K   3777   3.926  17.391  13.362
    1HEX  H2M   3778   4.069   0.035  13.420
    1STR  S00   3779   4.812  17.292  12.405
    1STR  S0E   3780   4.164   0.701  12.916
    1STR  S0M   3781   3.810  16.910  12.455
    1STR  S0X   3782   4.919  17.357  13.369
    1STR  S14   3783   4.532   0.092  13.761
    1STR  S1B   3784   3.948  17.420  13.604
    1HEX  C01   3785   4.605   4.213  16.733
    1HEX  C02   3786   4.566   4.211  16.881
    1HEX  C03   3787   4.415   4.205  16.893
    1HEX  O04   3788   4.353   4.101  16.867
    1HEX  O05   3789   4.362   4.323  16.928
    1HEX  C06   3790   4.221   4.338  16.934
    1HEX  C07   3791   4.171   4.333  17.080
    1HEX  C08   3792   4.219   4.461  17.149
    1HEX  O09   3793   4.156   4.582  17.108
    1HEX  C0A   3794   4.098   4.659  17.201
    1HEX  O0B   3795   4.043   4.617  17.304
    1HEX  C0C   3796   4.113   4.807  17.172
    1HEX  C0D   3797   4.114   4.890  17.302
    1HEX  C0F   3798   4.016   4.332  17.085
    1HEX  O0G   3799   3.966   4.212  17.026
    1HEX  C0H   3800   3.919   4.213  16.901
    1HEX  O0I   3801   3.890   4.313  16.835
    1HEX  C0J   3802   3.908   4.074  16.842
    1HEX  C0K   3803   3.798   3.992  16.909
    1HEX  C0N   3804   4.217   4.199  17.149
    1HEX  O0O   3805   4.354   4.178  17.188
    1HEX  C0P   3806   4.425   4.263  17.278
    1HEX  C0Q   3807   4.391   4.262  17.430
    1HEX  C0R   3808   4.428   4.123   0.048
    1HEX  O0S   3809   4.569   4.100   0.042
    1HEX  C0T   3810   4.642   4.092   0.155
    1HEX  O0U   3811   4.599   4.101   0.270
    1HEX  C0V   3812   4.789   4.069   0.127
    1HEX  C0W   3813   4.869   4.200   0.133
    1HEX  C0Y   3814   4.481   4.372   0.053
    1HEX  O0Z   3815   4.456   4.373   0.192
    1HEX  C10   3816   4.542   4.429   0.274
    1HEX  O11   3817   4.644   4.490   0.242
    1HEX  C12   3818   4.500   4.407   0.418
    1HEX  C13   3819   4.609   4.448   0.517
    1HEX  C15   3820   4.244   4.300   0.025
    1HEX  O16   3821   4.207   4.278   0.160
    1HEX  C17   3822   4.138   4.170   0.196
    1HEX  O18   3823   4.110   4.074   0.123
    1HEX  C19   3824   4.089   4.179   0.339
    1HEX  C1A   3825   4.006   4.307   0.356
    1HEX  H1D   3826   4.553   4.134  16.678
    1HEX  H1E   3827   4.574   4.308  16.687
    1HEX  H1F   3828   4.602   4.299  16.933
    1HEX  H1G   3829   4.607   4.124  16.932
    1HEX  H1H   3830   4.173   4.262  16.872
    1HEX  H1I   3831   4.195   4.433  16.887
    1HEX  H1J   3832   4.323   4.480  17.124
    1HEX  H1K   3833   4.213   4.450  17.256
    1HEX  H1M   3834   4.035   4.840  17.104
    1HEX  H1N   3835   4.209   4.821  17.121
    1HEX  H1O   3836   4.188   4.851  17.372
    1HEX  H1P   3837   4.017   4.882  17.352
    1HEX  H1R   3838   3.973   4.421  17.038
    1HEX  H1S   3839   3.981   4.335  17.189
    1HEX  H1T   3840   4.006   4.025  16.852
    1HEX  H1U   3841   3.888   4.084  16.736
    1HEX  H1V   3842   3.701   4.040  16.894
    1HEX  H1W   3843   3.815   3.986  17.017
    1HEX  H1Y   3844   4.200   4.120  17.075
    1HEX  H1Z   3845   4.149   4.166  17.226
    1HEX  H20   3846   4.438   4.363  17.239
    1HEX  H21   3847   4.527   4.225  17.269
    1HEX  H22   3848   4.376   4.045  17.433
    1HEX  H23   3849   4.393   4.114   0.151
    1HEX  H24   3850   4.798   4.022   0.029
    1HEX  H25   3851   4.828   3.999   0.200
    1HEX  H26   3852   4.818   4.280   0.078
    1HEX  H27   3853   4.968   4.188   0.090
    1HEX  H29   3854   4.459   4.471   0.012
    1HEX  H2A   3855   4.586   4.353   0.033
    1HEX  H2B   3856   4.476   4.302   0.430
    1HEX  H2C   3857   4.408   4.464   0.434
    1HEX  H2D   3858   4.638   4.552   0.500
    1HEX  H2E   3859   4.698   4.387   0.501
    1HEX  H2G   3860   4.170   4.253  17.403
    1HEX  H2H   3861   4.229   4.407   0.014
    1HEX  H2I   3862   4.176   4.180   0.405
    1HEX  H2J   3863   4.030   4.091   0.363
    1HEX  H2K   3864   3.927   4.311   0.282
    1HEX  H2M   3865   4.069   4.396   0.340
    1STR  S00   3866   4.529   4.299  16.591
    1STR  S0E   3867   4.163   5.062  17.277
    1STR  S0M   3868   3.801   3.835  16.818
    1STR  S0X   3869   4.920   4.277   0.289
    1STR  S14   3870   4.532   4.451   0.682
    1STR  S1B   3871   3.948   4.340   0.524
    1HEX  C01   3872   4.628   4.210   3.678
    1HEX  C02   3873   4.568   4.213   3.819
    1HEX  C03   3874   4.417   4.220   3.813
    1HEX  O04   3875   4.351   4.124   3.770
    1HEX  O05   3876   4.367   4.338   3.855
    1HEX  C06   3877   4.226   4.359   3.859
    1HEX  C07   3878   4.171   4.350   4.004
    1HEX  C08   3879   4.211   4.478   4.084
    1HEX  O09   3880   4.158   4.607   4.048
    1HEX  C0A   3881   4.139   4.702   4.147
    1HEX  O0B   3882   4.109   4.675   4.263
    1HEX  C0C   3883   4.159   4.848   4.102
    1HEX  C0D   3884   4.189   4.954   4.214
    1HEX  C0F   3885   4.015   4.343   4.002
    1HEX  O0G   3886   3.972   4.222   3.941
    1HEX  C0H   3887   3.930   4.220   3.814
    1HEX  O0I   3888   3.904   4.319   3.746
    1HEX  C0J   3889   3.926   4.080   3.756
    1HEX  C0K   3890   3.807   4.001   3.811
    1HEX  C0N   3891   4.216   4.213   4.070
    1HEX  O0O   3892   4.351   4.187   4.111
    1HEX  C0P   3893   4.426   4.268   4.202
    1HEX  C0Q   3894   4.396   4.267   4.356
    1HEX  C0R   3895   4.446   4.133   4.417
    1HEX  O0S   3896   4.589   4.117   4.401
    1HEX  C0T   3897   4.674   4.121   4.507
    1HEX  O0U   3898   4.641   4.139   4.624
    1HEX  C0V   3899   4.820   4.090   4.470
    1HEX  C0W   3900   4.918   4.211   4.465
    1HEX  C0Y   3901   4.479   4.383   4.415
    1HEX  O0Z   3902   4.452   4.390   4.553
    1HEX  C10   3903   4.545   4.429   4.638
    1HEX  O11   3904   4.656   4.473   4.609
    1HEX  C12   3905   4.498   4.409   4.780
    1HEX  C13   3906   4.605   4.451   4.881
    1HEX  C15   3907   4.246   4.298   4.391
    1HEX  O16   3908   4.198   4.268   4.522
    1HEX  C17   3909   4.101   4.175   4.536
    1HEX  O18   3910   4.083   4.080   4.461
    1HEX  C19   3911   4.009   4.200   4.656
    1HEX  C1A   3912   3.871   4.259   4.616
    1HEX  H1D   3913   4.593   4.121   3.624
    1HEX  H1E   3914   4.596   4.297   3.621
    1HEX  H1F   3915   4.605   4.299   3.875
    1HEX  H1G   3916   4.596   4.124   3.875
    1HEX  H1H   3917   4.177   4.287   3.794
    1HEX  H1I   3918   4.203   4.456   3.816
    1HEX  H1J   3919   4.318   4.495   4.071
    1HEX  H1K   3920   4.192   4.460   4.189
    1HEX  H1M   3921   4.073   4.879   4.042
    1HEX  H1N   3922   4.245   4.846   4.035
    1HEX  H1O   3923   4.261   4.916   4.287
    1HEX  H1P   3924   4.098   4.976   4.271
    1HEX  H1R   3925   3.972   4.432   3.955
    1HEX  H1S   3926   3.977   4.344   4.105
    1HEX  H1T   3927   4.020   4.030   3.779
    1HEX  H1U   3928   3.920   4.088   3.647
    1HEX  H1V   3929   3.713   4.053   3.790
    1HEX  H1W   3930   3.815   3.990   3.919
    1HEX  H1Y   3931   4.202   4.137   3.993
    1HEX  H1Z   3932   4.145   4.176   4.143
    1HEX  H20   3933   4.439   4.368   4.164
    1HEX  H21   3934   4.527   4.229   4.191
    1HEX  H22   3935   4.395   4.050   4.367
    1HEX  H23   3936   4.417   4.127   4.522
    1HEX  H24   3937   4.820   4.038   4.375
    1HEX  H25   3938   4.856   4.019   4.544
    1HEX  H26   3939   4.873   4.298   4.417
    1HEX  H27   3940   5.010   4.187   4.413
    1HEX  H29   3941   4.454   4.479   4.370
    1HEX  H2A   3942   4.586   4.368   4.395
    1HEX  H2B   3943   4.474   4.303   4.792
    1HEX  H2C   3944   4.406   4.465   4.793
    1HEX  H2D   3945   4.636   4.554   4.861
    1HEX  H2E   3946   4.694   4.389   4.868
    1HEX  H2G   3947   4.178   4.254   4.321
    1HEX  H2H   3948   4.229   4.405   4.383
    1HEX  H2I   3949   4.061   4.263   4.728
    1HEX  H2J   3950   3.994   4.104   4.705
    1HEX  H2K   3951   3.857   4.264   4.508
    1HEX  H2M   3952   3.859   4.361   4.654
    1STR  S00   3953   4.809   4.209   3.682
    1STR  S0E   3954   4.272   5.110   4.273
    1STR  S0M   3955   3.808   3.834   3.740
    1STR  S0X   3956   5.092   4.253   4.421
    1STR  S14   3957   4.529   4.450   5.046
    1STR  S1B   3958   3.705   4.266   4.538
    1HEX  C01   3959   4.631   4.208   8.036
    1HEX  C02   3960   4.570   4.210   8.177
    1HEX  C03   3961   4.419   4.210   8.168
    1HEX  O04   3962   4.357   4.111   8.128
    1HEX  O05   3963   4.364   4.327   8.206
    1HEX  C06   3964   4.223   4.341   8.211
    1HEX  C07   3965   4.172   4.333   8.357
    1HEX  C08   3966   4.219   4.461   8.428
    1HEX  O09   3967   4.157   4.582   8.388
    1HEX  C0A   3968   4.099   4.659   8.481
    1HEX  O0B   3969   4.045   4.618   8.584
    1HEX  C0C   3970   4.114   4.807   8.452
    1HEX  C0D   3971   4.114   4.890   8.582
    1HEX  C0F   3972   4.016   4.331   8.362
    1HEX  O0G   3973   3.968   4.212   8.300
    1HEX  C0H   3974   3.928   4.214   8.172
    1HEX  O0I   3975   3.906   4.315   8.105
    1HEX  C0J   3976   3.922   4.075   8.113
    1HEX  C0K   3977   3.803   3.997   8.169
    1HEX  C0N   3978   4.218   4.199   8.426
    1HEX  O0O   3979   4.354   4.179   8.469
    1HEX  C0P   3980   4.420   4.263   8.564
    1HEX  C0Q   3981   4.381   4.263   8.716
    1HEX  C0R   3982   4.416   4.125   8.776
    1HEX  O0S   3983   4.557   4.099   8.767
    1HEX  C0T   3984   4.634   4.093   8.878
    1HEX  O0U   3985   4.595   4.104   8.994
    1HEX  C0V   3986   4.781   4.070   8.846
    1HEX  C0W   3987   4.863   4.200   8.853
    1HEX  C0Y   3988   4.471   4.372   8.778
    1HEX  O0Z   3989   4.447   4.376   8.916
    1HEX  C10   3990   4.537   4.428   8.997
    1HEX  O11   3991   4.639   4.487   8.963
    1HEX  C12   3992   4.498   4.407   9.142
    1HEX  C13   3993   4.609   4.448   9.239
    1HEX  C15   3994   4.233   4.305   8.745
    1HEX  O16   3995   4.175   4.282   8.873
    1HEX  C17   3996   4.073   4.194   8.884
    1HEX  O18   3997   4.062   4.092   8.817
    1HEX  C19   3998   3.968   4.233   8.988
    1HEX  C1A   3999   3.838   4.297   8.929
    1HEX  H1D   4000   4.597   4.120   7.982
    1HEX  H1E   4001   4.597   4.295   7.980
    1HEX  H1F   4002   4.603   4.297   8.233
    1HEX  H1G   4003   4.600   4.122   8.233
    1HEX  H1H   4004   4.176   4.267   8.147
    1HEX  H1I   4005   4.195   4.437   8.168
    1HEX  H1J   4006   4.324   4.479   8.405
    1HEX  H1K   4007   4.211   4.449   8.535
    1HEX  H1M   4008   4.035   4.840   8.384
    1HEX  H1N   4009   4.209   4.821   8.401
    1HEX  H1O   4010   4.188   4.851   8.652
    1HEX  H1P   4011   4.017   4.881   8.632
    1HEX  H1R   4012   3.973   4.421   8.317
    1HEX  H1S   4013   3.981   4.332   8.466
    1HEX  H1T   4014   4.016   4.025   8.134
    1HEX  H1U   4015   3.915   4.084   8.004
    1HEX  H1V   4016   3.710   4.050   8.150
    1HEX  H1W   4017   3.813   3.986   8.277
    1HEX  H1Y   4018   4.204   4.120   8.351
    1HEX  H1Z   4019   4.149   4.164   8.502
    1HEX  H20   4020   4.435   4.363   8.526
    1HEX  H21   4021   4.523   4.225   8.559
    1HEX  H22   4022   4.363   4.046   8.723
    1HEX  H23   4023   4.381   4.120   8.880
    1HEX  H24   4024   4.789   4.024   8.748
    1HEX  H25   4025   4.821   3.998   8.918
    1HEX  H26   4026   4.815   4.280   8.797
    1HEX  H27   4027   4.963   4.186   8.811
    1HEX  H29   4028   4.452   4.471   8.736
    1HEX  H2A   4029   4.577   4.352   8.758
    1HEX  H2B   4030   4.474   4.301   9.154
    1HEX  H2C   4031   4.406   4.463   9.159
    1HEX  H2D   4032   4.638   4.551   9.220
    1HEX  H2E   4033   4.697   4.387   9.221
    1HEX  H2G   4034   4.164   4.265   8.672
    1HEX  H2H   4035   4.224   4.413   8.736
    1HEX  H2I   4036   4.015   4.297   9.064
    1HEX  H2J   4037   3.941   4.141   9.041
    1HEX  H2K   4038   3.843   4.305   8.820
    1HEX  H2M   4039   3.825   4.399   8.966
    1STR  S00   4040   4.812   4.211   8.045
    1STR  S0E   4041   4.162   5.062   8.556
    1STR  S0M   4042   3.810   3.832   8.095
    1STR  S0X   4043   4.919   4.277   9.007
    1STR  S14   4044   4.532   4.453   9.403
    1STR  S1B   4045   3.680   4.351   8.845
    1HEX  C01   4046   4.629   4.209  12.397
    1HEX  C02   4047   4.569   4.212  12.538
    1HEX  C03   4048   4.418   4.217  12.531
    1HEX  O04   4049   4.354   4.120  12.490
    1HEX  O05   4050   4.367   4.335  12.571
    1HEX  C06   4051   4.226   4.353  12.577
    1HEX  C07   4052   4.174   4.345  12.723
    1HEX  C08   4053   4.215   4.474  12.799
    1HEX  O09   4054   4.157   4.600  12.763
    1HEX  C0A   4055   4.126   4.688  12.862
    1HEX  O0B   4056   4.087   4.657  12.975
    1HEX  C0C   4057   4.145   4.835  12.823
    1HEX  C0D   4058   4.171   4.934  12.940
    1HEX  C0F   4059   4.018   4.338  12.724
    1HEX  O0G   4060   3.975   4.217  12.662
    1HEX  C0H   4061   3.931   4.217  12.535
    1HEX  O0I   4062   3.904   4.317  12.469
    1HEX  C0J   4063   3.925   4.078  12.475
    1HEX  C0K   4064   3.806   3.999  12.530
    1HEX  C0N   4065   4.224   4.213  12.792
    1HEX  O0O   4066   4.361   4.196  12.833
    1HEX  C0P   4067   4.431   4.277  12.930
    1HEX  C0Q   4068   4.396   4.269  13.082
    1HEX  C0R   4069   4.429   4.126  13.132
    1HEX  O0S   4070   4.569   4.100  13.124
    1HEX  C0T   4071   4.643   4.090  13.236
    1HEX  O0U   4072   4.601   4.097  13.352
    1HEX  C0V   4073   4.790   4.067  13.207
    1HEX  C0W   4074   4.870   4.198  13.212
    1HEX  C0Y   4075   4.484   4.372  13.160
    1HEX  O0Z   4076   4.447   4.364  13.297
    1HEX  C10   4077   4.519   4.415  13.398
    1HEX  O11   4078   4.623   4.479  13.387
    1HEX  C12   4079   4.450   4.385  13.531
    1HEX  C13   4080   4.524   4.420  13.662
    1HEX  C15   4081   4.248   4.306  13.112
    1HEX  O16   4082   4.205   4.282  13.245
    1HEX  C17   4083   4.138   4.172  13.278
    1HEX  O18   4084   4.113   4.077  13.204
    1HEX  C19   4085   4.088   4.179  13.421
    1HEX  C1A   4086   4.005   4.307  13.439
    1HEX  H1D   4087   4.595   4.120  12.343
    1HEX  H1E   4088   4.597   4.296  12.340
    1HEX  H1F   4089   4.605   4.298  12.594
    1HEX  H1G   4090   4.598   4.123  12.594
    1HEX  H1H   4091   4.177   4.281  12.513
    1HEX  H1I   4092   4.201   4.450  12.533
    1HEX  H1J   4093   4.321   4.491  12.782
    1HEX  H1K   4094   4.201   4.456  12.904
    1HEX  H1M   4095   4.061   4.868  12.762
    1HEX  H1N   4096   4.232   4.837  12.758
    1HEX  H1O   4097   4.239   4.892  13.015
    1HEX  H1P   4098   4.079   4.958  12.994
    1HEX  H1R   4099   3.974   4.426  12.678
    1HEX  H1S   4100   3.981   4.338  12.826
    1HEX  H1T   4101   4.019   4.027  12.497
    1HEX  H1U   4102   3.919   4.087  12.367
    1HEX  H1V   4103   3.713   4.051  12.509
    1HEX  H1W   4104   3.814   3.987  12.638
    1HEX  H1Y   4105   4.211   4.134  12.718
    1HEX  H1Z   4106   4.155   4.176  12.868
    1HEX  H20   4107   4.441   4.380  12.897
    1HEX  H21   4108   4.533   4.241  12.920
    1HEX  H22   4109   4.376   4.051  13.072
    1HEX  H23   4110   4.393   4.111  13.233
    1HEX  H24   4111   4.799   4.020  13.109
    1HEX  H25   4112   4.830   3.997  13.280
    1HEX  H26   4113   4.820   4.277  13.156
    1HEX  H27   4114   4.970   4.186  13.169
    1HEX  H29   4115   4.466   4.474  13.125
    1HEX  H2A   4116   4.590   4.353  13.148
    1HEX  H2B   4117   4.428   4.278  13.530
    1HEX  H2C   4118   4.354   4.437  13.528
    1HEX  H2D   4119   4.556   4.524  13.660
    1HEX  H2E   4120   4.614   4.360  13.671
    1HEX  H2G   4121   4.177   4.258  13.047
    1HEX  H2H   4122   4.234   4.413  13.101
    1HEX  H2I   4123   4.174   4.178  13.487
    1HEX  H2J   4124   4.029   4.090  13.443
    1HEX  H2K   4125   3.926   4.312  13.365
    1HEX  H2M   4126   4.067   4.395  13.425
    1STR  S00   4127   4.810   4.212  12.405
    1STR  S0E   4128   4.266   5.073  13.016
    1STR  S0M   4129   3.810   3.833  12.456
    1STR  S0X   4130   4.925   4.278  13.364
    1STR  S14   4131   4.443   4.395  13.826
    1STR  S1B   4132   3.948   4.339  13.608
    1HEX  C01   4133   4.631   8.569  16.756
    1HEX  C02   4134   4.570   8.570  16.896
    1HEX  C03   4135   4.419   8.571  16.887
    1HEX  O04   4136   4.357   8.472  16.848
    1HEX  O05   4137   4.365   8.688  16.924
    1HEX  C06   4138   4.223   8.702  16.930
    1HEX  C07   4139   4.173   8.693  17.076
    1HEX  C08   4140   4.219   8.822  17.148
    1HEX  O09   4141   4.157   8.943  17.108
    1HEX  C0A   4142   4.098   9.019  17.200
    1HEX  O0B   4143   4.043   8.977  17.303
    1HEX  C0C   4144   4.113   9.167  17.172
    1HEX  C0D   4145   4.114   9.249  17.302
    1HEX  C0F   4146   4.017   8.691  17.082
    1HEX  O0G   4147   3.969   8.572  17.020
    1HEX  C0H   4148   3.928   8.574  16.893
    1HEX  O0I   4149   3.904   8.674  16.826
    1HEX  C0J   4150   3.923   8.435  16.832
    1HEX  C0K   4151   3.804   8.356  16.888
    1HEX  C0N   4152   4.220   8.560  17.145
    1HEX  O0O   4153   4.357   8.540  17.184
    1HEX  C0P   4154   4.427   8.623  17.277
    1HEX  C0Q   4155   4.392   8.622  17.429
    1HEX  C0R   4156   4.428   8.483   0.047
    1HEX  O0S   4157   4.569   8.459   0.041
    1HEX  C0T   4158   4.642   8.452   0.154
    1HEX  O0U   4159   4.599   8.461   0.269
    1HEX  C0V   4160   4.789   8.429   0.126
    1HEX  C0W   4161   4.869   8.560   0.132
    1HEX  C0Y   4162   4.480   8.731   0.053
    1HEX  O0Z   4163   4.456   8.733   0.191
    1HEX  C10   4164   4.542   8.789   0.274
    1HEX  O11   4165   4.643   8.851   0.242
    1HEX  C12   4166   4.500   8.767   0.418
    1HEX  C13   4167   4.609   8.808   0.517
    1HEX  C15   4168   4.244   8.660   0.023
    1HEX  O16   4169   4.207   8.638   0.159
    1HEX  C17   4170   4.138   8.530   0.194
    1HEX  O18   4171   4.110   8.434   0.122
    1HEX  C19   4172   4.089   8.540   0.338
    1HEX  C1A   4173   4.007   8.667   0.356
    1HEX  H1D   4174   4.597   8.481  16.701
    1HEX  H1E   4175   4.598   8.656  16.699
    1HEX  H1F   4176   4.603   8.657  16.953
    1HEX  H1G   4177   4.600   8.482  16.953
    1HEX  H1H   4178   4.176   8.629  16.866
    1HEX  H1I   4179   4.196   8.799  16.887
    1HEX  H1J   4180   4.324   8.841  17.125
    1HEX  H1K   4181   4.211   8.809  17.254
    1HEX  H1M   4182   4.036   9.201  17.104
    1HEX  H1N   4183   4.209   9.181  17.121
    1HEX  H1O   4184   4.188   9.211  17.372
    1HEX  H1P   4185   4.017   9.242  17.352
    1HEX  H1R   4186   3.974   8.781  17.037
    1HEX  H1S   4187   3.983   8.692  17.185
    1HEX  H1T   4188   4.017   8.385  16.854
    1HEX  H1U   4189   3.916   8.445  16.724
    1HEX  H1V   4190   3.711   8.410  16.869
    1HEX  H1W   4191   3.813   8.345  16.996
    1HEX  H1Y   4192   4.204   8.481  17.071
    1HEX  H1Z   4193   4.153   8.526  17.222
    1HEX  H20   4194   4.440   8.724  17.239
    1HEX  H21   4195   4.529   8.585  17.269
    1HEX  H22   4196   4.376   8.404  17.432
    1HEX  H23   4197   4.393   8.474   0.150
    1HEX  H24   4198   4.799   8.382   0.028
    1HEX  H25   4199   4.828   8.358   0.200
    1HEX  H26   4200   4.819   8.639   0.077
    1HEX  H27   4201   4.969   8.547   0.090
    1HEX  H29   4202   4.459   8.830   0.012
    1HEX  H2A   4203   4.586   8.713   0.033
    1HEX  H2B   4204   4.476   8.661   0.430
    1HEX  H2C   4205   4.408   8.823   0.434
    1HEX  H2D   4206   4.638   8.911   0.500
    1HEX  H2E   4207   4.698   8.747   0.500
    1HEX  H2G   4208   4.170   8.612  17.401
    1HEX  H2H   4209   4.229   8.767   0.012
    1HEX  H2I   4210   4.176   8.540   0.404
    1HEX  H2J   4211   4.030   8.451   0.362
    1HEX  H2K   4212   3.927   8.671   0.282
    1HEX  H2M   4213   4.069   8.756   0.340
    1STR  S00   4214   4.812   8.572  16.765
    1STR  S0E   4215   4.163   9.422  17.276
    1STR  S0M   4216   3.810   8.190  16.815
    1STR  S0X   4217   4.919   8.637   0.288
    1STR  S14   4218   4.532   8.812   0.681
    1STR  S1B   4219   3.948   8.700   0.524
    1HEX  C01   4220   4.630   8.569   3.676
    1HEX  C02   4221   4.566   8.570   3.815
    1HEX  C03   4222   4.415   8.565   3.803
    1HEX  O04   4223   4.358   8.464   3.763
    1HEX  O05   4224   4.356   8.680   3.840
    1HEX  C06   4225   4.214   8.684   3.855
    1HEX  C07   4226   4.175   8.668   4.004
    1HEX  C08   4227   4.205   8.805   4.072
    1HEX  O09   4228   4.136   8.923   4.028
    1HEX  C0A   4229   4.092   9.008   4.123
    1HEX  O0B   4230   4.043   8.974   4.231
    1HEX  C0C   4231   4.114   9.156   4.090
    1HEX  C0D   4232   4.115   9.243   4.216
    1HEX  C0F   4233   4.024   8.628   4.018
    1HEX  O0G   4234   4.010   8.482   4.023
    1HEX  C0H   4235   4.003   8.411   3.909
    1HEX  O0I   4236   3.959   8.459   3.805
    1HEX  C0J   4237   4.062   8.265   3.905
    1HEX  C0K   4238   4.113   8.175   4.029
    1HEX  C0N   4239   4.252   8.548   4.073
    1HEX  O0O   4240   4.391   8.550   4.102
    1HEX  C0P   4241   4.446   8.637   4.200
    1HEX  C0Q   4242   4.408   8.628   4.352
    1HEX  C0R   4243   4.458   8.493   4.410
    1HEX  O0S   4244   4.601   8.480   4.398
    1HEX  C0T   4245   4.682   8.485   4.507
    1HEX  O0U   4246   4.645   8.502   4.623
    1HEX  C0V   4247   4.830   8.459   4.475
    1HEX  C0W   4248   4.925   8.583   4.476
    1HEX  C0Y   4249   4.488   8.745   4.414
    1HEX  O0Z   4250   4.458   8.749   4.552
    1HEX  C10   4251   4.548   8.791   4.638
    1HEX  O11   4252   4.658   8.841   4.610
    1HEX  C12   4253   4.501   8.769   4.780
    1HEX  C13   4254   4.607   8.810   4.882
    1HEX  C15   4255   4.258   8.656   4.387
    1HEX  O16   4256   4.222   8.631   4.522
    1HEX  C17   4257   4.145   8.527   4.555
    1HEX  O18   4258   4.113   8.434   4.482
    1HEX  C19   4259   4.093   8.538   4.698
    1HEX  C1A   4260   4.010   8.666   4.713
    1HEX  H1D   4261   4.598   8.481   3.621
    1HEX  H1E   4262   4.597   8.656   3.619
    1HEX  H1F   4263   4.596   8.658   3.872
    1HEX  H1G   4264   4.597   8.483   3.873
    1HEX  H1H   4265   4.166   8.610   3.791
    1HEX  H1I   4266   4.180   8.780   3.817
    1HEX  H1J   4267   4.309   8.832   4.050
    1HEX  H1K   4268   4.197   8.795   4.178
    1HEX  H1M   4269   4.038   9.191   4.020
    1HEX  H1N   4270   4.210   9.166   4.039
    1HEX  H1O   4271   4.189   9.207   4.288
    1HEX  H1P   4272   4.019   9.240   4.267
    1HEX  H1R   4273   3.963   8.675   3.941
    1HEX  H1S   4274   3.984   8.668   4.112
    1HEX  H1T   4275   4.145   8.276   3.836
    1HEX  H1U   4276   3.986   8.210   3.848
    1HEX  H1V   4277   4.093   8.071   4.005
    1HEX  H1W   4278   4.055   8.198   4.118
    1HEX  H1Y   4279   4.247   8.466   4.002
    1HEX  H1Z   4280   4.198   8.505   4.157
    1HEX  H20   4281   4.447   8.739   4.164
    1HEX  H21   4282   4.551   8.610   4.194
    1HEX  H22   4283   4.410   8.410   4.358
    1HEX  H23   4284   4.426   8.483   4.514
    1HEX  H24   4285   4.833   8.409   4.378
    1HEX  H25   4286   4.865   8.387   4.548
    1HEX  H26   4287   4.879   8.670   4.430
    1HEX  H27   4288   5.020   8.563   4.426
    1HEX  H29   4289   4.461   8.841   4.371
    1HEX  H2A   4290   4.595   8.732   4.397
    1HEX  H2B   4291   4.476   8.663   4.790
    1HEX  H2C   4292   4.408   8.825   4.793
    1HEX  H2D   4293   4.637   8.913   4.864
    1HEX  H2E   4294   4.696   8.748   4.868
    1HEX  H2G   4295   4.185   8.607   4.324
    1HEX  H2H   4296   4.237   8.762   4.376
    1HEX  H2I   4297   4.178   8.539   4.766
    1HEX  H2J   4298   4.033   8.450   4.721
    1HEX  H2K   4299   3.929   8.669   4.639
    1HEX  H2M   4300   4.071   8.755   4.696
    1STR  S00   4301   4.811   8.572   3.684
    1STR  S0E   4302   4.162   9.417   4.194
    1STR  S0M   4303   4.213   8.034   4.115
    1STR  S0X   4304   5.095   8.647   4.442
    1STR  S14   4305   4.528   8.811   5.046
    1STR  S1B   4306   3.950   8.700   4.880
    1HEX  C01   4307   4.631   8.569   8.036
    1HEX  C02   4308   4.570   8.570   8.176
    1HEX  C03   4309   4.419   8.571   8.167
    1HEX  O04   4310   4.357   8.472   8.128
    1HEX  O05   4311   4.365   8.688   8.204
    1HEX  C06   4312   4.223   8.702   8.210
    1HEX  C07   4313   4.173   8.693   8.356
    1HEX  C08   4314   4.219   8.822   8.428
    1HEX  O09   4315   4.157   8.943   8.388
    1HEX  C0A   4316   4.098   9.019   8.480
    1HEX  O0B   4317   4.043   8.977   8.583
    1HEX  C0C   4318   4.113   9.167   8.452
    1HEX  C0D   4319   4.114   9.249   8.582
    1HEX  C0F   4320   4.017   8.691   8.362
    1HEX  O0G   4321   3.969   8.572   8.300
    1HEX  C0H   4322   3.928   8.574   8.173
    1HEX  O0I   4323   3.904   8.674   8.106
    1HEX  C0J   4324   3.923   8.435   8.112
    1HEX  C0K   4325   3.804   8.356   8.168
    1HEX  C0N   4326   4.220   8.560   8.425
    1HEX  O0O   4327   4.357   8.540   8.464
    1HEX  C0P   4328   4.427   8.623   8.557
    1HEX  C0Q   4329   4.392   8.622   8.709
    1HEX  C0R   4330   4.428   8.483   8.767
    1HEX  O0S   4331   4.569   8.459   8.761
    1HEX  C0T   4332   4.642   8.452   8.874
    1HEX  O0U   4333   4.599   8.461   8.989
    1HEX  C0V   4334   4.789   8.429   8.846
    1HEX  C0W   4335   4.869   8.560   8.852
    1HEX  C0Y   4336   4.480   8.731   8.773
    1HEX  O0Z   4337   4.456   8.733   8.911
    1HEX  C10   4338   4.542   8.789   8.994
    1HEX  O11   4339   4.643   8.851   8.962
    1HEX  C12   4340   4.500   8.767   9.138
    1HEX  C13   4341   4.609   8.808   9.237
    1HEX  C15   4342   4.244   8.660   8.743
    1HEX  O16   4343   4.207   8.638   8.879
    1HEX  C17   4344   4.138   8.530   8.914
    1HEX  O18   4345   4.110   8.434   8.842
    1HEX  C19   4346   4.089   8.540   9.058
    1HEX  C1A   4347   4.007   8.667   9.076
    1HEX  H1D   4348   4.597   8.481   7.981
    1HEX  H1E   4349   4.598   8.656   7.979
    1HEX  H1F   4350   4.603   8.657   8.233
    1HEX  H1G   4351   4.600   8.482   8.233
    1HEX  H1H   4352   4.176   8.629   8.146
    1HEX  H1I   4353   4.196   8.799   8.167
    1HEX  H1J   4354   4.324   8.841   8.405
    1HEX  H1K   4355   4.211   8.809   8.534
    1HEX  H1M   4356   4.036   9.201   8.384
    1HEX  H1N   4357   4.209   9.181   8.401
    1HEX  H1O   4358   4.188   9.211   8.652
    1HEX  H1P   4359   4.017   9.242   8.632
    1HEX  H1R   4360   3.974   8.781   8.317
    1HEX  H1S   4361   3.983   8.692   8.465
    1HEX  H1T   4362   4.017   8.385   8.134
    1HEX  H1U   4363   3.916   8.445   8.004
    1HEX  H1V   4364   3.711   8.410   8.149
    1HEX  H1W   4365   3.813   8.345   8.276
    1HEX  H1Y   4366   4.204   8.481   8.351
    1HEX  H1Z   4367   4.153   8.526   8.502
    1HEX  H20   4368   4.440   8.724   8.519
    1HEX  H21   4369   4.529   8.585   8.549
    1HEX  H22   4370   4.376   8.404   8.712
    1HEX  H23   4371   4.393   8.474   8.870
    1HEX  H24   4372   4.799   8.382   8.748
    1HEX  H25   4373   4.828   8.358   8.920
    1HEX  H26   4374   4.819   8.639   8.797
    1HEX  H27   4375   4.969   8.547   8.810
    1HEX  H29   4376   4.459   8.830   8.732
    1HEX  H2A   4377   4.586   8.713   8.753
    1HEX  H2B   4378   4.476   8.661   9.150
    1HEX  H2C   4379   4.408   8.823   9.154
    1HEX  H2D   4380   4.638   8.911   9.220
    1HEX  H2E   4381   4.698   8.747   9.220
    1HEX  H2G   4382   4.170   8.612   8.681
    1HEX  H2H   4383   4.229   8.767   8.732
    1HEX  H2I   4384   4.176   8.540   9.124
    1HEX  H2J   4385   4.030   8.451   9.082
    1HEX  H2K   4386   3.927   8.671   9.002
    1HEX  H2M   4387   4.069   8.756   9.060
    1STR  S00   4388   4.812   8.572   8.045
    1STR  S0E   4389   4.163   9.422   8.556
    1STR  S0M   4390   3.810   8.190   8.096
    1STR  S0X   4391   4.919   8.637   9.009
    1STR  S14   4392   4.532   8.811   9.401
    1STR  S1B   4393   3.948   8.700   9.244
    1HEX  C01   4394   4.628   8.569  12.398
    1HEX  C02   4395   4.564   8.573  12.537
    1HEX  C03   4396   4.412   8.578  12.526
    1HEX  O04   4397   4.349   8.482  12.481
    1HEX  O05   4398   4.360   8.695  12.568
    1HEX  C06   4399   4.219   8.710  12.577
    1HEX  C07   4400   4.170   8.697  12.724
    1HEX  C08   4401   4.204   8.830  12.801
    1HEX  O09   4402   4.148   8.958  12.766
    1HEX  C0A   4403   4.127   9.052  12.866
    1HEX  O0B   4404   4.095   9.023  12.981
    1HEX  C0C   4405   4.149   9.199  12.826
    1HEX  C0D   4406   4.169   9.303  12.943
    1HEX  C0F   4407   4.016   8.670  12.729
    1HEX  O0G   4408   3.990   8.530  12.705
    1HEX  C0H   4409   3.968   8.485  12.581
    1HEX  O0I   4410   3.921   8.554  12.490
    1HEX  C0J   4411   4.015   8.341  12.551
    1HEX  C0K   4412   4.048   8.242  12.668
    1HEX  C0N   4413   4.232   8.567  12.790
    1HEX  O0O   4414   4.370   8.554  12.821
    1HEX  C0P   4415   4.434   8.634  12.920
    1HEX  C0Q   4416   4.394   8.626  13.070
    1HEX  C0R   4417   4.429   8.485  13.124
    1HEX  O0S   4418   4.570   8.461  13.120
    1HEX  C0T   4419   4.642   8.452  13.234
    1HEX  O0U   4420   4.598   8.461  13.348
    1HEX  C0V   4421   4.789   8.429  13.206
    1HEX  C0W   4422   4.869   8.560  13.213
    1HEX  C0Y   4423   4.483   8.733  13.137
    1HEX  O0Z   4424   4.458   8.733  13.275
    1HEX  C10   4425   4.543   8.789  13.357
    1HEX  O11   4426   4.645   8.851  13.325
    1HEX  C12   4427   4.500   8.767  13.501
    1HEX  C13   4428   4.609   8.808  13.600
    1HEX  C15   4429   4.247   8.663  13.106
    1HEX  O16   4430   4.210   8.639  13.240
    1HEX  C17   4431   4.138   8.532  13.274
    1HEX  O18   4432   4.108   8.438  13.201
    1HEX  C19   4433   4.090   8.540  13.418
    1HEX  C1A   4434   4.008   8.668  13.437
    1HEX  H1D   4435   4.595   8.481  12.344
    1HEX  H1E   4436   4.597   8.656  12.340
    1HEX  H1F   4437   4.598   8.659  12.594
    1HEX  H1G   4438   4.591   8.484  12.594
    1HEX  H1H   4439   4.169   8.639  12.512
    1HEX  H1I   4440   4.191   8.808  12.538
    1HEX  H1J   4441   4.310   8.849  12.789
    1HEX  H1K   4442   4.185   8.813  12.905
    1HEX  H1M   4443   4.067   9.231  12.761
    1HEX  H1N   4444   4.239   9.200  12.764
    1HEX  H1O   4445   4.243   9.270  13.015
    1HEX  H1P   4446   4.077   9.319  12.998
    1HEX  H1R   4447   3.961   8.736  12.661
    1HEX  H1S   4448   3.978   8.693  12.829
    1HEX  H1T   4449   4.106   8.354  12.492
    1HEX  H1U   4450   3.942   8.298  12.483
    1HEX  H1V   4451   4.015   8.141  12.643
    1HEX  H1W   4452   3.999   8.270  12.761
    1HEX  H1Y   4453   4.222   8.487  12.716
    1HEX  H1Z   4454   4.171   8.524  12.869
    1HEX  H20   4455   4.443   8.736  12.885
    1HEX  H21   4456   4.537   8.599  12.913
    1HEX  H22   4457   4.378   8.408  13.067
    1HEX  H23   4458   4.393   8.473  13.226
    1HEX  H24   4459   4.799   8.382  13.109
    1HEX  H25   4460   4.827   8.358  13.280
    1HEX  H26   4461   4.819   8.639  13.158
    1HEX  H27   4462   4.968   8.547  13.169
    1HEX  H29   4463   4.461   8.833  13.098
    1HEX  H2A   4464   4.588   8.715  13.117
    1HEX  H2B   4465   4.476   8.661  13.512
    1HEX  H2C   4466   4.408   8.824  13.516
    1HEX  H2D   4467   4.638   8.912  13.582
    1HEX  H2E   4468   4.698   8.748  13.582
    1HEX  H2G   4469   4.172   8.618  13.043
    1HEX  H2H   4470   4.233   8.771  13.097
    1HEX  H2I   4471   4.177   8.540  13.484
    1HEX  H2J   4472   4.031   8.452  13.442
    1HEX  H2K   4473   3.927   8.672  13.363
    1HEX  H2M   4474   4.069   8.756  13.420
    1STR  S00   4475   4.809   8.573  12.403
    1STR  S0E   4476   4.231   9.464  13.014
    1STR  S0M   4477   4.156   8.112  12.744
    1STR  S0X   4478   4.920   8.636  13.369
    1STR  S14   4479   4.532   8.811  13.764
    1STR  S1B   4480   3.946   8.699  13.604
    1HEX  C01   4481   4.629  12.930  16.757
    1HEX  C02   4482   4.568  12.933  16.898
    1HEX  C03   4483   4.416  12.939  16.890
    1HEX  O04   4484   4.352  12.843  16.848
    1HEX  O05   4485   4.366  13.057  16.931
    1HEX  C06   4486   4.225  13.077  16.936
    1HEX  C07   4487   4.170  13.068  17.081
    1HEX  C08   4488   4.211  13.196  17.159
    1HEX  O09   4489   4.155  13.323  17.122
    1HEX  C0A   4490   4.130  13.416  17.220
    1HEX  O0B   4491   4.098  13.389  17.336
    1HEX  C0C   4492   4.148  13.561  17.175
    1HEX  C0D   4493   4.172  13.666  17.288
    1HEX  C0F   4494   4.015  13.062  17.081
    1HEX  O0G   4495   3.971  12.940  17.020
    1HEX  C0H   4496   3.929  12.939  16.893
    1HEX  O0I   4497   3.903  13.038  16.825
    1HEX  C0J   4498   3.925  12.799  16.835
    1HEX  C0K   4499   3.806  12.719  16.890
    1HEX  C0N   4500   4.217  12.932  17.146
    1HEX  O0O   4501   4.353  12.907  17.184
    1HEX  C0P   4502   4.426  12.987  17.277
    1HEX  C0Q   4503   4.392  12.984  17.429
    1HEX  C0R   4504   4.428  12.844   0.046
    1HEX  O0S   4505   4.569  12.821   0.040
    1HEX  C0T   4506   4.642  12.812   0.154
    1HEX  O0U   4507   4.599  12.821   0.268
    1HEX  C0V   4508   4.789  12.789   0.126
    1HEX  C0W   4509   4.869  12.920   0.132
    1HEX  C0Y   4510   4.481  13.093   0.053
    1HEX  O0Z   4511   4.457  13.093   0.192
    1HEX  C10   4512   4.543  13.149   0.275
    1HEX  O11   4513   4.644  13.211   0.242
    1HEX  C12   4514   4.500  13.127   0.418
    1HEX  C13   4515   4.609  13.168   0.518
    1HEX  C15   4516   4.245  13.022   0.025
    1HEX  O16   4517   4.208  12.999   0.160
    1HEX  C17   4518   4.138  12.891   0.195
    1HEX  O18   4519   4.110  12.795   0.122
    1HEX  C19   4520   4.089  12.900   0.338
    1HEX  C1A   4521   4.007  13.028   0.356
    1HEX  H1D   4522   4.594  12.841  16.703
    1HEX  H1E   4523   4.597  13.017  16.700
    1HEX  H1F   4524   4.604  13.020  16.954
    1HEX  H1G   4525   4.596  12.844  16.954
    1HEX  H1H   4526   4.176  13.005  16.870
    1HEX  H1I   4527   4.201  13.174  16.893
    1HEX  H1J   4528   4.317  13.214  17.147
    1HEX  H1K   4529   4.192  13.179  17.263
    1HEX  H1M   4530   4.064  13.591  17.112
    1HEX  H1N   4531   4.236  13.562  17.111
    1HEX  H1O   4532   4.246  13.632  17.361
    1HEX  H1P   4533   4.081  13.686  17.343
    1HEX  H1R   4534   3.971  13.150  17.034
    1HEX  H1S   4535   3.978  13.062  17.183
    1HEX  H1T   4536   4.019  12.749  16.857
    1HEX  H1U   4537   3.919  12.807  16.726
    1HEX  H1V   4538   3.713  12.772  16.869
    1HEX  H1W   4539   3.814  12.708  16.998
    1HEX  H1Y   4540   4.200  12.855  17.071
    1HEX  H1Z   4541   4.148  12.896  17.223
    1HEX  H20   4542   4.440  13.088  17.240
    1HEX  H21   4543   4.527  12.948  17.268
    1HEX  H22   4544   4.376  12.766  17.430
    1HEX  H23   4545   4.393  12.835   0.148
    1HEX  H24   4546   4.799  12.743   0.028
    1HEX  H25   4547   4.828  12.719   0.199
    1HEX  H26   4548   4.819  13.000   0.077
    1HEX  H27   4549   4.968  12.908   0.090
    1HEX  H29   4550   4.460  13.192   0.014
    1HEX  H2A   4551   4.587  13.074   0.033
    1HEX  H2B   4552   4.476  13.022   0.430
    1HEX  H2C   4553   4.408  13.184   0.434
    1HEX  H2D   4554   4.638  13.272   0.500
    1HEX  H2E   4555   4.698  13.107   0.501
    1HEX  H2G   4556   4.171  12.975  17.403
    1HEX  H2H   4557   4.231  13.129   0.015
    1HEX  H2I   4558   4.176  12.900   0.404
    1HEX  H2J   4559   4.030  12.812   0.362
    1HEX  H2K   4560   3.927  13.032   0.283
    1HEX  H2M   4561   4.069  13.116   0.340
    1STR  S00   4562   4.810  12.932  16.765
    1STR  S0E   4563   4.252  13.825  17.338
    1STR  S0M   4564   3.811  12.554  16.816
    1STR  S0X   4565   4.919  12.997   0.289
    1STR  S14   4566   4.532  13.172   0.682
    1STR  S1B   4567   3.947  13.059   0.524
    1HEX  C01   4568   4.631  12.929   3.676
    1HEX  C02   4569   4.570  12.930   3.816
    1HEX  C03   4570   4.419  12.931   3.807
    1HEX  O04   4571   4.357  12.832   3.768
    1HEX  O05   4572   4.365  13.048   3.844
    1HEX  C06   4573   4.223  13.062   3.850
    1HEX  C07   4574   4.173  13.053   3.996
    1HEX  C08   4575   4.220  13.182   4.068
    1HEX  O09   4576   4.157  13.303   4.027
    1HEX  C0A   4577   4.098  13.379   4.120
    1HEX  O0B   4578   4.043  13.337   4.222
    1HEX  C0C   4579   4.113  13.528   4.092
    1HEX  C0D   4580   4.114  13.610   4.222
    1HEX  C0F   4581   4.018  13.051   4.002
    1HEX  O0G   4582   3.969  12.932   3.940
    1HEX  C0H   4583   3.928  12.934   3.813
    1HEX  O0I   4584   3.904  13.035   3.746
    1HEX  C0J   4585   3.923  12.795   3.752
    1HEX  C0K   4586   3.804  12.716   3.808
    1HEX  C0N   4587   4.220  12.920   4.065
    1HEX  O0O   4588   4.357  12.900   4.104
    1HEX  C0P   4589   4.427  12.983   4.197
    1HEX  C0Q   4590   4.392  12.982   4.349
    1HEX  C0R   4591   4.428  12.843   4.407
    1HEX  O0S   4592   4.569  12.819   4.401
    1HEX  C0T   4593   4.642  12.812   4.514
    1HEX  O0U   4594   4.599  12.822   4.629
    1HEX  C0V   4595   4.789  12.789   4.486
    1HEX  C0W   4596   4.869  12.920   4.492
    1HEX  C0Y   4597   4.480  13.091   4.413
    1HEX  O0Z   4598   4.456  13.093   4.551
    1HEX  C10   4599   4.542  13.149   4.634
    1HEX  O11   4600   4.643  13.211   4.601
    1HEX  C12   4601   4.500  13.127   4.778
    1HEX  C13   4602   4.609  13.168   4.877
    1HEX  C15   4603   4.244  13.020   4.383
    1HEX  O16   4604   4.207  12.998   4.519
    1HEX  C17   4605   4.138  12.890   4.555
    1HEX  O18   4606   4.110  12.794   4.483
    1HEX  C19   4607   4.089  12.900   4.698
    1HEX  C1A   4608   4.007  13.028   4.716
    1HEX  H1D   4609   4.597  12.841   3.621
    1HEX  H1E   4610   4.598  13.016   3.619
    1HEX  H1F   4611   4.603  13.018   3.873
    1HEX  H1G   4612   4.600  12.842   3.873
    1HEX  H1H   4613   4.176  12.989   3.786
    1HEX  H1I   4614   4.196  13.159   3.807
    1HEX  H1J   4615   4.324  13.201   4.045
    1HEX  H1K   4616   4.211  13.169   4.174
    1HEX  H1M   4617   4.036  13.561   4.024
    1HEX  H1N   4618   4.209  13.541   4.041
    1HEX  H1O   4619   4.188  13.571   4.292
    1HEX  H1P   4620   4.017  13.602   4.272
    1HEX  H1R   4621   3.974  13.141   3.957
    1HEX  H1S   4622   3.983  13.052   4.105
    1HEX  H1T   4623   4.017  12.745   3.774
    1HEX  H1U   4624   3.916  12.805   3.644
    1HEX  H1V   4625   3.711  12.770   3.789
    1HEX  H1W   4626   3.813  12.705   3.916
    1HEX  H1Y   4627   4.204  12.841   3.991
    1HEX  H1Z   4628   4.153  12.886   4.142
    1HEX  H20   4629   4.440  13.084   4.159
    1HEX  H21   4630   4.529  12.945   4.189
    1HEX  H22   4631   4.376  12.764   4.352
    1HEX  H23   4632   4.393  12.834   4.510
    1HEX  H24   4633   4.799  12.742   4.388
    1HEX  H25   4634   4.828  12.719   4.560
    1HEX  H26   4635   4.819  13.000   4.437
    1HEX  H27   4636   4.969  12.908   4.450
    1HEX  H29   4637   4.459  13.191   4.372
    1HEX  H2A   4638   4.586  13.073   4.393
    1HEX  H2B   4639   4.475  13.021   4.790
    1HEX  H2C   4640   4.408  13.183   4.794
    1HEX  H2D   4641   4.638  13.272   4.860
    1HEX  H2E   4642   4.698  13.107   4.860
    1HEX  H2G   4643   4.170  12.972   4.321
    1HEX  H2H   4644   4.229  13.127   4.372
    1HEX  H2I   4645   4.176  12.900   4.764
    1HEX  H2J   4646   4.030  12.811   4.722
    1HEX  H2K   4647   3.927  13.032   4.642
    1HEX  H2M   4648   4.069  13.116   4.700
    1STR  S00   4649   4.812  12.932   3.685
    1STR  S0E   4650   4.163  13.782   4.196
    1STR  S0M   4651   3.811  12.550   3.735
    1STR  S0X   4652   4.919  12.997   4.649
    1STR  S14   4653   4.532  13.172   5.041
    1STR  S1B   4654   3.948  13.060   4.884
    1HEX  C01   4655   4.631  12.929   8.036
    1HEX  C02   4656   4.570  12.931   8.176
    1HEX  C03   4657   4.419  12.931   8.167
    1HEX  O04   4658   4.357  12.832   8.128
    1HEX  O05   4659   4.365  13.048   8.204
    1HEX  C06   4660   4.223  13.062   8.210
    1HEX  C07   4661   4.173  13.053   8.356
    1HEX  C08   4662   4.220  13.182   8.428
    1HEX  O09   4663   4.157  13.303   8.387
    1HEX  C0A   4664   4.098  13.379   8.480
    1HEX  O0B   4665   4.043  13.337   8.582
    1HEX  C0C   4666   4.113  13.528   8.452
    1HEX  C0D   4667   4.114  13.610   8.582
    1HEX  C0F   4668   4.018  13.051   8.362
    1HEX  O0G   4669   3.969  12.932   8.300
    1HEX  C0H   4670   3.928  12.934   8.173
    1HEX  O0I   4671   3.904  13.035   8.106
    1HEX  C0J   4672   3.923  12.795   8.112
    1HEX  C0K   4673   3.804  12.716   8.168
    1HEX  C0N   4674   4.220  12.920   8.425
    1HEX  O0O   4675   4.357  12.900   8.464
    1HEX  C0P   4676   4.427  12.983   8.557
    1HEX  C0Q   4677   4.392  12.982   8.709
    1HEX  C0R   4678   4.428  12.843   8.767
    1HEX  O0S   4679   4.569  12.819   8.761
    1HEX  C0T   4680   4.642  12.812   8.874
    1HEX  O0U   4681   4.599  12.821   8.989
    1HEX  C0V   4682   4.789  12.789   8.846
    1HEX  C0W   4683   4.869  12.920   8.852
    1HEX  C0Y   4684   4.480  13.091   8.773
    1HEX  O0Z   4685   4.456  13.093   8.911
    1HEX  C10   4686   4.542  13.149   8.994
    1HEX  O11   4687   4.643  13.211   8.961
    1HEX  C12   4688   4.500  13.127   9.138
    1HEX  C13   4689   4.609  13.168   9.237
    1HEX  C15   4690   4.244  13.020   8.743
    1HEX  O16   4691   4.207  12.998   8.879
    1HEX  C17   4692   4.137  12.890   8.915
    1HEX  O18   4693   4.110  12.794   8.843
    1HEX  C19   4694   4.089  12.900   9.058
    1HEX  C1A   4695   4.007  13.028   9.076
    1HEX  H1D   4696   4.597  12.841   7.981
    1HEX  H1E   4697   4.598  13.016   7.979
    1HEX  H1F   4698   4.603  13.018   8.233
    1HEX  H1G   4699   4.600  12.842   8.233
    1HEX  H1H   4700   4.176  12.989   8.146
    1HEX  H1I   4701   4.196  13.159   8.167
    1HEX  H1J   4702   4.324  13.201   8.405
    1HEX  H1K   4703   4.211  13.169   8.534
    1HEX  H1M   4704   4.036  13.561   8.384
    1HEX  H1N   4705   4.209  13.541   8.401
    1HEX  H1O   4706   4.188  13.571   8.652
    1HEX  H1P   4707   4.017  13.602   8.632
    1HEX  H1R   4708   3.974  13.141   8.317
    1HEX  H1S   4709   3.983  13.052   8.465
    1HEX  H1T   4710   4.017  12.745   8.134
    1HEX  H1U   4711   3.916  12.805   8.004
    1HEX  H1V   4712   3.711  12.770   8.149
    1HEX  H1W   4713   3.813  12.705   8.276
    1HEX  H1Y   4714   4.204  12.841   8.351
    1HEX  H1Z   4715   4.153  12.886   8.502
    1HEX  H20   4716   4.440  13.084   8.519
    1HEX  H21   4717   4.529  12.945   8.549
    1HEX  H22   4718   4.376  12.764   8.712
    1HEX  H23   4719   4.393  12.834   8.870
    1HEX  H24   4720   4.799  12.742   8.748
    1HEX  H25   4721   4.828  12.719   8.920
    1HEX  H26   4722   4.819  13.000   8.797
    1HEX  H27   4723   4.969  12.908   8.810
    1HEX  H29   4724   4.459  13.191   8.732
    1HEX  H2A   4725   4.586  13.073   8.753
    1HEX  H2B   4726   4.475  13.021   9.150
    1HEX  H2C   4727   4.408  13.183   9.154
    1HEX  H2D   4728   4.638  13.272   9.220
    1HEX  H2E   4729   4.698  13.107   9.220
    1HEX  H2G   4730   4.170  12.972   8.681
    1HEX  H2H   4731   4.229  13.127   8.732
    1HEX  H2I   4732   4.176  12.900   9.124
    1HEX  H2J   4733   4.030  12.811   9.082
    1HEX  H2K   4734   3.927  13.032   9.002
    1HEX  H2M   4735   4.069  13.116   9.060
    1STR  S00   4736   4.812  12.932   8.045
    1STR  S0E   4737   4.163  13.782   8.556
    1STR  S0M   4738   3.810  12.550   8.095
    1STR  S0X   4739   4.919  12.997   9.009
    1STR  S14   4740   4.532  13.172   9.401
    1STR  S1B   4741   3.948  13.060   9.244
    1HEX  C01   4742   4.628  12.930  12.397
    1HEX  C02   4743   4.563  12.931  12.536
    1HEX  C03   4744   4.412  12.925  12.524
    1HEX  O04   4745   4.355  12.823  12.484
    1HEX  O05   4746   4.351  13.039  12.561
    1HEX  C06   4747   4.209  13.043  12.575
    1HEX  C07   4748   4.170  13.031  12.725
    1HEX  C08   4749   4.208  13.168  12.788
    1HEX  O09   4750   4.140  13.287  12.747
    1HEX  C0A   4751   4.094  13.370  12.843
    1HEX  O0B   4752   4.049  13.335  12.951
    1HEX  C0C   4753   4.113  13.518  12.810
    1HEX  C0D   4754   4.114  13.605  12.937
    1HEX  C0F   4755   4.018  13.001  12.744
    1HEX  O0G   4756   3.993  12.858  12.757
    1HEX  C0H   4757   3.979  12.781  12.648
    1HEX  O0I   4758   3.942  12.827  12.540
    1HEX  C0J   4759   4.019  12.630  12.656
    1HEX  C0K   4760   4.041  12.541  12.787
    1HEX  C0N   4761   4.242  12.909  12.793
    1HEX  O0O   4762   4.381  12.909  12.823
    1HEX  C0P   4763   4.435  12.993  12.924
    1HEX  C0Q   4764   4.389  12.986  13.074
    1HEX  C0R   4765   4.422  12.846  13.131
    1HEX  O0S   4766   4.562  12.820  13.125
    1HEX  C0T   4767   4.637  12.812  13.237
    1HEX  O0U   4768   4.596  12.822  13.353
    1HEX  C0V   4769   4.784  12.789  13.207
    1HEX  C0W   4770   4.865  12.920  13.213
    1HEX  C0Y   4771   4.477  13.094  13.140
    1HEX  O0Z   4772   4.452  13.094  13.278
    1HEX  C10   4773   4.540  13.149  13.359
    1HEX  O11   4774   4.641  13.210  13.326
    1HEX  C12   4775   4.499  13.127  13.503
    1HEX  C13   4776   4.609  13.168  13.601
    1HEX  C15   4777   4.240  13.027  13.105
    1HEX  O16   4778   4.191  13.005  13.237
    1HEX  C17   4779   4.102  12.908  13.259
    1HEX  O18   4780   4.088  12.807  13.191
    1HEX  C19   4781   4.010  12.937  13.377
    1HEX  C1A   4782   3.887  13.023  13.337
    1HEX  H1D   4783   4.596  12.841  12.342
    1HEX  H1E   4784   4.595  13.016  12.339
    1HEX  H1F   4785   4.592  13.020  12.592
    1HEX  H1G   4786   4.595  12.845  12.594
    1HEX  H1H   4787   4.161  12.966  12.514
    1HEX  H1I   4788   4.174  13.138  12.534
    1HEX  H1J   4789   4.312  13.191  12.763
    1HEX  H1K   4790   4.205  13.161  12.895
    1HEX  H1M   4791   4.036  13.552  12.740
    1HEX  H1N   4792   4.209  13.530  12.759
    1HEX  H1O   4793   4.188  13.569  13.008
    1HEX  H1P   4794   4.017  13.600  12.987
    1HEX  H1R   4795   3.958  13.048  12.665
    1HEX  H1S   4796   3.982  13.049  12.836
    1HEX  H1T   4797   4.110  12.626  12.596
    1HEX  H1U   4798   3.944  12.582  12.593
    1HEX  H1V   4799   4.017  12.437  12.761
    1HEX  H1W   4800   3.972  12.570  12.866
    1HEX  H1Y   4801   4.234  12.827  12.722
    1HEX  H1Z   4802   4.189  12.868  12.879
    1HEX  H20   4803   4.440  13.096  12.889
    1HEX  H21   4804   4.539  12.963  12.922
    1HEX  H22   4805   4.369  12.769  13.075
    1HEX  H23   4806   4.385  12.838  13.234
    1HEX  H24   4807   4.792  12.743  13.108
    1HEX  H25   4808   4.823  12.718  13.279
    1HEX  H26   4809   4.816  12.999  13.157
    1HEX  H27   4810   4.964  12.906  13.171
    1HEX  H29   4811   4.457  13.193  13.100
    1HEX  H2A   4812   4.583  13.074  13.121
    1HEX  H2B   4813   4.475  13.021  13.515
    1HEX  H2C   4814   4.407  13.183  13.519
    1HEX  H2D   4815   4.638  13.272  13.582
    1HEX  H2E   4816   4.698  13.107  13.582
    1HEX  H2G   4817   4.168  12.986  13.036
    1HEX  H2H   4818   4.230  13.135  13.095
    1HEX  H2I   4819   4.068  12.985  13.457
    1HEX  H2J   4820   3.976  12.841  13.416
    1HEX  H2K   4821   3.858  13.009  13.233
    1HEX  H2M   4822   3.907  13.129  13.350
    1STR  S00   4823   4.809  12.933  12.405
    1STR  S0E   4824   4.164  13.778  12.915
    1STR  S0M   4825   4.109  12.418  12.919
    1STR  S0X   4826   4.919  12.996  13.368
    1STR  S14   4827   4.531  13.172  13.764
    1STR  S1B   4828   3.733  13.085  13.258
    1HEX  C01   4829   8.960  17.289  16.779
    1HEX  C02   4830   8.912  17.266  16.923
    1HEX  C03   4831   8.761  17.271  16.922
    1HEX  O04   4832   8.695  17.170  16.901
    1HEX  O05   4833   8.715  17.395  16.941
    1HEX  C06   4834   8.574  17.417  16.941
    1HEX  C07   4835   8.519  17.412  17.086
    1HEX  C08   4836   8.568   0.101  17.156
    1HEX  O09   4837   8.508   0.222  17.113
    1HEX  C0A   4838   8.452   0.301  17.204
    1HEX  O0B   4839   8.396   0.263  17.307
    1HEX  C0C   4840   8.471   0.449  17.174
    1HEX  C0D   4841   8.474   0.532  17.303
    1HEX  C0F   4842   8.364  17.414  17.086
    1HEX  O0G   4843   8.316  17.295  17.025
    1HEX  C0H   4844   8.280  17.296  16.896
    1HEX  O0I   4845   8.254  17.396  16.829
    1HEX  C0J   4846   8.281  17.157  16.835
    1HEX  C0K   4847   8.164  17.074  16.887
    1HEX  C0N   4848   8.561  17.280  17.160
    1HEX  O0O   4849   8.697  17.254  17.199
    1HEX  C0P   4850   8.776  17.340  17.282
    1HEX  C0Q   4851   8.749  17.343  17.435
    1HEX  C0R   4852   8.787  17.204   0.053
    1HEX  O0S   4853   8.927  17.180   0.044
    1HEX  C0T   4854   9.002  17.172   0.157
    1HEX  O0U   4855   8.961  17.181   0.272
    1HEX  C0V   4856   9.149  17.149   0.127
    1HEX  C0W   4857   9.229  17.280   0.133
    1HEX  C0Y   4858   8.841   0.013   0.053
    1HEX  O0Z   4859   8.817   0.016   0.192
    1HEX  C10   4860   8.905   0.069   0.275
    1HEX  O11   4861   9.007   0.129   0.243
    1HEX  C12   4862   8.861   0.047   0.419
    1HEX  C13   4863   8.970   0.088   0.519
    1HEX  C15   4864   8.604  17.384   0.033
    1HEX  O16   4865   8.568  17.359   0.167
    1HEX  C17   4866   8.498  17.250   0.200
    1HEX  O18   4867   8.471  17.156   0.127
    1HEX  C19   4868   8.447  17.259   0.343
    1HEX  C1A   4869   8.364  17.386   0.359
    1HEX  H1D   4870   8.911  17.219  16.711
    1HEX  H1E   4871   8.931  17.388  16.746
    1HEX  H1F   4872   8.950  17.343  16.991
    1HEX  H1G   4873   8.942  17.169  16.961
    1HEX  H1H   4874   8.528  17.344  16.875
    1HEX  H1I   4875   8.553   0.074  16.895
    1HEX  H1J   4876   8.673   0.118  17.132
    1HEX  H1K   4877   8.560   0.090  17.263
    1HEX  H1M   4878   8.394   0.483  17.105
    1HEX  H1N   4879   8.567   0.459  17.122
    1HEX  H1O   4880   8.548   0.493  17.372
    1HEX  H1P   4881   8.377   0.527  17.353
    1HEX  H1R   4882   8.324   0.064  17.039
    1HEX  H1S   4883   8.327  17.417  17.189
    1HEX  H1T   4884   8.377  17.111  16.859
    1HEX  H1U   4885   8.277  17.167  16.727
    1HEX  H1V   4886   8.070  17.125  16.868
    1HEX  H1W   4887   8.172  17.062  16.996
    1HEX  H1Y   4888   8.540  17.199  17.090
    1HEX  H1Z   4889   8.491  17.252  17.238
    1HEX  H20   4890   8.789  17.438  17.240
    1HEX  H21   4891   8.877  17.299  17.269
    1HEX  H22   4892   8.734  17.126  17.439
    1HEX  H23   4893   8.753  17.196   0.156
    1HEX  H24   4894   9.157  17.102   0.029
    1HEX  H25   4895   9.188  17.078   0.199
    1HEX  H26   4896   9.179  17.359   0.078
    1HEX  H27   4897   9.328  17.267   0.090
    1HEX  H29   4898   8.820   0.111   0.011
    1HEX  H2A   4899   8.947  17.432   0.033
    1HEX  H2B   4900   8.837  17.382   0.430
    1HEX  H2C   4901   8.769   0.103   0.434
    1HEX  H2D   4902   8.999   0.192   0.501
    1HEX  H2E   4903   9.059   0.028   0.502
    1HEX  H2G   4904   8.528  17.339  17.411
    1HEX  H2H   4905   8.591   0.051   0.022
    1HEX  H2I   4906   8.533  17.259   0.410
    1HEX  H2J   4907   8.388  17.170   0.365
    1HEX  H2K   4908   8.285  17.390   0.284
    1HEX  H2M   4909   8.426   0.035   0.344
    1STR  S00   4910   8.889  17.212  16.632
    1STR  S0E   4911   8.525   0.704  17.276
    1STR  S0M   4912   8.169  16.908  16.815
    1STR  S0X   4913   9.282  17.356   0.288
    1STR  S14   4914   8.892   0.092   0.682
    1STR  S1B   4915   8.307  17.421   0.528
    1HEX  C01   4916   8.991  17.289   3.676
    1HEX  C02   4917   8.930  17.290   3.816
    1HEX  C03   4918   8.779  17.291   3.807
    1HEX  O04   4919   8.718  17.192   3.768
    1HEX  O05   4920   8.725  17.408   3.844
    1HEX  C06   4921   8.583  17.422   3.850
    1HEX  C07   4922   8.533  17.413   3.996
    1HEX  C08   4923   8.579   0.101   4.068
    1HEX  O09   4924   8.517   0.222   4.028
    1HEX  C0A   4925   8.458   0.298   4.120
    1HEX  O0B   4926   8.403   0.257   4.222
    1HEX  C0C   4927   8.473   0.447   4.092
    1HEX  C0D   4928   8.474   0.529   4.222
    1HEX  C0F   4929   8.377  17.411   4.002
    1HEX  O0G   4930   8.329  17.292   3.940
    1HEX  C0H   4931   8.288  17.294   3.813
    1HEX  O0I   4932   8.264  17.394   3.746
    1HEX  C0J   4933   8.283  17.155   3.752
    1HEX  C0K   4934   8.164  17.076   3.808
    1HEX  C0N   4935   8.580  17.279   4.065
    1HEX  O0O   4936   8.717  17.259   4.104
    1HEX  C0P   4937   8.787  17.343   4.197
    1HEX  C0Q   4938   8.752  17.341   4.349
    1HEX  C0R   4939   8.788  17.203   4.407
    1HEX  O0S   4940   8.929  17.179   4.401
    1HEX  C0T   4941   9.002  17.171   4.514
    1HEX  O0U   4942   8.959  17.181   4.629
    1HEX  C0V   4943   9.149  17.149   4.486
    1HEX  C0W   4944   9.229  17.280   4.492
    1HEX  C0Y   4945   8.840   0.011   4.413
    1HEX  O0Z   4946   8.816   0.012   4.551
    1HEX  C10   4947   8.902   0.068   4.634
    1HEX  O11   4948   9.003   0.130   4.601
    1HEX  C12   4949   8.860   0.046   4.778
    1HEX  C13   4950   8.969   0.088   4.877
    1HEX  C15   4951   8.604  17.379   4.383
    1HEX  O16   4952   8.567  17.358   4.519
    1HEX  C17   4953   8.498  17.249   4.554
    1HEX  O18   4954   8.470  17.153   4.483
    1HEX  C19   4955   8.449  17.259   4.698
    1HEX  C1A   4956   8.367  17.387   4.716
    1HEX  H1D   4957   8.957  17.201   3.621
    1HEX  H1E   4958   8.958  17.376   3.619
    1HEX  H1F   4959   8.963  17.377   3.873
    1HEX  H1G   4960   8.960  17.202   3.872
    1HEX  H1H   4961   8.536  17.348   3.786
    1HEX  H1I   4962   8.556   0.078   3.807
    1HEX  H1J   4963   8.684   0.120   4.045
    1HEX  H1K   4964   8.571   0.088   4.174
    1HEX  H1M   4965   8.396   0.480   4.024
    1HEX  H1N   4966   8.569   0.461   4.041
    1HEX  H1O   4967   8.548   0.490   4.292
    1HEX  H1P   4968   8.377   0.522   4.272
    1HEX  H1R   4969   8.334   0.060   3.957
    1HEX  H1S   4970   8.343  17.411   4.105
    1HEX  H1T   4971   8.377  17.104   3.774
    1HEX  H1U   4972   8.276  17.164   3.644
    1HEX  H1V   4973   8.071  17.129   3.789
    1HEX  H1W   4974   8.173  17.065   3.916
    1HEX  H1Y   4975   8.564  17.201   3.991
    1HEX  H1Z   4976   8.513  17.246   4.142
    1HEX  H20   4977   8.800   0.003   4.159
    1HEX  H21   4978   8.889  17.305   4.189
    1HEX  H22   4979   8.736  17.124   4.352
    1HEX  H23   4980   8.753  17.194   4.510
    1HEX  H24   4981   9.159  17.102   4.388
    1HEX  H25   4982   9.188  17.078   4.560
    1HEX  H26   4983   9.179  17.359   4.437
    1HEX  H27   4984   9.328  17.267   4.450
    1HEX  H29   4985   8.819   0.110   4.372
    1HEX  H2A   4986   8.946  17.433   4.393
    1HEX  H2B   4987   8.836  17.381   4.790
    1HEX  H2C   4988   8.768   0.102   4.794
    1HEX  H2D   4989   8.998   0.191   4.859
    1HEX  H2E   4990   9.058   0.027   4.861
    1HEX  H2G   4991   8.530  17.331   4.321
    1HEX  H2H   4992   8.589   0.046   4.372
    1HEX  H2I   4993   8.536  17.259   4.764
    1HEX  H2J   4994   8.390  17.171   4.722
    1HEX  H2K   4995   8.286  17.391   4.642
    1HEX  H2M   4996   8.429   0.035   4.700
    1STR  S00   4997   9.172  17.292   3.685
    1STR  S0E   4998   8.524   0.701   4.196
    1STR  S0M   4999   8.170  16.910   3.735
    1STR  S0X   5000   9.279  17.357   4.648
    1STR  S14   5001   8.892   0.092   5.041
    1STR  S1B   5002   8.308  17.420   4.884
    1HEX  C01   5003   8.991  17.289   8.036
    1HEX  C02   5004   8.930  17.290   8.176
    1HEX  C03   5005   8.779  17.291   8.167
    1HEX  O04   5006   8.717  17.192   8.128
    1HEX  O05   5007   8.725  17.408   8.204
    1HEX  C06   5008   8.583  17.422   8.210
    1HEX  C07   5009   8.533  17.413   8.356
    1HEX  C08   5010   8.579   0.101   8.428
    1HEX  O09   5011   8.517   0.222   8.388
    1HEX  C0A   5012   8.458   0.298   8.480
    1HEX  O0B   5013   8.403   0.257   8.582
    1HEX  C0C   5014   8.473   0.447   8.452
    1HEX  C0D   5015   8.474   0.529   8.582
    1HEX  C0F   5016   8.377  17.411   8.362
    1HEX  O0G   5017   8.329  17.292   8.300
    1HEX  C0H   5018   8.288  17.294   8.173
    1HEX  O0I   5019   8.264  17.394   8.106
    1HEX  C0J   5020   8.283  17.155   8.112
    1HEX  C0K   5021   8.164  17.076   8.168
    1HEX  C0N   5022   8.580  17.279   8.425
    1HEX  O0O   5023   8.717  17.259   8.464
    1HEX  C0P   5024   8.787  17.343   8.557
    1HEX  C0Q   5025   8.752  17.341   8.709
    1HEX  C0R   5026   8.788  17.203   8.767
    1HEX  O0S   5027   8.929  17.179   8.761
    1HEX  C0T   5028   9.002  17.171   8.874
    1HEX  O0U   5029   8.959  17.181   8.989
    1HEX  C0V   5030   9.149  17.149   8.846
    1HEX  C0W   5031   9.229  17.280   8.852
    1HEX  C0Y   5032   8.840   0.011   8.773
    1HEX  O0Z   5033   8.816   0.012   8.911
    1HEX  C10   5034   8.902   0.068   8.994
    1HEX  O11   5035   9.003   0.130   8.961
    1HEX  C12   5036   8.860   0.046   9.138
    1HEX  C13   5037   8.969   0.088   9.237
    1HEX  C15   5038   8.604  17.379   8.743
    1HEX  O16   5039   8.567  17.358   8.879
    1HEX  C17   5040   8.498  17.249   8.914
    1HEX  O18   5041   8.470  17.153   8.843
    1HEX  C19   5042   8.449  17.259   9.058
    1HEX  C1A   5043   8.367  17.387   9.076
    1HEX  H1D   5044   8.957  17.201   7.981
    1HEX  H1E   5045   8.958  17.376   7.979
    1HEX  H1F   5046   8.963  17.377   8.233
    1HEX  H1G   5047   8.960  17.202   8.232
    1HEX  H1H   5048   8.536  17.348   8.146
    1HEX  H1I   5049   8.556   0.078   8.167
    1HEX  H1J   5050   8.684   0.120   8.405
    1HEX  H1K   5051   8.571   0.088   8.534
    1HEX  H1M   5052   8.396   0.480   8.384
    1HEX  H1N   5053   8.569   0.461   8.401
    1HEX  H1O   5054   8.548   0.490   8.652
    1HEX  H1P   5055   8.377   0.522   8.632
    1HEX  H1R   5056   8.334   0.060   8.317
    1HEX  H1S   5057   8.343  17.411   8.465
    1HEX  H1T   5058   8.377  17.104   8.134
    1HEX  H1U   5059   8.276  17.164   8.004
    1HEX  H1V   5060   8.071  17.129   8.149
    1HEX  H1W   5061   8.173  17.065   8.276
    1HEX  H1Y   5062   8.564  17.201   8.351
    1HEX  H1Z   5063   8.513  17.246   8.502
    1HEX  H20   5064   8.800   0.003   8.519
    1HEX  H21   5065   8.889  17.305   8.549
    1HEX  H22   5066   8.736  17.124   8.712
    1HEX  H23   5067   8.753  17.194   8.870
    1HEX  H24   5068   9.159  17.102   8.748
    1HEX  H25   5069   9.188  17.078   8.920
    1HEX  H26   5070   9.179  17.359   8.797
    1HEX  H27   5071   9.328  17.267   8.810
    1HEX  H29   5072   8.819   0.110   8.732
    1HEX  H2A   5073   8.946  17.433   8.753
    1HEX  H2B   5074   8.836  17.381   9.150
    1HEX  H2C   5075   8.768   0.102   9.154
    1HEX  H2D   5076   8.998   0.191   9.219
    1HEX  H2E   5077   9.058   0.027   9.221
    1HEX  H2G   5078   8.530  17.331   8.681
    1HEX  H2H   5079   8.589   0.046   8.732
    1HEX  H2I   5080   8.536  17.259   9.124
    1HEX  H2J   5081   8.390  17.171   9.082
    1HEX  H2K   5082   8.286  17.391   9.002
    1HEX  H2M   5083   8.429   0.035   9.060
    1STR  S00   5084   9.172  17.292   8.045
    1STR  S0E   5085   8.523   0.701   8.556
    1STR  S0M   5086   8.170  16.910   8.095
    1STR  S0X   5087   9.279  17.357   9.008
    1STR  S14   5088   8.892   0.092   9.401
    1STR  S1B   5089   8.308  17.420   9.244
    1HEX  C01   5090   8.991  17.289  12.396
    1HEX  C02   5091   8.931  17.290  12.537
    1HEX  C03   5092   8.780  17.290  12.529
    1HEX  O04   5093   8.718  17.191  12.489
    1HEX  O05   5094   8.726  17.408  12.566
    1HEX  C06   5095   8.585  17.422  12.572
    1HEX  C07   5096   8.535  17.414  12.719
    1HEX  C08   5097   8.581   0.102  12.789
    1HEX  O09   5098   8.518   0.223  12.748
    1HEX  C0A   5099   8.458   0.299  12.841
    1HEX  O0B   5100   8.402   0.257  12.942
    1HEX  C0C   5101   8.473   0.447  12.812
    1HEX  C0D   5102   8.474   0.529  12.942
    1HEX  C0F   5103   8.380  17.410  12.724
    1HEX  O0G   5104   8.333  17.290  12.661
    1HEX  C0H   5105   8.290  17.293  12.534
    1HEX  O0I   5106   8.264  17.394  12.469
    1HEX  C0J   5107   8.283  17.155  12.473
    1HEX  C0K   5108   8.164  17.076  12.528
    1HEX  C0N   5109   8.586  17.282  12.789
    1HEX  O0O   5110   8.723  17.268  12.831
    1HEX  C0P   5111   8.791  17.351  12.926
    1HEX  C0Q   5112   8.755  17.346  13.078
    1HEX  C0R   5113   8.789  17.204  13.131
    1HEX  O0S   5114   8.929  17.179  13.124
    1HEX  C0T   5115   9.003  17.169  13.236
    1HEX  O0U   5116   8.960  17.176  13.352
    1HEX  C0V   5117   9.150  17.147  13.207
    1HEX  C0W   5118   9.229  17.278  13.212
    1HEX  C0Y   5119   8.843   0.011  13.152
    1HEX  O0Z   5120   8.809   0.007  13.290
    1HEX  C10   5121   8.885   0.058  13.386
    1HEX  O11   5122   8.990   0.121  13.370
    1HEX  C12   5123   8.822   0.031  13.522
    1HEX  C13   5124   8.903   0.070  13.647
    1HEX  C15   5125   8.607  17.383  13.108
    1HEX  O16   5126   8.565  17.361  13.242
    1HEX  C17   5127   8.497  17.251  13.276
    1HEX  O18   5128   8.472  17.155  13.203
    1HEX  C19   5129   8.448  17.259  13.419
    1HEX  C1A   5130   8.365  17.387  13.438
    1HEX  H1D   5131   8.957  17.201  12.341
    1HEX  H1E   5132   8.958  17.376  12.340
    1HEX  H1F   5133   8.964  17.377  12.593
    1HEX  H1G   5134   8.961  17.202  12.593
    1HEX  H1H   5135   8.537  17.348  12.508
    1HEX  H1I   5136   8.557   0.078  12.529
    1HEX  H1J   5137   8.685   0.121  12.767
    1HEX  H1K   5138   8.572   0.090  12.896
    1HEX  H1M   5139   8.396   0.481  12.744
    1HEX  H1N   5140   8.569   0.461  12.761
    1HEX  H1O   5141   8.548   0.491  13.012
    1HEX  H1P   5142   8.377   0.522  12.992
    1HEX  H1R   5143   8.335   0.059  12.679
    1HEX  H1S   5144   8.345  17.410  12.827
    1HEX  H1T   5145   8.377  17.104  12.494
    1HEX  H1U   5146   8.276  17.165  12.365
    1HEX  H1V   5147   8.071  17.130  12.509
    1HEX  H1W   5148   8.173  17.065  12.636
    1HEX  H1Y   5149   8.572  17.202  12.716
    1HEX  H1Z   5150   8.517  17.247  12.866
    1HEX  H20   5151   8.801   0.013  12.892
    1HEX  H21   5152   8.893  17.316  12.918
    1HEX  H22   5153   8.736  17.129  13.072
    1HEX  H23   5154   8.753  17.192  13.233
    1HEX  H24   5155   9.159  17.100  13.109
    1HEX  H25   5156   9.190  17.077  13.281
    1HEX  H26   5157   9.179  17.357  13.156
    1HEX  H27   5158   9.329  17.266  13.170
    1HEX  H29   5159   8.825   0.112  13.115
    1HEX  H2A   5160   8.950  17.432  13.139
    1HEX  H2B   5161   8.800  17.364  13.525
    1HEX  H2C   5162   8.726   0.083  13.523
    1HEX  H2D   5163   8.932   0.175  13.645
    1HEX  H2E   5164   8.995   0.012  13.654
    1HEX  H2G   5165   8.535  17.335  13.043
    1HEX  H2H   5166   8.592   0.050  13.096
    1HEX  H2I   5167   8.535  17.259  13.485
    1HEX  H2J   5168   8.389  17.170  13.442
    1HEX  H2K   5169   8.286  17.391  13.363
    1HEX  H2M   5170   8.427   0.035  13.422
    1STR  S00   5171   9.172  17.292  12.405
    1STR  S0E   5172   8.523   0.701  12.915
    1STR  S0M   5173   8.170  16.910  12.456
    1STR  S0X   5174   9.284  17.356  13.367
    1STR  S14   5175   8.816   0.054  13.808
    1STR  S1B   5176   8.311  17.419  13.607
    1HEX  C01   5177   8.991   4.208  16.756
    1HEX  C02   5178   8.930   4.210  16.896
    1HEX  C03   5179   8.779   4.210  16.887
    1HEX  O04   5180   8.717   4.111  16.848
    1HEX  O05   5181   8.725   4.328  16.924
    1HEX  C06   5182   8.583   4.342  16.930
    1HEX  C07   5183   8.533   4.333  17.076
    1HEX  C08   5184   8.580   4.461  17.148
    1HEX  O09   5185   8.517   4.582  17.107
    1HEX  C0A   5186   8.458   4.659  17.200
    1HEX  O0B   5187   8.403   4.617  17.302
    1HEX  C0C   5188   8.473   4.807  17.172
    1HEX  C0D   5189   8.474   4.889  17.302
    1HEX  C0F   5190   8.378   4.331  17.082
    1HEX  O0G   5191   8.329   4.212  17.020
    1HEX  C0H   5192   8.288   4.214  16.893
    1HEX  O0I   5193   8.264   4.314  16.826
    1HEX  C0J   5194   8.283   4.075  16.832
    1HEX  C0K   5195   8.164   3.996  16.888
    1HEX  C0N   5196   8.580   4.200  17.145
    1HEX  O0O   5197   8.717   4.180  17.184
    1HEX  C0P   5198   8.787   4.263  17.277
    1HEX  C0Q   5199   8.752   4.262  17.429
    1HEX  C0R   5200   8.788   4.123   0.047
    1HEX  O0S   5201   8.929   4.099   0.041
    1HEX  C0T   5202   9.002   4.092   0.154
    1HEX  O0U   5203   8.959   4.101   0.269
    1HEX  C0V   5204   9.149   4.069   0.126
    1HEX  C0W   5205   9.229   4.200   0.132
    1HEX  C0Y   5206   8.840   4.371   0.053
    1HEX  O0Z   5207   8.816   4.373   0.191
    1HEX  C10   5208   8.902   4.429   0.274
    1HEX  O11   5209   9.003   4.491   0.241
    1HEX  C12   5210   8.860   4.407   0.418
    1HEX  C13   5211   8.969   4.448   0.517
    1HEX  C15   5212   8.604   4.300   0.023
    1HEX  O16   5213   8.567   4.278   0.159
    1HEX  C17   5214   8.498   4.170   0.195
    1HEX  O18   5215   8.470   4.074   0.123
    1HEX  C19   5216   8.449   4.179   0.338
    1HEX  C1A   5217   8.367   4.307   0.356
    1HEX  H1D   5218   8.957   4.120  16.701
    1HEX  H1E   5219   8.958   4.295  16.699
    1HEX  H1F   5220   8.963   4.297  16.953
    1HEX  H1G   5221   8.960   4.122  16.952
    1HEX  H1H   5222   8.536   4.268  16.866
    1HEX  H1I   5223   8.556   4.438  16.887
    1HEX  H1J   5224   8.684   4.480  17.125
    1HEX  H1K   5225   8.571   4.449  17.254
    1HEX  H1M   5226   8.396   4.841  17.104
    1HEX  H1N   5227   8.569   4.821  17.121
    1HEX  H1O   5228   8.548   4.850  17.372
    1HEX  H1P   5229   8.377   4.882  17.352
    1HEX  H1R   5230   8.334   4.421  17.037
    1HEX  H1S   5231   8.343   4.332  17.185
    1HEX  H1T   5232   8.377   4.025  16.854
    1HEX  H1U   5233   8.276   4.085  16.724
    1HEX  H1V   5234   8.071   4.050  16.869
    1HEX  H1W   5235   8.173   3.985  16.996
    1HEX  H1Y   5236   8.564   4.121  17.071
    1HEX  H1Z   5237   8.513   4.166  17.222
    1HEX  H20   5238   8.800   4.363  17.239
    1HEX  H21   5239   8.889   4.225  17.269
    1HEX  H22   5240   8.736   4.044  17.432
    1HEX  H23   5241   8.753   4.114   0.150
    1HEX  H24   5242   9.159   4.022   0.028
    1HEX  H25   5243   9.188   3.999   0.200
    1HEX  H26   5244   9.179   4.279   0.077
    1HEX  H27   5245   9.329   4.188   0.090
    1HEX  H29   5246   8.819   4.470   0.012
    1HEX  H2A   5247   8.946   4.353   0.033
    1HEX  H2B   5248   8.835   4.301   0.430
    1HEX  H2C   5249   8.768   4.463   0.434
    1HEX  H2D   5250   8.998   4.552   0.499
    1HEX  H2E   5251   9.058   4.387   0.500
    1HEX  H2G   5252   8.530   4.252  17.401
    1HEX  H2H   5253   8.589   4.407   0.012
    1HEX  H2I   5254   8.536   4.180   0.404
    1HEX  H2J   5255   8.390   4.091   0.362
    1HEX  H2K   5256   8.287   4.311   0.282
    1HEX  H2M   5257   8.429   4.396   0.340
    1STR  S00   5258   9.172   4.211  16.765
    1STR  S0E   5259   8.524   5.061  17.276
    1STR  S0M   5260   8.170   3.830  16.815
    1STR  S0X   5261   9.279   4.277   0.289
    1STR  S14   5262   8.892   4.452   0.681
    1STR  S1B   5263   8.308   4.340   0.524
    1HEX  C01   5264   8.991   4.208   3.677
    1HEX  C02   5265   8.930   4.210   3.817
    1HEX  C03   5266   8.779   4.210   3.809
    1HEX  O04   5267   8.717   4.111   3.769
    1HEX  O05   5268   8.725   4.327   3.847
    1HEX  C06   5269   8.583   4.341   3.853
    1HEX  C07   5270   8.533   4.332   3.999
    1HEX  C08   5271   8.579   4.460   4.071
    1HEX  O09   5272   8.518   4.582   4.030
    1HEX  C0A   5273   8.459   4.658   4.122
    1HEX  O0B   5274   8.405   4.618   4.225
    1HEX  C0C   5275   8.473   4.807   4.092
    1HEX  C0D   5276   8.474   4.890   4.222
    1HEX  C0F   5277   8.377   4.330   4.003
    1HEX  O0G   5278   8.329   4.212   3.941
    1HEX  C0H   5279   8.288   4.214   3.814
    1HEX  O0I   5280   8.263   4.314   3.748
    1HEX  C0J   5281   8.282   4.075   3.754
    1HEX  C0K   5282   8.164   3.996   3.811
    1HEX  C0N   5283   8.580   4.198   4.067
    1HEX  O0O   5284   8.715   4.178   4.111
    1HEX  C0P   5285   8.785   4.263   4.203
    1HEX  C0Q   5286   8.751   4.265   4.356
    1HEX  C0R   5287   8.798   4.130   4.419
    1HEX  O0S   5288   8.940   4.113   4.406
    1HEX  C0T   5289   9.023   4.117   4.514
    1HEX  O0U   5290   8.988   4.133   4.630
    1HEX  C0V   5291   9.170   4.091   4.479
    1HEX  C0W   5292   9.262   4.216   4.481
    1HEX  C0Y   5293   8.836   4.380   4.415
    1HEX  O0Z   5294   8.809   4.388   4.553
    1HEX  C10   5295   8.903   4.427   4.637
    1HEX  O11   5296   9.013   4.473   4.607
    1HEX  C12   5297   8.858   4.408   4.781
    1HEX  C13   5298   8.965   4.450   4.881
    1HEX  C15   5299   8.601   4.299   4.387
    1HEX  O16   5300   8.546   4.271   4.516
    1HEX  C17   5301   8.450   4.177   4.526
    1HEX  O18   5302   8.443   4.076   4.456
    1HEX  C19   5303   8.343   4.208   4.631
    1HEX  C1A   5304   8.208   4.259   4.570
    1HEX  H1D   5305   8.957   4.120   3.622
    1HEX  H1E   5306   8.957   4.296   3.620
    1HEX  H1F   5307   8.964   4.297   3.874
    1HEX  H1G   5308   8.961   4.121   3.873
    1HEX  H1H   5309   8.536   4.268   3.788
    1HEX  H1I   5310   8.556   4.438   3.810
    1HEX  H1J   5311   8.684   4.479   4.048
    1HEX  H1K   5312   8.571   4.448   4.177
    1HEX  H1M   5313   8.395   4.839   4.024
    1HEX  H1N   5314   8.569   4.820   4.041
    1HEX  H1O   5315   8.548   4.852   4.292
    1HEX  H1P   5316   8.377   4.882   4.272
    1HEX  H1R   5317   8.334   4.420   3.959
    1HEX  H1S   5318   8.342   4.331   4.107
    1HEX  H1T   5319   8.377   4.025   3.775
    1HEX  H1U   5320   8.275   4.084   3.645
    1HEX  H1V   5321   8.071   4.049   3.792
    1HEX  H1W   5322   8.174   3.986   3.919
    1HEX  H1Y   5323   8.566   4.120   3.992
    1HEX  H1Z   5324   8.509   4.163   4.142
    1HEX  H20   5325   8.798   4.363   4.164
    1HEX  H21   5326   8.887   4.225   4.195
    1HEX  H22   5327   8.747   4.048   4.369
    1HEX  H23   5328   8.766   4.125   4.523
    1HEX  H24   5329   9.174   4.042   4.381
    1HEX  H25   5330   9.207   4.018   4.551
    1HEX  H26   5331   9.219   4.299   4.425
    1HEX  H27   5332   9.361   4.195   4.440
    1HEX  H29   5333   8.812   4.476   4.369
    1HEX  H2A   5334   8.942   4.363   4.396
    1HEX  H2B   5335   8.833   4.302   4.793
    1HEX  H2C   5336   8.765   4.464   4.794
    1HEX  H2D   5337   8.996   4.553   4.861
    1HEX  H2E   5338   9.054   4.388   4.867
    1HEX  H2G   5339   8.534   4.257   4.314
    1HEX  H2H   5340   8.587   4.406   4.379
    1HEX  H2I   5341   8.384   4.278   4.703
    1HEX  H2J   5342   8.324   4.116   4.686
    1HEX  H2K   5343   8.218   4.279   4.463
    1HEX  H2M   5344   8.179   4.353   4.617
    1STR  S00   5345   9.172   4.211   3.682
    1STR  S0E   5346   8.524   5.062   4.196
    1STR  S0M   5347   8.165   3.832   3.733
    1STR  S0X   5348   9.429   4.284   4.451
    1STR  S14   5349   8.890   4.452   5.046
    1STR  S1B   5350   8.048   4.280   4.479
    1HEX  C01   5351   8.991   4.208   8.036
    1HEX  C02   5352   8.931   4.210   8.177
    1HEX  C03   5353   8.780   4.210   8.168
    1HEX  O04   5354   8.718   4.112   8.129
    1HEX  O05   5355   8.726   4.328   8.206
    1HEX  C06   5356   8.585   4.342   8.212
    1HEX  C07   5357   8.534   4.333   8.358
    1HEX  C08   5358   8.580   4.461   8.430
    1HEX  O09   5359   8.518   4.582   8.389
    1HEX  C0A   5360   8.458   4.658   8.481
    1HEX  O0B   5361   8.403   4.617   8.583
    1HEX  C0C   5362   8.474   4.807   8.452
    1HEX  C0D   5363   8.474   4.889   8.582
    1HEX  C0F   5364   8.379   4.330   8.363
    1HEX  O0G   5365   8.331   4.212   8.301
    1HEX  C0H   5366   8.289   4.214   8.173
    1HEX  O0I   5367   8.264   4.315   8.108
    1HEX  C0J   5368   8.283   4.075   8.113
    1HEX  C0K   5369   8.164   3.996   8.168
    1HEX  C0N   5370   8.582   4.200   8.427
    1HEX  O0O   5371   8.719   4.179   8.468
    1HEX  C0P   5372   8.792   4.264   8.556
    1HEX  C0Q   5373   8.765   4.265   8.710
    1HEX  C0R   5374   8.818   4.133   8.771
    1HEX  O0S   5375   8.961   4.120   8.756
    1HEX  C0T   5376   9.046   4.127   8.862
    1HEX  O0U   5377   9.012   4.145   8.979
    1HEX  C0V   5378   9.193   4.100   8.827
    1HEX  C0W   5379   9.288   4.223   8.818
    1HEX  C0Y   5380   8.846   4.384   8.769
    1HEX  O0Z   5381   8.817   4.391   8.907
    1HEX  C10   5382   8.908   4.431   8.994
    1HEX  O11   5383   9.019   4.477   8.966
    1HEX  C12   5384   8.860   4.409   9.136
    1HEX  C13   5385   8.965   4.451   9.239
    1HEX  C15   5386   8.616   4.292   8.747
    1HEX  O16   5387   8.581   4.269   8.883
    1HEX  C17   5388   8.505   4.164   8.917
    1HEX  O18   5389   8.475   4.069   8.845
    1HEX  C19   5390   8.453   4.178   9.059
    1HEX  C1A   5391   8.370   4.306   9.073
    1HEX  H1D   5392   8.957   4.120   7.981
    1HEX  H1E   5393   8.958   4.296   7.980
    1HEX  H1F   5394   8.964   4.297   8.233
    1HEX  H1G   5395   8.961   4.121   8.233
    1HEX  H1H   5396   8.537   4.269   8.147
    1HEX  H1I   5397   8.557   4.439   8.169
    1HEX  H1J   5398   8.684   4.481   8.408
    1HEX  H1K   5399   8.572   4.448   8.537
    1HEX  H1M   5400   8.396   4.840   8.384
    1HEX  H1N   5401   8.569   4.820   8.401
    1HEX  H1O   5402   8.549   4.851   8.652
    1HEX  H1P   5403   8.377   4.882   8.632
    1HEX  H1R   5404   8.335   4.420   8.318
    1HEX  H1S   5405   8.344   4.331   8.466
    1HEX  H1T   5406   8.377   4.025   8.134
    1HEX  H1U   5407   8.276   4.085   8.004
    1HEX  H1V   5408   8.071   4.050   8.149
    1HEX  H1W   5409   8.173   3.985   8.276
    1HEX  H1Y   5410   8.567   4.121   8.353
    1HEX  H1Z   5411   8.513   4.166   8.503
    1HEX  H20   5412   8.803   4.364   8.517
    1HEX  H21   5413   8.894   4.227   8.544
    1HEX  H22   5414   8.769   4.048   8.723
    1HEX  H23   5415   8.790   4.126   8.877
    1HEX  H24   5416   9.193   4.045   8.733
    1HEX  H25   5417   9.230   4.031   8.902
    1HEX  H26   5418   9.240   4.310   8.774
    1HEX  H27   5419   9.379   4.202   8.762
    1HEX  H29   5420   8.818   4.479   8.723
    1HEX  H2A   5421   8.952   4.371   8.751
    1HEX  H2B   5422   8.835   4.304   9.147
    1HEX  H2C   5423   8.767   4.466   9.149
    1HEX  H2D   5424   8.996   4.554   9.221
    1HEX  H2E   5425   9.054   4.389   9.226
    1HEX  H2G   5426   8.546   4.238   8.685
    1HEX  H2H   5427   8.592   4.397   8.734
    1HEX  H2I   5428   8.537   4.179   9.128
    1HEX  H2J   5429   8.392   4.090   9.083
    1HEX  H2K   5430   8.290   4.308   8.999
    1HEX  H2M   5431   8.432   4.394   9.055
    1STR  S00   5432   9.172   4.210   8.043
    1STR  S0E   5433   8.523   5.062   8.556
    1STR  S0M   5434   8.170   3.830   8.096
    1STR  S0X   5435   9.457   4.277   8.765
    1STR  S14   5436   8.889   4.449   9.404
    1STR  S1B   5437   8.310   4.339   9.240
    1HEX  C01   5438   8.991   4.208  12.396
    1HEX  C02   5439   8.930   4.210  12.536
    1HEX  C03   5440   8.779   4.210  12.527
    1HEX  O04   5441   8.717   4.111  12.488
    1HEX  O05   5442   8.725   4.328  12.564
    1HEX  C06   5443   8.583   4.342  12.570
    1HEX  C07   5444   8.533   4.333  12.716
    1HEX  C08   5445   8.580   4.461  12.788
    1HEX  O09   5446   8.517   4.582  12.747
    1HEX  C0A   5447   8.458   4.659  12.840
    1HEX  O0B   5448   8.403   4.617  12.942
    1HEX  C0C   5449   8.473   4.807  12.812
    1HEX  C0D   5450   8.474   4.889  12.942
    1HEX  C0F   5451   8.378   4.331  12.722
    1HEX  O0G   5452   8.329   4.212  12.660
    1HEX  C0H   5453   8.288   4.214  12.533
    1HEX  O0I   5454   8.264   4.314  12.466
    1HEX  C0J   5455   8.283   4.075  12.472
    1HEX  C0K   5456   8.164   3.996  12.528
    1HEX  C0N   5457   8.580   4.200  12.785
    1HEX  O0O   5458   8.717   4.180  12.824
    1HEX  C0P   5459   8.787   4.263  12.917
    1HEX  C0Q   5460   8.752   4.262  13.069
    1HEX  C0R   5461   8.788   4.123  13.127
    1HEX  O0S   5462   8.929   4.099  13.121
    1HEX  C0T   5463   9.002   4.092  13.234
    1HEX  O0U   5464   8.959   4.101  13.349
    1HEX  C0V   5465   9.149   4.069  13.206
    1HEX  C0W   5466   9.229   4.200  13.212
    1HEX  C0Y   5467   8.840   4.371  13.133
    1HEX  O0Z   5468   8.816   4.373  13.271
    1HEX  C10   5469   8.902   4.429  13.354
    1HEX  O11   5470   9.003   4.491  13.321
    1HEX  C12   5471   8.860   4.407  13.498
    1HEX  C13   5472   8.969   4.448  13.597
    1HEX  C15   5473   8.604   4.300  13.103
    1HEX  O16   5474   8.567   4.278  13.239
    1HEX  C17   5475   8.498   4.170  13.275
    1HEX  O18   5476   8.470   4.074  13.203
    1HEX  C19   5477   8.449   4.179  13.418
    1HEX  C1A   5478   8.367   4.307  13.436
    1HEX  H1D   5479   8.957   4.120  12.341
    1HEX  H1E   5480   8.958   4.295  12.339
    1HEX  H1F   5481   8.963   4.297  12.593
    1HEX  H1G   5482   8.960   4.122  12.593
    1HEX  H1H   5483   8.536   4.268  12.506
    1HEX  H1I   5484   8.556   4.438  12.527
    1HEX  H1J   5485   8.684   4.480  12.765
    1HEX  H1K   5486   8.571   4.449  12.894
    1HEX  H1M   5487   8.396   4.841  12.744
    1HEX  H1N   5488   8.569   4.821  12.761
    1HEX  H1O   5489   8.548   4.850  13.012
    1HEX  H1P   5490   8.377   4.882  12.992
    1HEX  H1R   5491   8.334   4.421  12.677
    1HEX  H1S   5492   8.343   4.332  12.825
    1HEX  H1T   5493   8.377   4.025  12.494
    1HEX  H1U   5494   8.276   4.085  12.364
    1HEX  H1V   5495   8.071   4.050  12.509
    1HEX  H1W   5496   8.173   3.985  12.636
    1HEX  H1Y   5497   8.564   4.121  12.711
    1HEX  H1Z   5498   8.513   4.166  12.862
    1HEX  H20   5499   8.800   4.363  12.879
    1HEX  H21   5500   8.889   4.225  12.909
    1HEX  H22   5501   8.736   4.044  13.072
    1HEX  H23   5502   8.753   4.114  13.230
    1HEX  H24   5503   9.159   4.022  13.108
    1HEX  H25   5504   9.188   3.999  13.280
    1HEX  H26   5505   9.179   4.279  13.157
    1HEX  H27   5506   9.329   4.188  13.170
    1HEX  H29   5507   8.819   4.470  13.092
    1HEX  H2A   5508   8.946   4.353  13.113
    1HEX  H2B   5509   8.835   4.301  13.510
    1HEX  H2C   5510   8.768   4.463  13.514
    1HEX  H2D   5511   8.998   4.552  13.579
    1HEX  H2E   5512   9.058   4.387  13.580
    1HEX  H2G   5513   8.530   4.252  13.041
    1HEX  H2H   5514   8.589   4.407  13.092
    1HEX  H2I   5515   8.536   4.180  13.484
    1HEX  H2J   5516   8.390   4.091  13.442
    1HEX  H2K   5517   8.287   4.311  13.362
    1HEX  H2M   5518   8.429   4.396  13.420
    1STR  S00   5519   9.172   4.211  12.405
    1STR  S0E   5520   8.523   5.061  12.916
    1STR  S0M   5521   8.170   3.830  12.455
    1STR  S0X   5522   9.279   4.277  13.369
    1STR  S14   5523   8.892   4.452  13.761
    1STR  S1B   5524   8.308   4.340  13.604
    1HEX  C01   5525   8.991   8.569  16.756
    1HEX  C02   5526   8.930   8.570  16.896
    1HEX  C03   5527   8.779   8.571  16.887
    1HEX  O04   5528   8.717   8.472  16.848
    1HEX  O05   5529   8.725   8.688  16.924
    1HEX  C06   5530   8.583   8.702  16.930
    1HEX  C07   5531   8.533   8.693  17.076
    1HEX  C08   5532   8.579   8.822  17.148
    1HEX  O09   5533   8.517   8.943  17.108
    1HEX  C0A   5534   8.458   9.019  17.200
    1HEX  O0B   5535   8.403   8.977  17.303
    1HEX  C0C   5536   8.473   9.167  17.172
    1HEX  C0D   5537   8.474   9.249  17.302
    1HEX  C0F   5538   8.377   8.691  17.082
    1HEX  O0G   5539   8.329   8.572  17.020
    1HEX  C0H   5540   8.288   8.574  16.893
    1HEX  O0I   5541   8.264   8.674  16.826
    1HEX  C0J   5542   8.283   8.435  16.832
    1HEX  C0K   5543   8.164   8.356  16.888
    1HEX  C0N   5544   8.580   8.560  17.145
    1HEX  O0O   5545   8.717   8.540  17.184
    1HEX  C0P   5546   8.787   8.623  17.277
    1HEX  C0Q   5547   8.752   8.622  17.429
    1HEX  C0R   5548   8.788   8.483   0.047
    1HEX  O0S   5549   8.929   8.459   0.041
    1HEX  C0T   5550   9.002   8.452   0.154
    1HEX  O0U   5551   8.959   8.461   0.269
    1HEX  C0V   5552   9.149   8.429   0.126
    1HEX  C0W   5553   9.229   8.560   0.132
    1HEX  C0Y   5554   8.840   8.731   0.053
    1HEX  O0Z   5555   8.816   8.733   0.191
    1HEX  C10   5556   8.902   8.789   0.274
    1HEX  O11   5557   9.003   8.851   0.242
    1HEX  C12   5558   8.860   8.767   0.418
    1HEX  C13   5559   8.969   8.808   0.517
    1HEX  C15   5560   8.604   8.660   0.023
    1HEX  O16   5561   8.567   8.638   0.159
    1HEX  C17   5562   8.498   8.530   0.194
    1HEX  O18   5563   8.470   8.434   0.122
    1HEX  C19   5564   8.449   8.540   0.338
    1HEX  C1A   5565   8.367   8.667   0.356
    1HEX  H1D   5566   8.957   8.481  16.701
    1HEX  H1E   5567   8.958   8.656  16.699
    1HEX  H1F   5568   8.963   8.657  16.953
    1HEX  H1G   5569   8.960   8.482  16.953
    1HEX  H1H   5570   8.536   8.629  16.866
    1HEX  H1I   5571   8.556   8.799  16.887
    1HEX  H1J   5572   8.684   8.841  17.125
    1HEX  H1K   5573   8.571   8.809  17.254
    1HEX  H1M   5574   8.396   9.201  17.104
    1HEX  H1N   5575   8.569   9.181  17.121
    1HEX  H1O   5576   8.548   9.211  17.372
    1HEX  H1P   5577   8.377   9.242  17.352
    1HEX  H1R   5578   8.334   8.781  17.037
    1HEX  H1S   5579   8.343   8.692  17.185
    1HEX  H1T   5580   8.377   8.385  16.854
    1HEX  H1U   5581   8.276   8.445  16.724
    1HEX  H1V   5582   8.071   8.410  16.869
    1HEX  H1W   5583   8.173   8.345  16.996
    1HEX  H1Y   5584   8.564   8.481  17.071
    1HEX  H1Z   5585   8.513   8.526  17.222
    1HEX  H20   5586   8.800   8.724  17.239
    1HEX  H21   5587   8.889   8.585  17.269
    1HEX  H22   5588   8.736   8.404  17.432
    1HEX  H23   5589   8.753   8.474   0.150
    1HEX  H24   5590   9.159   8.382   0.028
    1HEX  H25   5591   9.188   8.358   0.200
    1HEX  H26   5592   9.179   8.639   0.077
    1HEX  H27   5593   9.329   8.547   0.090
    1HEX  H29   5594   8.819   8.830   0.012
    1HEX  H2A   5595   8.946   8.713   0.033
    1HEX  H2B   5596   8.836   8.661   0.430
    1HEX  H2C   5597   8.768   8.823   0.434
    1HEX  H2D   5598   8.998   8.911   0.500
    1HEX  H2E   5599   9.058   8.747   0.500
    1HEX  H2G   5600   8.530   8.612  17.401
    1HEX  H2H   5601   8.589   8.767   0.012
    1HEX  H2I   5602   8.536   8.540   0.404
    1HEX  H2J   5603   8.390   8.451   0.362
    1HEX  H2K   5604   8.287   8.671   0.282
    1HEX  H2M   5605   8.429   8.756   0.340
    1STR  S00   5606   9.172   8.572  16.765
    1STR  S0E   5607   8.523   9.422  17.276
    1STR  S0M   5608   8.170   8.190  16.815
    1STR  S0X   5609   9.279   8.637   0.288
    1STR  S14   5610   8.892   8.812   0.681
    1STR  S1B   5611   8.308   8.700   0.524
    1HEX  C01   5612   8.991   8.569   3.676
    1HEX  C02   5613   8.930   8.570   3.817
    1HEX  C03   5614   8.779   8.570   3.808
    1HEX  O04   5615   8.718   8.471   3.768
    1HEX  O05   5616   8.725   8.687   3.846
    1HEX  C06   5617   8.583   8.701   3.851
    1HEX  C07   5618   8.532   8.693   3.997
    1HEX  C08   5619   8.579   8.821   4.068
    1HEX  O09   5620   8.517   8.942   4.028
    1HEX  C0A   5621   8.459   9.019   4.121
    1HEX  O0B   5622   8.405   8.978   4.225
    1HEX  C0C   5623   8.473   9.167   4.092
    1HEX  C0D   5624   8.474   9.250   4.221
    1HEX  C0F   5625   8.376   8.691   4.002
    1HEX  O0G   5626   8.329   8.572   3.940
    1HEX  C0H   5627   8.288   8.574   3.812
    1HEX  O0I   5628   8.266   8.675   3.746
    1HEX  C0J   5629   8.282   8.435   3.752
    1HEX  C0K   5630   8.163   8.356   3.809
    1HEX  C0N   5631   8.578   8.559   4.066
    1HEX  O0O   5632   8.714   8.539   4.108
    1HEX  C0P   5633   8.781   8.623   4.203
    1HEX  C0Q   5634   8.743   8.623   4.355
    1HEX  C0R   5635   8.778   8.485   4.416
    1HEX  O0S   5636   8.918   8.459   4.407
    1HEX  C0T   5637   8.995   8.453   4.518
    1HEX  O0U   5638   8.955   8.464   4.634
    1HEX  C0V   5639   9.142   8.430   4.486
    1HEX  C0W   5640   9.224   8.560   4.493
    1HEX  C0Y   5641   8.833   8.732   4.417
    1HEX  O0Z   5642   8.808   8.735   4.556
    1HEX  C10   5643   8.898   8.788   4.637
    1HEX  O11   5644   9.000   8.848   4.603
    1HEX  C12   5645   8.858   8.766   4.782
    1HEX  C13   5646   8.969   8.808   4.879
    1HEX  C15   5647   8.594   8.665   4.386
    1HEX  O16   5648   8.541   8.643   4.516
    1HEX  C17   5649   8.445   8.550   4.533
    1HEX  O18   5650   8.430   8.450   4.463
    1HEX  C19   5651   8.349   8.580   4.649
    1HEX  C1A   5652   8.216   8.650   4.605
    1HEX  H1D   5653   8.957   8.481   3.622
    1HEX  H1E   5654   8.957   8.656   3.620
    1HEX  H1F   5655   8.963   8.657   3.873
    1HEX  H1G   5656   8.961   8.482   3.873
    1HEX  H1H   5657   8.536   8.627   3.787
    1HEX  H1I   5658   8.556   8.798   3.808
    1HEX  H1J   5659   8.684   8.839   4.046
    1HEX  H1K   5660   8.571   8.809   4.175
    1HEX  H1M   5661   8.395   9.200   4.024
    1HEX  H1N   5662   8.569   9.181   4.041
    1HEX  H1O   5663   8.548   9.212   4.291
    1HEX  H1P   5664   8.377   9.242   4.272
    1HEX  H1R   5665   8.333   8.781   3.957
    1HEX  H1S   5666   8.341   8.692   4.105
    1HEX  H1T   5667   8.376   8.385   3.774
    1HEX  H1U   5668   8.275   8.444   3.644
    1HEX  H1V   5669   8.070   8.410   3.790
    1HEX  H1W   5670   8.173   8.346   3.917
    1HEX  H1Y   5671   8.564   8.480   3.992
    1HEX  H1Z   5672   8.509   8.525   4.143
    1HEX  H20   5673   8.795   8.723   4.166
    1HEX  H21   5674   8.883   8.585   4.198
    1HEX  H22   5675   8.724   8.406   4.362
    1HEX  H23   5676   8.742   8.479   4.519
    1HEX  H24   5677   9.150   8.384   4.388
    1HEX  H25   5678   9.182   8.358   4.558
    1HEX  H26   5679   9.175   8.640   4.437
    1HEX  H27   5680   9.323   8.546   4.451
    1HEX  H29   5681   8.813   8.831   4.376
    1HEX  H2A   5682   8.938   8.712   4.398
    1HEX  H2B   5683   8.835   8.660   4.793
    1HEX  H2C   5684   8.766   8.822   4.798
    1HEX  H2D   5685   8.998   8.911   4.860
    1HEX  H2E   5686   9.058   8.747   4.861
    1HEX  H2G   5687   8.525   8.623   4.315
    1HEX  H2H   5688   8.584   8.772   4.376
    1HEX  H2I   5689   8.402   8.637   4.725
    1HEX  H2J   5690   8.325   8.485   4.694
    1HEX  H2K   5691   8.202   8.648   4.496
    1HEX  H2M   5692   8.215   8.755   4.636
    1STR  S00   5693   9.172   8.573   3.685
    1STR  S0E   5694   8.522   9.423   4.197
    1STR  S0M   5695   8.171   8.191   3.735
    1STR  S0X   5696   9.279   8.637   4.647
    1STR  S14   5697   8.892   8.814   5.043
    1STR  S1B   5698   8.055   8.710   4.536
    1HEX  C01   5699   8.991   8.569   8.036
    1HEX  C02   5700   8.930   8.570   8.176
    1HEX  C03   5701   8.779   8.571   8.167
    1HEX  O04   5702   8.717   8.472   8.128
    1HEX  O05   5703   8.725   8.688   8.204
    1HEX  C06   5704   8.583   8.702   8.210
    1HEX  C07   5705   8.533   8.693   8.356
    1HEX  C08   5706   8.579   8.822   8.428
    1HEX  O09   5707   8.517   8.943   8.388
    1HEX  C0A   5708   8.458   9.019   8.480
    1HEX  O0B   5709   8.403   8.977   8.583
    1HEX  C0C   5710   8.473   9.167   8.452
    1HEX  C0D   5711   8.474   9.249   8.582
    1HEX  C0F   5712   8.377   8.691   8.362
    1HEX  O0G   5713   8.329   8.572   8.300
    1HEX  C0H   5714   8.288   8.574   8.173
    1HEX  O0I   5715   8.264   8.674   8.106
    1HEX  C0J   5716   8.283   8.435   8.112
    1HEX  C0K   5717   8.164   8.356   8.168
    1HEX  C0N   5718   8.580   8.560   8.425
    1HEX  O0O   5719   8.717   8.540   8.464
    1HEX  C0P   5720   8.787   8.623   8.557
    1HEX  C0Q   5721   8.752   8.622   8.709
    1HEX  C0R   5722   8.788   8.483   8.767
    1HEX  O0S   5723   8.929   8.459   8.761
    1HEX  C0T   5724   9.002   8.452   8.874
    1HEX  O0U   5725   8.959   8.461   8.989
    1HEX  C0V   5726   9.149   8.429   8.846
    1HEX  C0W   5727   9.229   8.560   8.852
    1HEX  C0Y   5728   8.840   8.731   8.773
    1HEX  O0Z   5729   8.816   8.733   8.911
    1HEX  C10   5730   8.902   8.789   8.994
    1HEX  O11   5731   9.003   8.851   8.962
    1HEX  C12   5732   8.860   8.767   9.138
    1HEX  C13   5733   8.969   8.808   9.237
    1HEX  C15   5734   8.604   8.660   8.743
    1HEX  O16   5735   8.567   8.638   8.879
    1HEX  C17   5736   8.498   8.530   8.914
    1HEX  O18   5737   8.470   8.434   8.842
    1HEX  C19   5738   8.449   8.540   9.058
    1HEX  C1A   5739   8.367   8.667   9.076
    1HEX  H1D   5740   8.957   8.481   7.981
    1HEX  H1E   5741   8.958   8.656   7.979
    1HEX  H1F   5742   8.963   8.657   8.233
    1HEX  H1G   5743   8.960   8.482   8.233
    1HEX  H1H   5744   8.536   8.629   8.146
    1HEX  H1I   5745   8.556   8.799   8.167
    1HEX  H1J   5746   8.684   8.841   8.405
    1HEX  H1K   5747   8.571   8.809   8.534
    1HEX  H1M   5748   8.396   9.201   8.384
    1HEX  H1N   5749   8.569   9.181   8.401
    1HEX  H1O   5750   8.548   9.211   8.652
    1HEX  H1P   5751   8.377   9.242   8.632
    1HEX  H1R   5752   8.334   8.781   8.317
    1HEX  H1S   5753   8.343   8.692   8.465
    1HEX  H1T   5754   8.377   8.385   8.134
    1HEX  H1U   5755   8.276   8.445   8.004
    1HEX  H1V   5756   8.071   8.410   8.149
    1HEX  H1W   5757   8.173   8.345   8.276
    1HEX  H1Y   5758   8.564   8.481   8.351
    1HEX  H1Z   5759   8.513   8.526   8.502
    1HEX  H20   5760   8.800   8.724   8.519
    1HEX  H21   5761   8.889   8.585   8.549
    1HEX  H22   5762   8.736   8.404   8.712
    1HEX  H23   5763   8.753   8.474   8.870
    1HEX  H24   5764   9.159   8.382   8.748
    1HEX  H25   5765   9.188   8.358   8.920
    1HEX  H26   5766   9.179   8.639   8.797
    1HEX  H27   5767   9.329   8.547   8.810
    1HEX  H29   5768   8.819   8.830   8.732
    1HEX  H2A   5769   8.946   8.713   8.753
    1HEX  H2B   5770   8.836   8.661   9.150
    1HEX  H2C   5771   8.768   8.823   9.154
    1HEX  H2D   5772   8.998   8.911   9.220
    1HEX  H2E   5773   9.058   8.747   9.220
    1HEX  H2G   5774   8.530   8.612   8.681
    1HEX  H2H   5775   8.589   8.767   8.732
    1HEX  H2I   5776   8.536   8.540   9.124
    1HEX  H2J   5777   8.390   8.451   9.082
    1HEX  H2K   5778   8.287   8.671   9.002
    1HEX  H2M   5779   8.429   8.756   9.060
    1STR  S00   5780   9.172   8.572   8.045
    1STR  S0E   5781   8.523   9.422   8.556
    1STR  S0M   5782   8.170   8.190   8.095
    1STR  S0X   5783   9.279   8.637   9.008
    1STR  S14   5784   8.892   8.812   9.401
    1STR  S1B   5785   8.308   8.700   9.244
    1HEX  C01   5786   8.991   8.569  12.396
    1HEX  C02   5787   8.930   8.570  12.536
    1HEX  C03   5788   8.779   8.571  12.527
    1HEX  O04   5789   8.717   8.472  12.488
    1HEX  O05   5790   8.725   8.688  12.564
    1HEX  C06   5791   8.583   8.702  12.570
    1HEX  C07   5792   8.533   8.693  12.716
    1HEX  C08   5793   8.579   8.822  12.788
    1HEX  O09   5794   8.517   8.943  12.748
    1HEX  C0A   5795   8.458   9.019  12.840
    1HEX  O0B   5796   8.403   8.977  12.943
    1HEX  C0C   5797   8.473   9.167  12.812
    1HEX  C0D   5798   8.474   9.249  12.942
    1HEX  C0F   5799   8.377   8.691  12.722
    1HEX  O0G   5800   8.329   8.572  12.660
    1HEX  C0H   5801   8.288   8.574  12.533
    1HEX  O0I   5802   8.264   8.674  12.466
    1HEX  C0J   5803   8.283   8.435  12.472
    1HEX  C0K   5804   8.164   8.356  12.528
    1HEX  C0N   5805   8.580   8.560  12.785
    1HEX  O0O   5806   8.717   8.540  12.824
    1HEX  C0P   5807   8.787   8.623  12.917
    1HEX  C0Q   5808   8.752   8.622  13.069
    1HEX  C0R   5809   8.788   8.483  13.127
    1HEX  O0S   5810   8.929   8.459  13.121
    1HEX  C0T   5811   9.002   8.452  13.234
    1HEX  O0U   5812   8.959   8.461  13.349
    1HEX  C0V   5813   9.149   8.429  13.206
    1HEX  C0W   5814   9.229   8.560  13.212
    1HEX  C0Y   5815   8.840   8.731  13.133
    1HEX  O0Z   5816   8.816   8.733  13.271
    1HEX  C10   5817   8.902   8.789  13.354
    1HEX  O11   5818   9.003   8.851  13.322
    1HEX  C12   5819   8.860   8.767  13.498
    1HEX  C13   5820   8.969   8.808  13.597
    1HEX  C15   5821   8.604   8.660  13.103
    1HEX  O16   5822   8.567   8.638  13.239
    1HEX  C17   5823   8.498   8.530  13.274
    1HEX  O18   5824   8.470   8.434  13.202
    1HEX  C19   5825   8.449   8.540  13.418
    1HEX  C1A   5826   8.367   8.667  13.436
    1HEX  H1D   5827   8.957   8.481  12.341
    1HEX  H1E   5828   8.958   8.656  12.339
    1HEX  H1F   5829   8.963   8.657  12.593
    1HEX  H1G   5830   8.960   8.482  12.593
    1HEX  H1H   5831   8.536   8.629  12.506
    1HEX  H1I   5832   8.556   8.799  12.527
    1HEX  H1J   5833   8.684   8.841  12.765
    1HEX  H1K   5834   8.571   8.809  12.894
    1HEX  H1M   5835   8.396   9.201  12.744
    1HEX  H1N   5836   8.569   9.181  12.761
    1HEX  H1O   5837   8.548   9.211  13.012
    1HEX  H1P   5838   8.377   9.242  12.992
    1HEX  H1R   5839   8.334   8.781  12.677
    1HEX  H1S   5840   8.343   8.692  12.825
    1HEX  H1T   5841   8.377   8.385  12.494
    1HEX  H1U   5842   8.276   8.445  12.364
    1HEX  H1V   5843   8.071   8.410  12.509
    1HEX  H1W   5844   8.173   8.345  12.636
    1HEX  H1Y   5845   8.564   8.481  12.711
    1HEX  H1Z   5846   8.513   8.526  12.862
    1HEX  H20   5847   8.800   8.724  12.879
    1HEX  H21   5848   8.889   8.585  12.909
    1HEX  H22   5849   8.736   8.404  13.072
    1HEX  H23   5850   8.753   8.474  13.230
    1HEX  H24   5851   9.159   8.382  13.108
    1HEX  H25   5852   9.188   8.358  13.280
    1HEX  H26   5853   9.179   8.639  13.157
    1HEX  H27   5854   9.329   8.547  13.170
    1HEX  H29   5855   8.819   8.830  13.092
    1HEX  H2A   5856   8.946   8.713  13.113
    1HEX  H2B   5857   8.836   8.661  13.510
    1HEX  H2C   5858   8.768   8.823  13.514
    1HEX  H2D   5859   8.998   8.911  13.580
    1HEX  H2E   5860   9.058   8.747  13.580
    1HEX  H2G   5861   8.530   8.612  13.041
    1HEX  H2H   5862   8.589   8.767  13.092
    1HEX  H2I   5863   8.536   8.540  13.484
    1HEX  H2J   5864   8.390   8.451  13.442
    1HEX  H2K   5865   8.287   8.671  13.362
    1HEX  H2M   5866   8.429   8.756  13.420
    1STR  S00   5867   9.172   8.572  12.405
    1STR  S0E   5868   8.523   9.422  12.916
    1STR  S0M   5869   8.170   8.190  12.455
    1STR  S0X   5870   9.279   8.637  13.368
    1STR  S14   5871   8.892   8.812  13.761
    1STR  S1B   5872   8.308   8.700  13.604
    1HEX  C01   5873   8.991  12.929  16.756
    1HEX  C02   5874   8.930  12.930  16.896
    1HEX  C03   5875   8.779  12.931  16.887
    1HEX  O04   5876   8.717  12.832  16.848
    1HEX  O05   5877   8.725  13.048  16.924
    1HEX  C06   5878   8.583  13.062  16.930
    1HEX  C07   5879   8.533  13.053  17.076
    1HEX  C08   5880   8.580  13.182  17.148
    1HEX  O09   5881   8.517  13.303  17.107
    1HEX  C0A   5882   8.458  13.379  17.200
    1HEX  O0B   5883   8.403  13.337  17.302
    1HEX  C0C   5884   8.473  13.528  17.172
    1HEX  C0D   5885   8.474  13.610  17.302
    1HEX  C0F   5886   8.378  13.051  17.082
    1HEX  O0G   5887   8.329  12.932  17.020
    1HEX  C0H   5888   8.288  12.934  16.893
    1HEX  O0I   5889   8.264  13.035  16.826
    1HEX  C0J   5890   8.283  12.795  16.832
    1HEX  C0K   5891   8.164  12.716  16.888
    1HEX  C0N   5892   8.580  12.920  17.145
    1HEX  O0O   5893   8.717  12.900  17.184
    1HEX  C0P   5894   8.787  12.983  17.277
    1HEX  C0Q   5895   8.752  12.982  17.429
    1HEX  C0R   5896   8.788  12.843   0.047
    1HEX  O0S   5897   8.929  12.819   0.041
    1HEX  C0T   5898   9.002  12.812   0.154
    1HEX  O0U   5899   8.959  12.822   0.269
    1HEX  C0V   5900   9.149  12.789   0.126
    1HEX  C0W   5901   9.229  12.920   0.132
    1HEX  C0Y   5902   8.840  13.091   0.053
    1HEX  O0Z   5903   8.816  13.093   0.191
    1HEX  C10   5904   8.902  13.149   0.274
    1HEX  O11   5905   9.003  13.211   0.241
    1HEX  C12   5906   8.860  13.127   0.418
    1HEX  C13   5907   8.969  13.168   0.517
    1HEX  C15   5908   8.604  13.020   0.023
    1HEX  O16   5909   8.567  12.998   0.159
    1HEX  C17   5910   8.498  12.890   0.195
    1HEX  O18   5911   8.470  12.794   0.123
    1HEX  C19   5912   8.449  12.900   0.338
    1HEX  C1A   5913   8.367  13.028   0.356
    1HEX  H1D   5914   8.957  12.841  16.701
    1HEX  H1E   5915   8.958  13.016  16.699
    1HEX  H1F   5916   8.963  13.018  16.953
    1HEX  H1G   5917   8.960  12.842  16.953
    1HEX  H1H   5918   8.536  12.989  16.866
    1HEX  H1I   5919   8.556  13.159  16.887
    1HEX  H1J   5920   8.684  13.201  17.125
    1HEX  H1K   5921   8.571  13.169  17.254
    1HEX  H1M   5922   8.396  13.561  17.104
    1HEX  H1N   5923   8.569  13.541  17.121
    1HEX  H1O   5924   8.548  13.571  17.372
    1HEX  H1P   5925   8.377  13.602  17.352
    1HEX  H1R   5926   8.334  13.141  17.037
    1HEX  H1S   5927   8.343  13.052  17.185
    1HEX  H1T   5928   8.377  12.745  16.854
    1HEX  H1U   5929   8.276  12.805  16.724
    1HEX  H1V   5930   8.071  12.770  16.869
    1HEX  H1W   5931   8.173  12.705  16.996
    1HEX  H1Y   5932   8.564  12.841  17.071
    1HEX  H1Z   5933   8.513  12.886  17.222
    1HEX  H20   5934   8.800  13.084  17.239
    1HEX  H21   5935   8.889  12.945  17.269
    1HEX  H22   5936   8.736  12.764  17.432
    1HEX  H23   5937   8.753  12.834   0.150
    1HEX  H24   5938   9.159  12.742   0.028
    1HEX  H25   5939   9.188  12.719   0.200
    1HEX  H26   5940   9.179  12.999   0.077
    1HEX  H27   5941   9.329  12.908   0.090
    1HEX  H29   5942   8.819  13.191   0.012
    1HEX  H2A   5943   8.946  13.073   0.033
    1HEX  H2B   5944   8.835  13.021   0.430
    1HEX  H2C   5945   8.768  13.183   0.434
    1HEX  H2D   5946   8.998  13.272   0.500
    1HEX  H2E   5947   9.058  13.107   0.500
    1HEX  H2G   5948   8.530  12.972  17.401
    1HEX  H2H   5949   8.589  13.127   0.012
    1HEX  H2I   5950   8.536  12.900   0.404
    1HEX  H2J   5951   8.390  12.811   0.362
    1HEX  H2K   5952   8.287  13.032   0.282
    1HEX  H2M   5953   8.429  13.116   0.340
    1STR  S00   5954   9.172  12.932  16.765
    1STR  S0E   5955   8.523  13.782  17.276
    1STR  S0M   5956   8.170  12.550  16.815
    1STR  S0X   5957   9.279  12.997   0.289
    1STR  S14   5958   8.892  13.172   0.681
    1STR  S1B   5959   8.308  13.060   0.524
    1HEX  C01   5960   8.991  12.929   3.676
    1HEX  C02   5961   8.930  12.931   3.816
    1HEX  C03   5962   8.779  12.931   3.807
    1HEX  O04   5963   8.717  12.832   3.768
    1HEX  O05   5964   8.725  13.048   3.844
    1HEX  C06   5965   8.583  13.062   3.850
    1HEX  C07   5966   8.533  13.053   3.996
    1HEX  C08   5967   8.580  13.182   4.068
    1HEX  O09   5968   8.517  13.303   4.027
    1HEX  C0A   5969   8.458  13.379   4.120
    1HEX  O0B   5970   8.403  13.337   4.222
    1HEX  C0C   5971   8.473  13.528   4.092
    1HEX  C0D   5972   8.474  13.610   4.222
    1HEX  C0F   5973   8.378  13.051   4.002
    1HEX  O0G   5974   8.329  12.932   3.940
    1HEX  C0H   5975   8.288  12.934   3.813
    1HEX  O0I   5976   8.264  13.035   3.746
    1HEX  C0J   5977   8.283  12.795   3.752
    1HEX  C0K   5978   8.164  12.716   3.808
    1HEX  C0N   5979   8.580  12.920   4.065
    1HEX  O0O   5980   8.717  12.900   4.104
    1HEX  C0P   5981   8.787  12.983   4.197
    1HEX  C0Q   5982   8.752  12.982   4.349
    1HEX  C0R   5983   8.788  12.843   4.407
    1HEX  O0S   5984   8.929  12.819   4.401
    1HEX  C0T   5985   9.002  12.812   4.514
    1HEX  O0U   5986   8.959  12.821   4.629
    1HEX  C0V   5987   9.149  12.789   4.486
    1HEX  C0W   5988   9.229  12.920   4.492
    1HEX  C0Y   5989   8.840  13.091   4.413
    1HEX  O0Z   5990   8.816  13.093   4.551
    1HEX  C10   5991   8.902  13.149   4.634
    1HEX  O11   5992   9.003  13.211   4.601
    1HEX  C12   5993   8.860  13.127   4.778
    1HEX  C13   5994   8.969  13.168   4.877
    1HEX  C15   5995   8.604  13.020   4.383
    1HEX  O16   5996   8.567  12.998   4.519
    1HEX  C17   5997   8.498  12.890   4.555
    1HEX  O18   5998   8.470  12.794   4.483
    1HEX  C19   5999   8.449  12.900   4.698
    1HEX  C1A   6000   8.367  13.028   4.716
    1HEX  H1D   6001   8.957  12.841   3.621
    1HEX  H1E   6002   8.958  13.016   3.619
    1HEX  H1F   6003   8.963  13.018   3.873
    1HEX  H1G   6004   8.960  12.842   3.873
    1HEX  H1H   6005   8.536  12.989   3.786
    1HEX  H1I   6006   8.556  13.159   3.807
    1HEX  H1J   6007   8.684  13.201   4.045
    1HEX  H1K   6008   8.571  13.169   4.174
    1HEX  H1M   6009   8.396  13.561   4.024
    1HEX  H1N   6010   8.569  13.541   4.041
    1HEX  H1O   6011   8.548  13.571   4.292
    1HEX  H1P   6012   8.377  13.602   4.272
    1HEX  H1R   6013   8.334  13.141   3.957
    1HEX  H1S   6014   8.343  13.052   4.105
    1HEX  H1T   6015   8.377  12.745   3.774
    1HEX  H1U   6016   8.276  12.805   3.644
    1HEX  H1V   6017   8.071  12.770   3.789
    1HEX  H1W   6018   8.173  12.705   3.916
    1HEX  H1Y   6019   8.564  12.841   3.991
    1HEX  H1Z   6020   8.513  12.886   4.142
    1HEX  H20   6021   8.800  13.084   4.159
    1HEX  H21   6022   8.889  12.945   4.189
    1HEX  H22   6023   8.736  12.764   4.352
    1HEX  H23   6024   8.753  12.834   4.510
    1HEX  H24   6025   9.159  12.742   4.388
    1HEX  H25   6026   9.188  12.719   4.560
    1HEX  H26   6027   9.179  13.000   4.437
    1HEX  H27   6028   9.329  12.908   4.450
    1HEX  H29   6029   8.819  13.191   4.372
    1HEX  H2A   6030   8.946  13.073   4.393
    1HEX  H2B   6031   8.835  13.021   4.790
    1HEX  H2C   6032   8.768  13.183   4.794
    1HEX  H2D   6033   8.998  13.272   4.860
    1HEX  H2E   6034   9.058  13.107   4.860
    1HEX  H2G   6035   8.530  12.972   4.321
    1HEX  H2H   6036   8.589  13.127   4.372
    1HEX  H2I   6037   8.536  12.900   4.764
    1HEX  H2J   6038   8.390  12.811   4.722
    1HEX  H2K   6039   8.287  13.032   4.642
    1HEX  H2M   6040   8.429  13.116   4.700
    1STR  S00   6041   9.172  12.932   3.685
    1STR  S0E   6042   8.523  13.782   4.196
    1STR  S0M   6043   8.170  12.550   3.735
    1STR  S0X   6044   9.279  12.997   4.649
    1STR  S14   6045   8.892  13.172   5.041
    1STR  S1B   6046   8.308  13.060   4.884
    1HEX  C01   6047   8.991  12.929   8.036
    1HEX  C02   6048   8.931  12.930   8.177
    1HEX  C03   6049   8.780  12.931   8.169
    1HEX  O04   6050   8.718  12.832   8.129
    1HEX  O05   6051   8.726  13.048   8.206
    1HEX  C06   6052   8.585  13.062   8.212
    1HEX  C07   6053   8.535  13.054   8.359
    1HEX  C08   6054   8.581  13.183   8.430
    1HEX  O09   6055   8.518  13.303   8.388
    1HEX  C0A   6056   8.458  13.379   8.481
    1HEX  O0B   6057   8.402  13.338   8.582
    1HEX  C0C   6058   8.473  13.528   8.452
    1HEX  C0D   6059   8.474  13.610   8.582
    1HEX  C0F   6060   8.380  13.050   8.364
    1HEX  O0G   6061   8.333  12.931   8.301
    1HEX  C0H   6062   8.290  12.934   8.174
    1HEX  O0I   6063   8.264  13.035   8.109
    1HEX  C0J   6064   8.283  12.795   8.113
    1HEX  C0K   6065   8.164  12.717   8.168
    1HEX  C0N   6066   8.586  12.923   8.430
    1HEX  O0O   6067   8.723  12.909   8.471
    1HEX  C0P   6068   8.791  12.992   8.567
    1HEX  C0Q   6069   8.755  12.986   8.719
    1HEX  C0R   6070   8.789  12.845   8.771
    1HEX  O0S   6071   8.929  12.819   8.764
    1HEX  C0T   6072   9.003  12.810   8.877
    1HEX  O0U   6073   8.961  12.818   8.992
    1HEX  C0V   6074   9.150  12.788   8.847
    1HEX  C0W   6075   9.230  12.919   8.852
    1HEX  C0Y   6076   8.843  13.092   8.794
    1HEX  O0Z   6077   8.809  13.087   8.931
    1HEX  C10   6078   8.885  13.140   9.028
    1HEX  O11   6079   8.989  13.203   9.011
    1HEX  C12   6080   8.822  13.113   9.164
    1HEX  C13   6081   8.904  13.154   9.288
    1HEX  C15   6082   8.607  13.024   8.749
    1HEX  O16   6083   8.565  13.001   8.883
    1HEX  C17   6084   8.498  12.891   8.917
    1HEX  O18   6085   8.473  12.796   8.844
    1HEX  C19   6086   8.448  12.900   9.060
    1HEX  C1A   6087   8.365  13.027   9.078
    1HEX  H1D   6088   8.957  12.841   7.981
    1HEX  H1E   6089   8.957  13.016   7.980
    1HEX  H1F   6090   8.964  13.017   8.233
    1HEX  H1G   6091   8.961  12.842   8.233
    1HEX  H1H   6092   8.537  12.988   8.149
    1HEX  H1I   6093   8.557  13.158   8.169
    1HEX  H1J   6094   8.685  13.201   8.407
    1HEX  H1K   6095   8.572  13.171   8.536
    1HEX  H1M   6096   8.395  13.561   8.384
    1HEX  H1N   6097   8.569  13.542   8.401
    1HEX  H1O   6098   8.548  13.571   8.652
    1HEX  H1P   6099   8.377  13.602   8.632
    1HEX  H1R   6100   8.335  13.140   8.319
    1HEX  H1S   6101   8.345  13.050   8.467
    1HEX  H1T   6102   8.377  12.744   8.134
    1HEX  H1U   6103   8.276  12.805   8.005
    1HEX  H1V   6104   8.071  12.770   8.149
    1HEX  H1W   6105   8.173  12.705   8.276
    1HEX  H1Y   6106   8.573  12.843   8.356
    1HEX  H1Z   6107   8.517  12.888   8.507
    1HEX  H20   6108   8.801  13.094   8.533
    1HEX  H21   6109   8.894  12.957   8.559
    1HEX  H22   6110   8.736  12.769   8.713
    1HEX  H23   6111   8.753  12.832   8.874
    1HEX  H24   6112   9.159  12.741   8.749
    1HEX  H25   6113   9.190  12.717   8.920
    1HEX  H26   6114   9.179  12.998   8.796
    1HEX  H27   6115   9.329  12.906   8.810
    1HEX  H29   6116   8.825  13.193   8.757
    1HEX  H2A   6117   8.949  13.073   8.780
    1HEX  H2B   6118   8.801  13.007   9.169
    1HEX  H2C   6119   8.726  13.165   9.166
    1HEX  H2D   6120   8.933  13.259   9.282
    1HEX  H2E   6121   8.997  13.097   9.292
    1HEX  H2G   6122   8.535  12.975   8.684
    1HEX  H2H   6123   8.592  13.131   8.736
    1HEX  H2I   6124   8.534  12.900   9.126
    1HEX  H2J   6125   8.389  12.811   9.082
    1HEX  H2K   6126   8.286  13.032   9.003
    1HEX  H2M   6127   8.428  13.116   9.063
    1STR  S00   6128   9.172  12.932   8.045
    1STR  S0E   6129   8.524  13.782   8.555
    1STR  S0M   6130   8.170  12.551   8.095
    1STR  S0X   6131   9.283  12.997   9.007
    1STR  S14   6132   8.834  13.143   9.458
    1STR  S1B   6133   8.302  13.061   9.244
    1HEX  C01   6134   8.976  12.931  12.377
    1HEX  C02   6135   8.929  12.932  12.524
    1HEX  C03   6136   8.778  12.928  12.530
    1HEX  O04   6137   8.716  12.826  12.500
    1HEX  O05   6138   8.725  13.045  12.567
    1HEX  C06   6139   8.584  13.061  12.571
    1HEX  C07   6140   8.532  13.053  12.717
    1HEX  C08   6141   8.579  13.182  12.788
    1HEX  O09   6142   8.516  13.302  12.748
    1HEX  C0A   6143   8.458  13.379  12.841
    1HEX  O0B   6144   8.403  13.338  12.943
    1HEX  C0C   6145   8.474  13.528  12.812
    1HEX  C0D   6146   8.474  13.610  12.942
    1HEX  C0F   6147   8.377  13.052  12.721
    1HEX  O0G   6148   8.328  12.933  12.660
    1HEX  C0H   6149   8.288  12.935  12.532
    1HEX  O0I   6150   8.262  13.035  12.466
    1HEX  C0J   6151   8.283  12.796  12.472
    1HEX  C0K   6152   8.165  12.716  12.527
    1HEX  C0N   6153   8.578  12.920  12.786
    1HEX  O0O   6154   8.715  12.899  12.826
    1HEX  C0P   6155   8.785  12.983  12.917
    1HEX  C0Q   6156   8.751  12.982  13.069
    1HEX  C0R   6157   8.788  12.843  13.127
    1HEX  O0S   6158   8.929  12.820  13.121
    1HEX  C0T   6159   9.002  12.812  13.235
    1HEX  O0U   6160   8.959  12.821  13.350
    1HEX  C0V   6161   9.149  12.789  13.206
    1HEX  C0W   6162   9.229  12.920  13.213
    1HEX  C0Y   6163   8.840  13.092  13.133
    1HEX  O0Z   6164   8.816  13.093  13.271
    1HEX  C10   6165   8.902  13.149  13.354
    1HEX  O11   6166   9.004  13.210  13.322
    1HEX  C12   6167   8.860  13.127  13.498
    1HEX  C13   6168   8.969  13.168  13.597
    1HEX  C15   6169   8.604  13.020  13.104
    1HEX  O16   6170   8.567  12.998  13.239
    1HEX  C17   6171   8.498  12.890  13.275
    1HEX  O18   6172   8.471  12.794  13.203
    1HEX  C19   6173   8.449  12.900  13.418
    1HEX  C1A   6174   8.367  13.028  13.436
    1HEX  H1D   6175   8.916  12.863  12.317
    1HEX  H1E   6176   8.970  13.030  12.333
    1HEX  H1F   6177   8.965  13.021  12.576
    1HEX  H1G   6178   8.967  12.845  12.577
    1HEX  H1H   6179   8.536  12.988  12.506
    1HEX  H1I   6180   8.559  13.158  12.527
    1HEX  H1J   6181   8.683  13.201  12.764
    1HEX  H1K   6182   8.571  13.169  12.895
    1HEX  H1M   6183   8.396  13.561  12.744
    1HEX  H1N   6184   8.569  13.541  12.761
    1HEX  H1O   6185   8.549  13.571  13.012
    1HEX  H1P   6186   8.378  13.602  12.992
    1HEX  H1R   6187   8.334  13.142  12.676
    1HEX  H1S   6188   8.342  13.053  12.825
    1HEX  H1T   6189   8.378  12.747  12.493
    1HEX  H1U   6190   8.277  12.806  12.363
    1HEX  H1V   6191   8.072  12.769  12.508
    1HEX  H1W   6192   8.174  12.705  12.635
    1HEX  H1Y   6193   8.562  12.841  12.712
    1HEX  H1Z   6194   8.510  12.887  12.864
    1HEX  H20   6195   8.798  13.083  12.879
    1HEX  H21   6196   8.887  12.945  12.909
    1HEX  H22   6197   8.736  12.765  13.072
    1HEX  H23   6198   8.753  12.835  13.230
    1HEX  H24   6199   9.158  12.742  13.109
    1HEX  H25   6200   9.188  12.719  13.280
    1HEX  H26   6201   9.178  13.000  13.158
    1HEX  H27   6202   9.328  12.908  13.170
    1HEX  H29   6203   8.819  13.191  13.092
    1HEX  H2A   6204   8.946  13.073  13.113
    1HEX  H2B   6205   8.835  13.021  13.510
    1HEX  H2C   6206   8.768  13.183  13.513
    1HEX  H2D   6207   8.998  13.272  13.580
    1HEX  H2E   6208   9.058  13.107  13.581
    1HEX  H2G   6209   8.530  12.972  13.042
    1HEX  H2H   6210   8.589  13.127  13.092
    1HEX  H2I   6211   8.536  12.900  13.484
    1HEX  H2J   6212   8.390  12.811  13.442
    1HEX  H2K   6213   8.286  13.032  13.362
    1HEX  H2M   6214   8.429  13.116  13.420
    1STR  S00   6215   8.904  13.036  12.247
    1STR  S0E   6216   8.522  13.782  12.916
    1STR  S0M   6217   8.170  12.550  12.455
    1STR  S0X   6218   9.280  12.997  13.369
    1STR  S14   6219   8.892  13.172  13.761
    1STR  S1B   6220   8.308  13.060  13.604
    1HEX  C01   6221  13.351  17.289  16.756
    1HEX  C02   6222  13.290  17.290  16.896
    1HEX  C03   6223  13.139  17.291  16.887
    1HEX  O04   6224  13.077  17.192  16.848
    1HEX  O05   6225  13.085  17.408  16.924
    1HEX  C06   6226  12.943  17.422  16.930
    1HEX  C07   6227  12.893  17.413  17.076
    1HEX  C08   6228  12.939   0.101  17.148
    1HEX  O09   6229  12.877   0.222  17.107
    1HEX  C0A   6230  12.818   0.298  17.200
    1HEX  O0B   6231  12.763   0.257  17.302
    1HEX  C0C   6232  12.833   0.447  17.172
    1HEX  C0D   6233  12.834   0.529  17.302
    1HEX  C0F   6234  12.737  17.411  17.082
    1HEX  O0G   6235  12.689  17.292  17.020
    1HEX  C0H   6236  12.648  17.294  16.893
    1HEX  O0I   6237  12.624  17.394  16.826
    1HEX  C0J   6238  12.643  17.155  16.832
    1HEX  C0K   6239  12.524  17.076  16.888
    1HEX  C0N   6240  12.940  17.279  17.145
    1HEX  O0O   6241  13.077  17.259  17.184
    1HEX  C0P   6242  13.147  17.343  17.277
    1HEX  C0Q   6243  13.112  17.341  17.429
    1HEX  C0R   6244  13.148  17.203   0.047
    1HEX  O0S   6245  13.289  17.179   0.041
    1HEX  C0T   6246  13.362  17.171   0.154
    1HEX  O0U   6247  13.319  17.181   0.269
    1HEX  C0V   6248  13.509  17.149   0.126
    1HEX  C0W   6249  13.589  17.280   0.132
    1HEX  C0Y   6250  13.200   0.011   0.053
    1HEX  O0Z   6251  13.176   0.012   0.191
    1HEX  C10   6252  13.262   0.068   0.274
    1HEX  O11   6253  13.363   0.130   0.241
    1HEX  C12   6254  13.220   0.046   0.418
    1HEX  C13   6255  13.329   0.088   0.517
    1HEX  C15   6256  12.964  17.379   0.023
    1HEX  O16   6257  12.927  17.358   0.159
    1HEX  C17   6258  12.858  17.249   0.194
    1HEX  O18   6259  12.830  17.153   0.123
    1HEX  C19   6260  12.809  17.259   0.338
    1HEX  C1A   6261  12.727  17.387   0.356
    1HEX  H1D   6262  13.317  17.201  16.701
    1HEX  H1E   6263  13.318  17.376  16.699
    1HEX  H1F   6264  13.323  17.377  16.953
    1HEX  H1G   6265  13.320  17.202  16.952
    1HEX  H1H   6266  12.896  17.348  16.866
    1HEX  H1I   6267  12.916   0.078  16.887
    1HEX  H1J   6268  13.044   0.120  17.125
    1HEX  H1K   6269  12.931   0.088  17.254
    1HEX  H1M   6270  12.756   0.480  17.104
    1HEX  H1N   6271  12.929   0.461  17.121
    1HEX  H1O   6272  12.908   0.490  17.372
    1HEX  H1P   6273  12.737   0.522  17.352
    1HEX  H1R   6274  12.694   0.060  17.037
    1HEX  H1S   6275  12.703  17.411  17.185
    1HEX  H1T   6276  12.737  17.104  16.854
    1HEX  H1U   6277  12.636  17.164  16.724
    1HEX  H1V   6278  12.431  17.129  16.869
    1HEX  H1W   6279  12.533  17.065  16.996
    1HEX  H1Y   6280  12.924  17.201  17.071
    1HEX  H1Z   6281  12.873  17.246  17.222
    1HEX  H20   6282  13.160   0.003  17.239
    1HEX  H21   6283  13.249  17.305  17.269
    1HEX  H22   6284  13.096  17.124  17.432
    1HEX  H23   6285  13.113  17.194   0.150
    1HEX  H24   6286  13.519  17.102   0.028
    1HEX  H25   6287  13.548  17.078   0.200
    1HEX  H26   6288  13.539  17.359   0.077
    1HEX  H27   6289  13.689  17.267   0.090
    1HEX  H29   6290  13.179   0.110   0.012
    1HEX  H2A   6291  13.306  17.433   0.033
    1HEX  H2B   6292  13.196  17.381   0.430
    1HEX  H2C   6293  13.128   0.102   0.434
    1HEX  H2D   6294  13.358   0.191   0.499
    1HEX  H2E   6295  13.418   0.027   0.501
    1HEX  H2G   6296  12.890  17.331  17.401
    1HEX  H2H   6297  12.949   0.046   0.012
    1HEX  H2I   6298  12.896  17.259   0.404
    1HEX  H2J   6299  12.750  17.171   0.362
    1HEX  H2K   6300  12.646  17.391   0.282
    1HEX  H2M   6301  12.789   0.035   0.340
    1STR  S00   6302  13.532  17.292  16.765
    1STR  S0E   6303  12.883   0.701  17.276
    1STR  S0M   6304  12.530  16.910  16.815
    1STR  S0X   6305  13.639  17.357   0.289
    1STR  S14   6306  13.251   0.092   0.681
    1STR  S1B   6307  12.668  17.420   0.524
    1HEX  C01   6308  13.350  17.289   3.677
    1HEX  C02   6309  13.289  17.292   3.818
    1HEX  C03   6310  13.137  17.296   3.809
    1HEX  O04   6311  13.074  17.199   3.768
    1HEX  O05   6312  13.085  17.414   3.849
    1HEX  C06   6313  12.944  17.432   3.854
    1HEX  C07   6314  12.891  17.422   3.999
    1HEX  C08   6315  12.933   0.110   4.076
    1HEX  O09   6316  12.874   0.234   4.037
    1HEX  C0A   6317  12.841   0.323   4.134
    1HEX  O0B   6318  12.802   0.294   4.247
    1HEX  C0C   6319  12.859   0.469   4.091
    1HEX  C0D   6320  12.879   0.568   4.209
    1HEX  C0F   6321  12.736  17.417   4.001
    1HEX  O0G   6322  12.690  17.297   3.940
    1HEX  C0H   6323  12.649  17.297   3.813
    1HEX  O0I   6324  12.624  17.396   3.745
    1HEX  C0J   6325  12.644  17.157   3.754
    1HEX  C0K   6326  12.525  17.078   3.809
    1HEX  C0N   6327  12.938  17.287   4.066
    1HEX  O0O   6328  13.074  17.264   4.104
    1HEX  C0P   6329  13.146  17.345   4.197
    1HEX  C0Q   6330  13.112  17.343   4.349
    1HEX  C0R   6331  13.148  17.203   4.406
    1HEX  O0S   6332  13.289  17.180   4.400
    1HEX  C0T   6333  13.362  17.171   4.514
    1HEX  O0U   6334  13.319  17.180   4.629
    1HEX  C0V   6335  13.509  17.149   4.486
    1HEX  C0W   6336  13.589  17.280   4.492
    1HEX  C0Y   6337  13.201   0.012   4.413
    1HEX  O0Z   6338  13.177   0.012   4.552
    1HEX  C10   6339  13.263   0.068   4.634
    1HEX  O11   6340  13.365   0.129   4.602
    1HEX  C12   6341  13.220   0.047   4.778
    1HEX  C13   6342  13.329   0.088   4.878
    1HEX  C15   6343  12.965  17.381   4.385
    1HEX  O16   6344  12.928  17.358   4.520
    1HEX  C17   6345  12.858  17.250   4.555
    1HEX  O18   6346  12.830  17.155   4.482
    1HEX  C19   6347  12.810  17.259   4.698
    1HEX  C1A   6348  12.727  17.387   4.716
    1HEX  H1D   6349  13.315  17.201   3.623
    1HEX  H1E   6350  13.317  17.376   3.620
    1HEX  H1F   6351  13.324  17.379   3.874
    1HEX  H1G   6352  13.317  17.203   3.874
    1HEX  H1H   6353  12.896  17.359   3.789
    1HEX  H1I   6354  12.919   0.089   3.811
    1HEX  H1J   6355  13.039   0.129   4.060
    1HEX  H1K   6356  12.917   0.093   4.181
    1HEX  H1M   6357  12.777   0.500   4.028
    1HEX  H1N   6358  12.949   0.472   4.030
    1HEX  H1O   6359  12.954   0.534   4.280
    1HEX  H1P   6360  12.787   0.583   4.265
    1HEX  H1R   6361  12.692   0.066   3.955
    1HEX  H1S   6362  12.699  17.417   4.104
    1HEX  H1T   6363  12.738  17.107   3.776
    1HEX  H1U   6364  12.638  17.165   3.645
    1HEX  H1V   6365  12.432  17.131   3.789
    1HEX  H1W   6366  12.534  17.067   3.917
    1HEX  H1Y   6367  12.921  17.209   3.991
    1HEX  H1Z   6368  12.870  17.252   4.143
    1HEX  H20   6369  13.160   0.006   4.160
    1HEX  H21   6370  13.247  17.306   4.188
    1HEX  H22   6371  13.096  17.125   4.351
    1HEX  H23   6372  13.113  17.194   4.509
    1HEX  H24   6373  13.519  17.102   4.388
    1HEX  H25   6374  13.548  17.078   4.559
    1HEX  H26   6375  13.538  17.359   4.438
    1HEX  H27   6376  13.688  17.268   4.450
    1HEX  H29   6377  13.179   0.111   4.373
    1HEX  H2A   6378  13.307  17.433   4.393
    1HEX  H2B   6379  13.196  17.381   4.790
    1HEX  H2C   6380  13.128   0.103   4.793
    1HEX  H2D   6381  13.357   0.192   4.860
    1HEX  H2E   6382  13.418   0.028   4.861
    1HEX  H2G   6383  12.891  17.334   4.322
    1HEX  H2H   6384  12.951   0.048   4.375
    1HEX  H2I   6385  12.896  17.259   4.764
    1HEX  H2J   6386  12.750  17.171   4.722
    1HEX  H2K   6387  12.647  17.391   4.643
    1HEX  H2M   6388  12.789   0.035   4.700
    1STR  S00   6389  13.531  17.292   3.685
    1STR  S0E   6390  12.967   0.723   4.251
    1STR  S0M   6391  12.530  16.912   3.736
    1STR  S0X   6392  13.640  17.356   4.649
    1STR  S14   6393  13.252   0.090   5.042
    1STR  S1B   6394  12.667  17.418   4.884
    1HEX  C01   6395  13.348  17.289   8.037
    1HEX  C02   6396  13.283  17.291   8.175
    1HEX  C03   6397  13.132  17.286   8.163
    1HEX  O04   6398  13.075  17.184   8.123
    1HEX  O05   6399  13.072  17.401   8.200
    1HEX  C06   6400  12.930  17.406   8.213
    1HEX  C07   6401  12.890  17.395   8.362
    1HEX  C08   6402  12.929   0.090   8.427
    1HEX  O09   6403  12.861   0.208   8.386
    1HEX  C0A   6404  12.813   0.291   8.481
    1HEX  O0B   6405  12.764   0.254   8.588
    1HEX  C0C   6406  12.834   0.439   8.450
    1HEX  C0D   6407  12.835   0.524   8.578
    1HEX  C0F   6408  12.736  17.369   8.379
    1HEX  O0G   6409  12.708  17.227   8.380
    1HEX  C0H   6410  12.684  17.162   8.265
    1HEX  O0I   6411  12.645  17.219   8.163
    1HEX  C0J   6412  12.718  17.011   8.259
    1HEX  C0K   6413  12.726  16.913   8.384
    1HEX  C0N   6414  12.958  17.269   8.430
    1HEX  O0O   6415  13.097  17.266   8.461
    1HEX  C0P   6416  13.155  17.351   8.559
    1HEX  C0Q   6417  13.114  17.344   8.710
    1HEX  C0R   6418  13.149  17.203   8.765
    1HEX  O0S   6419  13.290  17.179   8.761
    1HEX  C0T   6420  13.362  17.171   8.874
    1HEX  O0U   6421  13.319  17.181   8.989
    1HEX  C0V   6422  13.509  17.149   8.847
    1HEX  C0W   6423  13.589  17.279   8.853
    1HEX  C0Y   6424  13.202   0.012   8.776
    1HEX  O0Z   6425  13.177   0.012   8.914
    1HEX  C10   6426  13.262   0.069   8.996
    1HEX  O11   6427  13.363   0.131   8.964
    1HEX  C12   6428  13.220   0.046   9.140
    1HEX  C13   6429  13.329   0.088   9.239
    1HEX  C15   6430  12.966  17.381   8.744
    1HEX  O16   6431  12.928  17.359   8.879
    1HEX  C17   6432  12.858  17.250   8.914
    1HEX  O18   6433  12.832  17.154   8.842
    1HEX  C19   6434  12.810  17.260   9.057
    1HEX  C1A   6435  12.727  17.387   9.076
    1HEX  H1D   6436  13.317  17.201   7.981
    1HEX  H1E   6437  13.316  17.376   7.979
    1HEX  H1F   6438  13.313  17.379   8.232
    1HEX  H1G   6439  13.315  17.204   8.233
    1HEX  H1H   6440  12.882  17.330   8.152
    1HEX  H1I   6441  12.897   0.061   8.172
    1HEX  H1J   6442  13.033   0.113   8.403
    1HEX  H1K   6443  12.924   0.081   8.534
    1HEX  H1M   6444  12.757   0.474   8.381
    1HEX  H1N   6445  12.930   0.450   8.399
    1HEX  H1O   6446  12.909   0.487   8.649
    1HEX  H1P   6447  12.738   0.520   8.629
    1HEX  H1R   6448  12.679  17.424   8.304
    1HEX  H1S   6449  12.703  17.410   8.474
    1HEX  H1T   6450  12.814  17.007   8.207
    1HEX  H1U   6451  12.647  16.971   8.187
    1HEX  H1V   6452  12.689  16.814   8.355
    1HEX  H1W   6453  12.663  16.948   8.466
    1HEX  H1Y   6454  12.948  17.188   8.359
    1HEX  H1Z   6455  12.902  17.229   8.514
    1HEX  H20   6456  13.161   0.013   8.524
    1HEX  H21   6457  13.259  17.319   8.554
    1HEX  H22   6458  13.098  17.126   8.709
    1HEX  H23   6459  13.113  17.193   8.868
    1HEX  H24   6460  13.519  17.101   8.749
    1HEX  H25   6461  13.548  17.078   8.920
    1HEX  H26   6462  13.539  17.359   8.797
    1HEX  H27   6463  13.688  17.267   8.809
    1HEX  H29   6464  13.180   0.111   8.736
    1HEX  H2A   6465  13.307  17.434   8.757
    1HEX  H2B   6466  13.196  17.381   9.152
    1HEX  H2C   6467  13.128   0.102   9.156
    1HEX  H2D   6468  13.358   0.191   9.221
    1HEX  H2E   6469  13.418   0.027   9.221
    1HEX  H2G   6470  12.891  17.335   8.681
    1HEX  H2H   6471  12.951   0.049   8.733
    1HEX  H2I   6472  12.897  17.260   9.124
    1HEX  H2J   6473  12.751  17.171   9.081
    1HEX  H2K   6474  12.646  17.391   9.002
    1HEX  H2M   6475  12.788   0.036   9.059
    1STR  S00   6476  13.529  17.293   8.045
    1STR  S0E   6477  12.882   0.697   8.555
    1STR  S0M   6478  12.777  16.787   8.516
    1STR  S0X   6479  13.639  17.357   9.008
    1STR  S14   6480  13.251   0.091   9.403
    1STR  S1B   6481  12.668  17.419   9.244
    1HEX  C01   6482  13.350  17.289  12.396
    1HEX  C02   6483  13.286  17.290  12.534
    1HEX  C03   6484  13.135  17.285  12.522
    1HEX  O04   6485  13.078  17.184  12.483
    1HEX  O05   6486  13.076  17.400  12.559
    1HEX  C06   6487  12.934  17.405  12.573
    1HEX  C07   6488  12.893  17.389  12.721
    1HEX  C08   6489  12.925   0.086  12.788
    1HEX  O09   6490  12.856   0.204  12.746
    1HEX  C0A   6491  12.811   0.289  12.842
    1HEX  O0B   6492  12.764   0.254  12.950
    1HEX  C0C   6493  12.833   0.436  12.809
    1HEX  C0D   6494  12.835   0.523  12.937
    1HEX  C0F   6495  12.742  17.350  12.734
    1HEX  O0G   6496  12.727  17.205  12.732
    1HEX  C0H   6497  12.718  17.139  12.615
    1HEX  O0I   6498  12.672  17.192  12.514
    1HEX  C0J   6499  12.776  16.994  12.604
    1HEX  C0K   6500  12.829  16.900  12.723
    1HEX  C0N   6501  12.968  17.268  12.791
    1HEX  O0O   6502  13.106  17.270  12.820
    1HEX  C0P   6503  13.159  17.354  12.920
    1HEX  C0Q   6504  13.116  17.345  13.070
    1HEX  C0R   6505  13.150  17.204  13.125
    1HEX  O0S   6506  13.290  17.179  13.120
    1HEX  C0T   6507  13.362  17.172  13.234
    1HEX  O0U   6508  13.319  17.182  13.349
    1HEX  C0V   6509  13.510  17.149  13.207
    1HEX  C0W   6510  13.589  17.280  13.213
    1HEX  C0Y   6511  13.203   0.013  13.138
    1HEX  O0Z   6512  13.177   0.012  13.275
    1HEX  C10   6513  13.262   0.069  13.358
    1HEX  O11   6514  13.363   0.131  13.325
    1HEX  C12   6515  13.220   0.046  13.501
    1HEX  C13   6516  13.329   0.088  13.600
    1HEX  C15   6517  12.967  17.382  13.103
    1HEX  O16   6518  12.929  17.359  13.238
    1HEX  C17   6519  12.859  17.251  13.273
    1HEX  O18   6520  12.831  17.156  13.200
    1HEX  C19   6521  12.810  17.259  13.417
    1HEX  C1A   6522  12.727  17.387  13.436
    1HEX  H1D   6523  13.318  17.201  12.340
    1HEX  H1E   6524  13.317  17.376  12.338
    1HEX  H1F   6525  13.316  17.378  12.591
    1HEX  H1G   6526  13.317  17.203  12.592
    1HEX  H1H   6527  12.886  17.331  12.508
    1HEX  H1I   6528  12.900   0.061  12.534
    1HEX  H1J   6529  13.028   0.112  12.768
    1HEX  H1K   6530  12.916   0.076  12.895
    1HEX  H1M   6531  12.757   0.472  12.740
    1HEX  H1N   6532  12.930   0.446  12.759
    1HEX  H1O   6533  12.909   0.486  13.008
    1HEX  H1P   6534  12.738   0.520  12.987
    1HEX  H1R   6535  12.682  17.401  12.659
    1HEX  H1S   6536  12.703  17.387  12.829
    1HEX  H1T   6537  12.859  17.007  12.534
    1HEX  H1U   6538  12.700  16.941  12.546
    1HEX  H1V   6539  12.805  16.797  12.697
    1HEX  H1W   6540  12.775  16.922  12.815
    1HEX  H1Y   6541  12.962  17.185  12.720
    1HEX  H1Z   6542  12.913  17.227  12.875
    1HEX  H20   6543  13.163   0.017  12.886
    1HEX  H21   6544  13.265  17.325  12.917
    1HEX  H22   6545  13.098  17.127  13.068
    1HEX  H23   6546  13.114  17.193  13.227
    1HEX  H24   6547  13.519  17.102  13.109
    1HEX  H25   6548  13.548  17.078  13.280
    1HEX  H26   6549  13.539  17.359  13.158
    1HEX  H27   6550  13.689  17.267  13.169
    1HEX  H29   6551  13.181   0.112  13.098
    1HEX  H2A   6552  13.308  17.435  13.119
    1HEX  H2B   6553  13.196  17.381  13.513
    1HEX  H2C   6554  13.128   0.103  13.517
    1HEX  H2D   6555  13.358   0.191  13.582
    1HEX  H2E   6556  13.418   0.027  13.582
    1HEX  H2G   6557  12.892  17.336  13.040
    1HEX  H2H   6558  12.953   0.050  13.093
    1HEX  H2I   6559  12.897  17.260  13.483
    1HEX  H2J   6560  12.751  17.171  13.440
    1HEX  H2K   6561  12.646  17.390  13.362
    1HEX  H2M   6562  12.788   0.035  13.419
    1STR  S00   6563  13.531  17.292  12.406
    1STR  S0E   6564  12.883   0.696  12.914
    1STR  S0M   6565  12.937  16.759  12.797
    1STR  S0X   6566  13.640  17.357  13.368
    1STR  S14   6567  13.252   0.092  13.764
    1STR  S1B   6568  12.669  17.421  13.603
    1HEX  C01   6569  13.346   4.226  16.756
    1HEX  C02   6570  13.297   4.223  16.901
    1HEX  C03   6571  13.145   4.218  16.908
    1HEX  O04   6572  13.085   4.112  16.890
    1HEX  O05   6573  13.090   4.339  16.937
    1HEX  C06   6574  12.949   4.355  16.939
    1HEX  C07   6575  12.891   4.351  17.083
    1HEX  C08   6576  12.931   4.480  17.161
    1HEX  O09   6577  12.878   4.610  17.128
    1HEX  C0A   6578  12.858   4.702  17.229
    1HEX  O0B   6579  12.826   4.674  17.344
    1HEX  C0C   6580  12.880   4.850  17.187
    1HEX  C0D   6581  12.908   4.954  17.302
    1HEX  C0F   6582  12.735   4.345  17.079
    1HEX  O0G   6583  12.692   4.223  17.019
    1HEX  C0H   6584  12.650   4.221  16.892
    1HEX  O0I   6585  12.619   4.319  16.826
    1HEX  C0J   6586  12.648   4.081  16.834
    1HEX  C0K   6587  12.529   4.000  16.887
    1HEX  C0N   6588  12.933   4.215  17.151
    1HEX  O0O   6589  13.068   4.186  17.190
    1HEX  C0P   6590  13.144   4.267  17.279
    1HEX  C0Q   6591  13.112   4.265  17.431
    1HEX  C0R   6592  13.148   4.125   0.047
    1HEX  O0S   6593  13.289   4.101   0.041
    1HEX  C0T   6594  13.362   4.092   0.154
    1HEX  O0U   6595  13.319   4.100   0.269
    1HEX  C0V   6596  13.509   4.070   0.126
    1HEX  C0W   6597  13.589   4.200   0.133
    1HEX  C0Y   6598  13.202   4.374   0.054
    1HEX  O0Z   6599  13.177   4.374   0.193
    1HEX  C10   6600  13.264   4.429   0.275
    1HEX  O11   6601  13.366   4.489   0.243
    1HEX  C12   6602  13.220   4.408   0.419
    1HEX  C13   6603  13.329   4.449   0.518
    1HEX  C15   6604  12.965   4.303   0.028
    1HEX  O16   6605  12.929   4.279   0.163
    1HEX  C17   6606  12.858   4.171   0.197
    1HEX  O18   6607  12.831   4.076   0.124
    1HEX  C19   6608  12.809   4.180   0.340
    1HEX  C1A   6609  12.727   4.308   0.357
    1HEX  H1D   6610  13.316   4.137  16.702
    1HEX  H1E   6611  13.310   4.313  16.701
    1HEX  H1F   6612  13.331   4.311  16.955
    1HEX  H1G   6613  13.335   4.136  16.953
    1HEX  H1H   6614  12.904   4.279  16.874
    1HEX  H1I   6615  12.924   4.450  16.890
    1HEX  H1J   6616  13.038   4.497  17.149
    1HEX  H1K   6617  12.912   4.462  17.266
    1HEX  H1M   6618  12.795   4.882  17.127
    1HEX  H1N   6619  12.966   4.848  17.121
    1HEX  H1O   6620  12.980   4.915  17.375
    1HEX  H1P   6621  12.817   4.975  17.358
    1HEX  H1R   6622  12.693   4.433  17.031
    1HEX  H1S   6623  12.696   4.347  17.181
    1HEX  H1T   6624  12.742   4.032  16.857
    1HEX  H1U   6625  12.643   4.089  16.725
    1HEX  H1V   6626  12.435   4.052  16.867
    1HEX  H1W   6627  12.537   3.988  16.996
    1HEX  H1Y   6628  12.916   4.137  17.076
    1HEX  H1Z   6629  12.862   4.181  17.226
    1HEX  H20   6630  13.157   4.367  17.241
    1HEX  H21   6631  13.244   4.227  17.268
    1HEX  H22   6632  13.096   4.047  17.431
    1HEX  H23   6633  13.113   4.115   0.150
    1HEX  H24   6634  13.519   4.023   0.028
    1HEX  H25   6635  13.548   3.999   0.199
    1HEX  H26   6636  13.538   4.280   0.078
    1HEX  H27   6637  13.688   4.189   0.090
    1HEX  H29   6638  13.180   4.473   0.014
    1HEX  H2A   6639  13.307   4.355   0.034
    1HEX  H2B   6640  13.196   4.302   0.431
    1HEX  H2C   6641  13.128   4.464   0.434
    1HEX  H2D   6642  13.358   4.552   0.500
    1HEX  H2E   6643  13.418   4.388   0.502
    1HEX  H2G   6644  12.891   4.256  17.406
    1HEX  H2H   6645  12.951   4.410   0.018
    1HEX  H2I   6646  12.895   4.180   0.406
    1HEX  H2J   6647  12.750   4.091   0.363
    1HEX  H2K   6648  12.647   4.312   0.283
    1HEX  H2M   6649  12.789   4.396   0.341
    1STR  S00   6650  13.281   4.314  16.609
    1STR  S0E   6651  12.986   5.109  17.371
    1STR  S0M   6652  12.534   3.835  16.813
    1STR  S0X   6653  13.641   4.276   0.289
    1STR  S14   6654  13.252   4.450   0.683
    1STR  S1B   6655  12.666   4.339   0.525
    1HEX  C01   6656  13.349   4.208   3.677
    1HEX  C02   6657  13.285   4.209   3.816
    1HEX  C03   6658  13.133   4.207   3.804
    1HEX  O04   6659  13.075   4.107   3.763
    1HEX  O05   6660  13.076   4.322   3.842
    1HEX  C06   6661  12.934   4.330   3.852
    1HEX  C07   6662  12.889   4.319   4.000
    1HEX  C08   6663  12.930   4.452   4.068
    1HEX  O09   6664  12.863   4.571   4.027
    1HEX  C0A   6665  12.814   4.653   4.122
    1HEX  O0B   6666  12.766   4.615   4.229
    1HEX  C0C   6667  12.833   4.801   4.091
    1HEX  C0D   6668  12.834   4.886   4.219
    1HEX  C0F   6669  12.735   4.299   4.011
    1HEX  O0G   6670  12.703   4.161   3.990
    1HEX  C0H   6671  12.674   4.116   3.867
    1HEX  O0I   6672  12.631   4.187   3.776
    1HEX  C0J   6673  12.710   3.969   3.841
    1HEX  C0K   6674  12.713   3.867   3.959
    1HEX  C0N   6675  12.951   4.191   4.070
    1HEX  O0O   6676  13.089   4.184   4.106
    1HEX  C0P   6677  13.148   4.269   4.204
    1HEX  C0Q   6678  13.106   4.264   4.354
    1HEX  C0R   6679  13.141   4.125   4.412
    1HEX  O0S   6680  13.281   4.100   4.405
    1HEX  C0T   6681  13.356   4.093   4.517
    1HEX  O0U   6682  13.316   4.103   4.633
    1HEX  C0V   6683  13.503   4.070   4.487
    1HEX  C0W   6684  13.585   4.200   4.493
    1HEX  C0Y   6685  13.195   4.373   4.419
    1HEX  O0Z   6686  13.170   4.374   4.557
    1HEX  C10   6687  13.259   4.429   4.638
    1HEX  O11   6688  13.360   4.489   4.605
    1HEX  C12   6689  13.218   4.407   4.783
    1HEX  C13   6690  13.329   4.448   4.880
    1HEX  C15   6691  12.958   4.304   4.385
    1HEX  O16   6692  12.909   4.280   4.517
    1HEX  C17   6693  12.819   4.182   4.539
    1HEX  O18   6694  12.801   4.085   4.466
    1HEX  C19   6695  12.735   4.204   4.664
    1HEX  C1A   6696  12.601   4.276   4.635
    1HEX  H1D   6697  13.317   4.120   3.622
    1HEX  H1E   6698  13.316   4.295   3.620
    1HEX  H1F   6699  13.315   4.297   3.873
    1HEX  H1G   6700  13.315   4.122   3.873
    1HEX  H1H   6701  12.886   4.256   3.789
    1HEX  H1I   6702  12.903   4.426   3.811
    1HEX  H1J   6703  13.034   4.474   4.044
    1HEX  H1K   6704  12.924   4.442   4.175
    1HEX  H1M   6705  12.756   4.835   4.021
    1HEX  H1N   6706  12.929   4.812   4.040
    1HEX  H1O   6707  12.908   4.849   4.290
    1HEX  H1P   6708  12.737   4.880   4.269
    1HEX  H1R   6709  12.681   4.367   3.944
    1HEX  H1S   6710  12.701   4.326   4.111
    1HEX  H1T   6711  12.809   3.971   3.796
    1HEX  H1U   6712  12.643   3.934   3.761
    1HEX  H1V   6713  12.664   3.773   3.931
    1HEX  H1W   6714  12.664   3.905   4.048
    1HEX  H1Y   6715  12.941   4.110   3.998
    1HEX  H1Z   6716  12.889   4.153   4.151
    1HEX  H20   6717  13.156   4.370   4.167
    1HEX  H21   6718  13.252   4.236   4.199
    1HEX  H22   6719  13.088   4.047   4.357
    1HEX  H23   6720  13.105   4.117   4.515
    1HEX  H24   6721  13.511   4.023   4.388
    1HEX  H25   6722  13.543   3.998   4.559
    1HEX  H26   6723  13.535   4.279   4.437
    1HEX  H27   6724  13.684   4.186   4.451
    1HEX  H29   6725  13.174   4.472   4.378
    1HEX  H2A   6726  13.300   4.354   4.399
    1HEX  H2B   6727  13.195   4.301   4.794
    1HEX  H2C   6728  13.127   4.463   4.799
    1HEX  H2D   6729  13.358   4.551   4.861
    1HEX  H2E   6730  13.418   4.387   4.861
    1HEX  H2G   6731  12.886   4.262   4.316
    1HEX  H2H   6732  12.946   4.412   4.376
    1HEX  H2I   6733  12.795   4.258   4.738
    1HEX  H2J   6734  12.715   4.106   4.707
    1HEX  H2K   6735  12.573   4.271   4.530
    1HEX  H2M   6736  12.606   4.382   4.661
    1STR  S00   6737  13.530   4.212   3.685
    1STR  S0E   6738  12.884   5.058   4.195
    1STR  S0M   6739  12.778   3.721   4.052
    1STR  S0X   6740  13.639   4.277   4.648
    1STR  S14   6741  13.251   4.452   5.044
    1STR  S1B   6742  12.434   4.309   4.569
    1HEX  C01   6743  13.351   4.208   8.037
    1HEX  C02   6744  13.290   4.210   8.177
    1HEX  C03   6745  13.138   4.210   8.168
    1HEX  O04   6746  13.077   4.111   8.128
    1HEX  O05   6747  13.084   4.327   8.206
    1HEX  C06   6748  12.943   4.341   8.211
    1HEX  C07   6749  12.892   4.333   8.357
    1HEX  C08   6750  12.939   4.461   8.428
    1HEX  O09   6751  12.877   4.582   8.388
    1HEX  C0A   6752  12.819   4.659   8.481
    1HEX  O0B   6753  12.765   4.617   8.584
    1HEX  C0C   6754  12.833   4.807   8.452
    1HEX  C0D   6755  12.833   4.890   8.582
    1HEX  C0F   6756  12.736   4.331   8.362
    1HEX  O0G   6757  12.688   4.212   8.300
    1HEX  C0H   6758  12.648   4.214   8.173
    1HEX  O0I   6759  12.624   4.315   8.106
    1HEX  C0J   6760  12.642   4.075   8.113
    1HEX  C0K   6761  12.523   3.997   8.170
    1HEX  C0N   6762  12.938   4.199   8.426
    1HEX  O0O   6763  13.074   4.179   8.468
    1HEX  C0P   6764  13.141   4.263   8.564
    1HEX  C0Q   6765  13.102   4.263   8.715
    1HEX  C0R   6766  13.136   4.125   8.776
    1HEX  O0S   6767  13.277   4.099   8.767
    1HEX  C0T   6768  13.354   4.093   8.878
    1HEX  O0U   6769  13.315   4.104   8.994
    1HEX  C0V   6770  13.501   4.070   8.846
    1HEX  C0W   6771  13.583   4.200   8.853
    1HEX  C0Y   6772  13.191   4.372   8.778
    1HEX  O0Z   6773  13.167   4.375   8.916
    1HEX  C10   6774  13.257   4.428   8.997
    1HEX  O11   6775  13.359   4.488   8.963
    1HEX  C12   6776  13.218   4.406   9.142
    1HEX  C13   6777  13.329   4.448   9.239
    1HEX  C15   6778  12.953   4.305   8.744
    1HEX  O16   6779  12.895   4.280   8.872
    1HEX  C17   6780  12.795   4.189   8.881
    1HEX  O18   6781  12.789   4.086   8.814
    1HEX  C19   6782  12.685   4.226   8.981
    1HEX  C1A   6783  12.556   4.285   8.914
    1HEX  H1D   6784  13.317   4.120   7.982
    1HEX  H1E   6785  13.317   4.295   7.980
    1HEX  H1F   6786  13.323   4.297   8.233
    1HEX  H1G   6787  13.320   4.122   8.233
    1HEX  H1H   6788  12.895   4.267   8.147
    1HEX  H1I   6789  12.915   4.437   8.168
    1HEX  H1J   6790  13.044   4.479   8.405
    1HEX  H1K   6791  12.931   4.449   8.535
    1HEX  H1M   6792  12.755   4.840   8.384
    1HEX  H1N   6793  12.929   4.821   8.401
    1HEX  H1O   6794  12.908   4.851   8.652
    1HEX  H1P   6795  12.737   4.882   8.632
    1HEX  H1R   6796  12.693   4.421   8.318
    1HEX  H1S   6797  12.701   4.331   8.466
    1HEX  H1T   6798  12.736   4.025   8.134
    1HEX  H1U   6799  12.634   4.085   8.005
    1HEX  H1V   6800  12.430   4.050   8.151
    1HEX  H1W   6801  12.533   3.986   8.278
    1HEX  H1Y   6802  12.924   4.120   8.351
    1HEX  H1Z   6803  12.869   4.163   8.502
    1HEX  H20   6804  13.155   4.363   8.526
    1HEX  H21   6805  13.243   4.224   8.558
    1HEX  H22   6806  13.083   4.046   8.723
    1HEX  H23   6807  13.101   4.120   8.879
    1HEX  H24   6808  13.509   4.024   8.748
    1HEX  H25   6809  13.541   3.998   8.918
    1HEX  H26   6810  13.535   4.280   8.797
    1HEX  H27   6811  13.683   4.186   8.811
    1HEX  H29   6812  13.172   4.471   8.736
    1HEX  H2A   6813  13.297   4.352   8.758
    1HEX  H2B   6814  13.194   4.301   9.154
    1HEX  H2C   6815  13.126   4.462   9.159
    1HEX  H2D   6816  13.358   4.551   9.220
    1HEX  H2E   6817  13.417   4.387   9.221
    1HEX  H2G   6818  12.885   4.266   8.670
    1HEX  H2H   6819  12.945   4.413   8.736
    1HEX  H2I   6820  12.728   4.294   9.055
    1HEX  H2J   6821  12.660   4.135   9.035
    1HEX  H2K   6822  12.570   4.300   8.807
    1HEX  H2M   6823  12.533   4.383   8.957
    1STR  S00   6824  13.532   4.212   8.045
    1STR  S0E   6825  12.883   5.062   8.556
    1STR  S0M   6826  12.530   3.832   8.094
    1STR  S0X   6827  13.639   4.277   9.007
    1STR  S14   6828  13.252   4.454   9.403
    1STR  S1B   6829  12.401   4.327   8.822
    1HEX  C01   6830  13.349   4.209  12.398
    1HEX  C02   6831  13.289   4.212  12.539
    1HEX  C03   6832  13.138   4.217  12.532
    1HEX  O04   6833  13.073   4.121  12.491
    1HEX  O05   6834  13.088   4.336  12.573
    1HEX  C06   6835  12.947   4.355  12.579
    1HEX  C07   6836  12.894   4.347  12.724
    1HEX  C08   6837  12.935   4.475  12.801
    1HEX  O09   6838  12.876   4.600  12.764
    1HEX  C0A   6839  12.845   4.690  12.863
    1HEX  O0B   6840  12.810   4.660  12.977
    1HEX  C0C   6841  12.863   4.837  12.821
    1HEX  C0D   6842  12.883   4.939  12.937
    1HEX  C0F   6843  12.739   4.339  12.724
    1HEX  O0G   6844  12.696   4.218  12.662
    1HEX  C0H   6845  12.651   4.218  12.535
    1HEX  O0I   6846  12.624   4.317  12.469
    1HEX  C0J   6847  12.646   4.078  12.476
    1HEX  C0K   6848  12.526   3.999  12.530
    1HEX  C0N   6849  12.945   4.214  12.793
    1HEX  O0O   6850  13.082   4.196  12.835
    1HEX  C0P   6851  13.154   4.278  12.929
    1HEX  C0Q   6852  13.126   4.271  13.083
    1HEX  C0R   6853  13.172   4.133  13.135
    1HEX  O0S   6854  13.314   4.115  13.122
    1HEX  C0T   6855  13.396   4.118  13.230
    1HEX  O0U   6856  13.359   4.134  13.346
    1HEX  C0V   6857  13.543   4.089  13.197
    1HEX  C0W   6858  13.637   4.212  13.190
    1HEX  C0Y   6859  13.208   4.382  13.156
    1HEX  O0Z   6860  13.169   4.379  13.293
    1HEX  C10   6861  13.248   4.417  13.395
    1HEX  O11   6862  13.358   4.470  13.386
    1HEX  C12   6863  13.178   4.386  13.527
    1HEX  C13   6864  13.254   4.417  13.658
    1HEX  C15   6865  12.976   4.300  13.114
    1HEX  O16   6866  12.936   4.275  13.248
    1HEX  C17   6867  12.864   4.167  13.280
    1HEX  O18   6868  12.837   4.073  13.206
    1HEX  C19   6869  12.810   4.177  13.421
    1HEX  C1A   6870  12.727   4.306  13.436
    1HEX  H1D   6871  13.314   4.120  12.344
    1HEX  H1E   6872  13.316   4.296  12.341
    1HEX  H1F   6873  13.326   4.298  12.595
    1HEX  H1G   6874  13.318   4.123  12.594
    1HEX  H1H   6875  12.898   4.283  12.514
    1HEX  H1I   6876  12.922   4.452  12.535
    1HEX  H1J   6877  13.040   4.494  12.785
    1HEX  H1K   6878  12.919   4.457  12.906
    1HEX  H1M   6879  12.779   4.867  12.757
    1HEX  H1N   6880  12.952   4.840  12.758
    1HEX  H1O   6881  12.953   4.902  13.012
    1HEX  H1P   6882  12.790   4.959  12.989
    1HEX  H1R   6883  12.694   4.427  12.678
    1HEX  H1S   6884  12.701   4.339  12.826
    1HEX  H1T   6885  12.740   4.027  12.497
    1HEX  H1U   6886  12.639   4.087  12.367
    1HEX  H1V   6887  12.433   4.052  12.509
    1HEX  H1W   6888  12.534   3.988  12.638
    1HEX  H1Y   6889  12.932   4.135  12.719
    1HEX  H1Z   6890  12.875   4.177  12.868
    1HEX  H20   6891  13.163   4.380  12.895
    1HEX  H21   6892  13.257   4.243  12.916
    1HEX  H22   6893  13.121   4.053  13.079
    1HEX  H23   6894  13.140   4.119  13.238
    1HEX  H24   6895  13.545   4.033  13.104
    1HEX  H25   6896  13.579   4.021  13.274
    1HEX  H26   6897  13.585   4.301  13.156
    1HEX  H27   6898  13.720   4.193  13.122
    1HEX  H29   6899  13.186   4.481  13.116
    1HEX  H2A   6900  13.315   4.367  13.145
    1HEX  H2B   6901  13.154   4.280  13.525
    1HEX  H2C   6902  13.083   4.440  13.526
    1HEX  H2D   6903  13.290   4.520  13.658
    1HEX  H2E   6904  13.342   4.354  13.667
    1HEX  H2G   6905  12.908   4.247  13.049
    1HEX  H2H   6906  12.955   4.405  13.101
    1HEX  H2I   6907  12.895   4.178  13.490
    1HEX  H2J   6908  12.750   4.089  13.443
    1HEX  H2K   6909  12.648   4.309  13.361
    1HEX  H2M   6910  12.789   4.394  13.419
    1STR  S00   6911  13.530   4.213  12.404
    1STR  S0E   6912  12.960   5.088  13.011
    1STR  S0M   6913  12.530   3.834  12.456
    1STR  S0X   6914  13.810   4.268  13.158
    1STR  S14   6915  13.183   4.382  13.824
    1STR  S1B   6916  12.671   4.342  13.604
    1HEX  C01   6917  13.349   8.569  16.756
    1HEX  C02   6918  13.285   8.570  16.895
    1HEX  C03   6919  13.134   8.565  16.883
    1HEX  O04   6920  13.077   8.463  16.845
    1HEX  O05   6921  13.074   8.679  16.920
    1HEX  C06   6922  12.933   8.683  16.936
    1HEX  C07   6923  12.895   8.669  17.087
    1HEX  C08   6924  12.927   8.807  17.151
    1HEX  O09   6925  12.858   8.924  17.107
    1HEX  C0A   6926  12.812   9.009  17.202
    1HEX  O0B   6927  12.763   8.974  17.309
    1HEX  C0C   6928  12.834   9.157  17.169
    1HEX  C0D   6929  12.835   9.244  17.297
    1HEX  C0F   6930  12.745   8.629  17.104
    1HEX  O0G   6931  12.731   8.484  17.117
    1HEX  C0H   6932  12.724   8.405  17.007
    1HEX  O0I   6933  12.682   8.448  16.900
    1HEX  C0J   6934  12.778   8.258  17.013
    1HEX  C0K   6935  12.824   8.173  17.143
    1HEX  C0N   6936  12.974   8.551  17.156
    1HEX  O0O   6937  13.113   8.560  17.185
    1HEX  C0P   6938  13.164   8.643  17.289
    1HEX  C0Q   6939  13.119   8.629  17.438
    1HEX  C0R   6940  13.151   8.486   0.048
    1HEX  O0S   6941  13.291   8.460   0.043
    1HEX  C0T   6942  13.363   8.450   0.156
    1HEX  O0U   6943  13.320   8.457   0.271
    1HEX  C0V   6944  13.510   8.427   0.127
    1HEX  C0W   6945  13.590   8.558   0.132
    1HEX  C0Y   6946  13.205   8.733   0.074
    1HEX  O0Z   6947  13.170   8.728   0.210
    1HEX  C10   6948  13.246   8.778   0.306
    1HEX  O11   6949  13.351   8.840   0.291
    1HEX  C12   6950  13.182   8.750   0.441
    1HEX  C13   6951  13.267   8.782   0.565
    1HEX  C15   6952  12.970   8.666   0.027
    1HEX  O16   6953  12.928   8.642   0.161
    1HEX  C17   6954  12.858   8.533   0.194
    1HEX  O18   6955  12.830   8.440   0.119
    1HEX  C19   6956  12.809   8.540   0.337
    1HEX  C1A   6957  12.726   8.667   0.357
    1HEX  H1D   6958  13.317   8.481  16.701
    1HEX  H1E   6959  13.316   8.656  16.699
    1HEX  H1F   6960  13.314   8.659  16.952
    1HEX  H1G   6961  13.317   8.484  16.953
    1HEX  H1H   6962  12.884   8.607  16.875
    1HEX  H1I   6963  12.897   8.778  16.897
    1HEX  H1J   6964  13.031   8.832  17.128
    1HEX  H1K   6965  12.920   8.799  17.258
    1HEX  H1M   6966  12.757   9.192  17.100
    1HEX  H1N   6967  12.930   9.167  17.119
    1HEX  H1O   6968  12.909   9.207  17.369
    1HEX  H1P   6969  12.739   9.240  17.348
    1HEX  H1R   6970  12.683   8.671  17.024
    1HEX  H1S   6971  12.705   8.675  17.195
    1HEX  H1T   6972  12.863   8.263  16.945
    1HEX  H1U   6973  12.702   8.202  16.958
    1HEX  H1V   6974  12.807   8.068  17.120
    1HEX  H1W   6975  12.759   8.197  17.227
    1HEX  H1Y   6976  12.970   8.468  17.086
    1HEX  H1Z   6977  12.923   8.508  17.242
    1HEX  H20   6978  13.165   8.746  17.257
    1HEX  H21   6979  13.270   8.616  17.286
    1HEX  H22   6980  13.099   8.411  17.428
    1HEX  H23   6981  13.114   8.472   0.149
    1HEX  H24   6982  13.519   8.380   0.029
    1HEX  H25   6983  13.549   8.357   0.201
    1HEX  H26   6984  13.539   8.637   0.077
    1HEX  H27   6985  13.689   8.546   0.089
    1HEX  H29   6986  13.188   8.834   0.037
    1HEX  H2A   6987  13.312   8.715   0.062
    1HEX  H2B   6988  13.158   8.644   0.441
    1HEX  H2C   6989  13.088   8.805   0.445
    1HEX  H2D   6990  13.293   8.888   0.567
    1HEX  H2E   6991  13.361   8.727   0.561
    1HEX  H2G   6992  12.896   8.621  17.402
    1HEX  H2H   6993  12.956   8.774   0.017
    1HEX  H2I   6994  12.896   8.540   0.403
    1HEX  H2J   6995  12.750   8.451   0.360
    1HEX  H2K   6996  12.646   8.672   0.283
    1HEX  H2M   6997  12.788   8.756   0.342
    1STR  S00   6998  13.530   8.573  16.764
    1STR  S0E   6999  12.882   9.417  17.274
    1STR  S0M   7000  12.917   8.037  17.245
    1STR  S0X   7001  13.644   8.635   0.287
    1STR  S14   7002  13.177   8.739   0.719
    1STR  S1B   7003  12.666   8.697   0.525
    1HEX  C01   7004  13.338   8.551   3.674
    1HEX  C02   7005  13.289   8.564   3.819
    1HEX  C03   7006  13.138   8.564   3.819
    1HEX  O04   7007  13.075   8.461   3.794
    1HEX  O05   7008  13.085   8.685   3.847
    1HEX  C06   7009  12.944   8.700   3.851
    1HEX  C07   7010  12.892   8.693   3.997
    1HEX  C08   7011  12.939   8.821   4.068
    1HEX  O09   7012  12.877   8.943   4.028
    1HEX  C0A   7013  12.818   9.019   4.121
    1HEX  O0B   7014  12.764   8.977   4.224
    1HEX  C0C   7015  12.833   9.167   4.092
    1HEX  C0D   7016  12.833   9.250   4.222
    1HEX  C0F   7017  12.737   8.692   4.001
    1HEX  O0G   7018  12.689   8.573   3.940
    1HEX  C0H   7019  12.648   8.575   3.813
    1HEX  O0I   7020  12.620   8.675   3.747
    1HEX  C0J   7021  12.644   8.436   3.752
    1HEX  C0K   7022  12.525   8.356   3.806
    1HEX  C0N   7023  12.938   8.560   4.067
    1HEX  O0O   7024  13.074   8.538   4.107
    1HEX  C0P   7025  13.145   8.623   4.198
    1HEX  C0Q   7026  13.111   8.622   4.350
    1HEX  C0R   7027  13.148   8.483   4.408
    1HEX  O0S   7028  13.289   8.460   4.402
    1HEX  C0T   7029  13.362   8.452   4.515
    1HEX  O0U   7030  13.319   8.462   4.630
    1HEX  C0V   7031  13.509   8.429   4.487
    1HEX  C0W   7032  13.589   8.560   4.493
    1HEX  C0Y   7033  13.200   8.732   4.413
    1HEX  O0Z   7034  13.176   8.733   4.552
    1HEX  C10   7035  13.262   8.789   4.634
    1HEX  O11   7036  13.364   8.850   4.602
    1HEX  C12   7037  13.220   8.767   4.778
    1HEX  C13   7038  13.329   8.808   4.877
    1HEX  C15   7039  12.964   8.660   4.385
    1HEX  O16   7040  12.927   8.638   4.520
    1HEX  C17   7041  12.858   8.530   4.555
    1HEX  O18   7042  12.831   8.434   4.483
    1HEX  C19   7043  12.809   8.540   4.699
    1HEX  C1A   7044  12.726   8.667   4.716
    1HEX  H1D   7045  13.286   8.470   3.623
    1HEX  H1E   7046  13.315   8.642   3.618
    1HEX  H1F   7047  13.325   8.656   3.866
    1HEX  H1G   7048  13.323   8.480   3.879
    1HEX  H1H   7049  12.897   8.626   3.786
    1HEX  H1I   7050  12.918   8.796   3.806
    1HEX  H1J   7051  13.043   8.840   4.045
    1HEX  H1K   7052  12.931   8.809   4.175
    1HEX  H1M   7053  12.755   9.200   4.024
    1HEX  H1N   7054  12.928   9.181   4.041
    1HEX  H1O   7055  12.908   9.212   4.292
    1HEX  H1P   7056  12.737   9.243   4.272
    1HEX  H1R   7057  12.694   8.781   3.955
    1HEX  H1S   7058  12.702   8.693   4.104
    1HEX  H1T   7059  12.739   8.386   3.773
    1HEX  H1U   7060  12.638   8.446   3.643
    1HEX  H1V   7061  12.432   8.409   3.787
    1HEX  H1W   7062  12.534   8.345   3.915
    1HEX  H1Y   7063  12.921   8.480   3.995
    1HEX  H1Z   7064  12.869   8.527   4.145
    1HEX  H20   7065  13.158   8.723   4.160
    1HEX  H21   7066  13.247   8.584   4.189
    1HEX  H22   7067  13.096   8.405   4.353
    1HEX  H23   7068  13.113   8.474   4.511
    1HEX  H24   7069  13.518   8.382   4.389
    1HEX  H25   7070  13.548   8.358   4.560
    1HEX  H26   7071  13.539   8.639   4.438
    1HEX  H27   7072  13.688   8.547   4.450
    1HEX  H29   7073  13.179   8.831   4.372
    1HEX  H2A   7074  13.306   8.713   4.393
    1HEX  H2B   7075  13.196   8.661   4.790
    1HEX  H2C   7076  13.128   8.823   4.794
    1HEX  H2D   7077  13.358   8.911   4.860
    1HEX  H2E   7078  13.418   8.747   4.861
    1HEX  H2G   7079  12.890   8.612   4.322
    1HEX  H2H   7080  12.949   8.767   4.373
    1HEX  H2I   7081  12.896   8.540   4.765
    1HEX  H2J   7082  12.750   8.451   4.722
    1HEX  H2K   7083  12.646   8.671   4.642
    1HEX  H2M   7084  12.788   8.756   4.700
    1STR  S00   7085  13.322   8.589   3.499
    1STR  S0E   7086  12.885   9.422   4.196
    1STR  S0M   7087  12.529   8.189   3.736
    1STR  S0X   7088  13.640   8.637   4.648
    1STR  S14   7089  13.252   8.812   5.042
    1STR  S1B   7090  12.668   8.700   4.884
    1HEX  C01   7091  13.351   8.569   8.036
    1HEX  C02   7092  13.290   8.570   8.176
    1HEX  C03   7093  13.139   8.571   8.167
    1HEX  O04   7094  13.077   8.472   8.128
    1HEX  O05   7095  13.085   8.688   8.204
    1HEX  C06   7096  12.943   8.702   8.210
    1HEX  C07   7097  12.893   8.693   8.356
    1HEX  C08   7098  12.939   8.822   8.428
    1HEX  O09   7099  12.877   8.943   8.388
    1HEX  C0A   7100  12.818   9.019   8.480
    1HEX  O0B   7101  12.763   8.977   8.583
    1HEX  C0C   7102  12.833   9.167   8.452
    1HEX  C0D   7103  12.834   9.249   8.582
    1HEX  C0F   7104  12.737   8.691   8.362
    1HEX  O0G   7105  12.689   8.572   8.300
    1HEX  C0H   7106  12.648   8.574   8.173
    1HEX  O0I   7107  12.624   8.674   8.106
    1HEX  C0J   7108  12.643   8.435   8.112
    1HEX  C0K   7109  12.524   8.356   8.168
    1HEX  C0N   7110  12.940   8.560   8.425
    1HEX  O0O   7111  13.077   8.540   8.464
    1HEX  C0P   7112  13.147   8.623   8.557
    1HEX  C0Q   7113  13.112   8.622   8.709
    1HEX  C0R   7114  13.148   8.483   8.767
    1HEX  O0S   7115  13.289   8.459   8.761
    1HEX  C0T   7116  13.362   8.452   8.874
    1HEX  O0U   7117  13.319   8.461   8.989
    1HEX  C0V   7118  13.509   8.429   8.846
    1HEX  C0W   7119  13.589   8.560   8.852
    1HEX  C0Y   7120  13.200   8.731   8.773
    1HEX  O0Z   7121  13.176   8.733   8.911
    1HEX  C10   7122  13.262   8.789   8.994
    1HEX  O11   7123  13.363   8.851   8.962
    1HEX  C12   7124  13.220   8.767   9.138
    1HEX  C13   7125  13.329   8.808   9.237
    1HEX  C15   7126  12.964   8.660   8.743
    1HEX  O16   7127  12.927   8.638   8.879
    1HEX  C17   7128  12.858   8.530   8.914
    1HEX  O18   7129  12.830   8.434   8.842
    1HEX  C19   7130  12.809   8.540   9.058
    1HEX  C1A   7131  12.727   8.667   9.076
    1HEX  H1D   7132  13.317   8.481   7.981
    1HEX  H1E   7133  13.318   8.656   7.979
    1HEX  H1F   7134  13.323   8.657   8.233
    1HEX  H1G   7135  13.320   8.482   8.233
    1HEX  H1H   7136  12.896   8.629   8.146
    1HEX  H1I   7137  12.916   8.799   8.167
    1HEX  H1J   7138  13.044   8.841   8.405
    1HEX  H1K   7139  12.931   8.809   8.534
    1HEX  H1M   7140  12.756   9.201   8.384
    1HEX  H1N   7141  12.929   9.181   8.401
    1HEX  H1O   7142  12.908   9.211   8.652
    1HEX  H1P   7143  12.737   9.242   8.632
    1HEX  H1R   7144  12.694   8.781   8.317
    1HEX  H1S   7145  12.703   8.692   8.465
    1HEX  H1T   7146  12.737   8.385   8.134
    1HEX  H1U   7147  12.636   8.445   8.004
    1HEX  H1V   7148  12.431   8.410   8.149
    1HEX  H1W   7149  12.533   8.345   8.276
    1HEX  H1Y   7150  12.924   8.481   8.351
    1HEX  H1Z   7151  12.873   8.526   8.502
    1HEX  H20   7152  13.160   8.724   8.519
    1HEX  H21   7153  13.249   8.585   8.549
    1HEX  H22   7154  13.096   8.404   8.712
    1HEX  H23   7155  13.113   8.474   8.870
    1HEX  H24   7156  13.519   8.382   8.748
    1HEX  H25   7157  13.548   8.358   8.920
    1HEX  H26   7158  13.539   8.639   8.797
    1HEX  H27   7159  13.689   8.547   8.810
    1HEX  H29   7160  13.179   8.830   8.732
    1HEX  H2A   7161  13.306   8.713   8.753
    1HEX  H2B   7162  13.196   8.661   9.150
    1HEX  H2C   7163  13.128   8.823   9.154
    1HEX  H2D   7164  13.358   8.911   9.220
    1HEX  H2E   7165  13.418   8.747   9.220
    1HEX  H2G   7166  12.890   8.612   8.681
    1HEX  H2H   7167  12.949   8.767   8.732
    1HEX  H2I   7168  12.896   8.540   9.124
    1HEX  H2J   7169  12.750   8.451   9.082
    1HEX  H2K   7170  12.647   8.671   9.002
    1HEX  H2M   7171  12.789   8.756   9.060
    1STR  S00   7172  13.532   8.572   8.045
    1STR  S0E   7173  12.883   9.422   8.556
    1STR  S0M   7174  12.530   8.190   8.095
    1STR  S0X   7175  13.639   8.637   9.009
    1STR  S14   7176  13.252   8.811   9.401
    1STR  S1B   7177  12.668   8.700   9.244
    1HEX  C01   7178  13.348   8.569  12.397
    1HEX  C02   7179  13.284   8.570  12.536
    1HEX  C03   7180  13.133   8.567  12.524
    1HEX  O04   7181  13.075   8.466  12.485
    1HEX  O05   7182  13.075   8.682  12.560
    1HEX  C06   7183  12.933   8.690  12.572
    1HEX  C07   7184  12.891   8.679  12.721
    1HEX  C08   7185  12.932   8.813  12.787
    1HEX  O09   7186  12.864   8.932  12.746
    1HEX  C0A   7187  12.814   9.013  12.841
    1HEX  O0B   7188  12.764   8.975  12.947
    1HEX  C0C   7189  12.833   9.161  12.810
    1HEX  C0D   7190  12.835   9.246  12.939
    1HEX  C0F   7191  12.737   8.659  12.735
    1HEX  O0G   7192  12.705   8.519  12.724
    1HEX  C0H   7193  12.680   8.464  12.605
    1HEX  O0I   7194  12.641   8.527  12.507
    1HEX  C0J   7195  12.715   8.314  12.591
    1HEX  C0K   7196  12.728   8.222  12.717
    1HEX  C0N   7197  12.955   8.552  12.790
    1HEX  O0O   7198  13.093   8.545  12.822
    1HEX  C0P   7199  13.154   8.630  12.919
    1HEX  C0Q   7200  13.114   8.624  13.070
    1HEX  C0R   7201  13.149   8.484  13.126
    1HEX  O0S   7202  13.289   8.459  13.121
    1HEX  C0T   7203  13.362   8.452  13.234
    1HEX  O0U   7204  13.319   8.463  13.349
    1HEX  C0V   7205  13.509   8.429  13.207
    1HEX  C0W   7206  13.589   8.559  13.213
    1HEX  C0Y   7207  13.202   8.732  13.135
    1HEX  O0Z   7208  13.177   8.733  13.274
    1HEX  C10   7209  13.262   8.789  13.356
    1HEX  O11   7210  13.363   8.852  13.324
    1HEX  C12   7211  13.220   8.767  13.500
    1HEX  C13   7212  13.329   8.807  13.599
    1HEX  C15   7213  12.966   8.662  13.104
    1HEX  O16   7214  12.928   8.640  13.239
    1HEX  C17   7215  12.858   8.531  13.274
    1HEX  O18   7216  12.829   8.437  13.201
    1HEX  C19   7217  12.810   8.540  13.417
    1HEX  C1A   7218  12.727   8.667  13.436
    1HEX  H1D   7219  13.316   8.481  12.341
    1HEX  H1E   7220  13.316   8.656  12.339
    1HEX  H1F   7221  13.314   8.658  12.592
    1HEX  H1G   7222  13.315   8.483  12.593
    1HEX  H1H   7223  12.884   8.615  12.510
    1HEX  H1I   7224  12.901   8.786  12.531
    1HEX  H1J   7225  13.035   8.835  12.763
    1HEX  H1K   7226  12.926   8.804  12.894
    1HEX  H1M   7227  12.757   9.196  12.741
    1HEX  H1N   7228  12.929   9.172  12.760
    1HEX  H1O   7229  12.909   9.208  13.010
    1HEX  H1P   7230  12.738   9.241  12.989
    1HEX  H1R   7231  12.681   8.721  12.664
    1HEX  H1S   7232  12.704   8.692  12.834
    1HEX  H1T   7233  12.811   8.314  12.538
    1HEX  H1U   7234  12.643   8.274  12.520
    1HEX  H1V   7235  12.690   8.122  12.695
    1HEX  H1W   7236  12.671   8.260  12.801
    1HEX  H1Y   7237  12.944   8.471  12.718
    1HEX  H1Z   7238  12.896   8.513  12.872
    1HEX  H20   7239  13.161   8.732  12.883
    1HEX  H21   7240  13.258   8.597  12.914
    1HEX  H22   7241  13.097   8.406  13.070
    1HEX  H23   7242  13.113   8.473  13.228
    1HEX  H24   7243  13.518   8.381  13.109
    1HEX  H25   7244  13.547   8.358  13.280
    1HEX  H26   7245  13.539   8.639  13.158
    1HEX  H27   7246  13.689   8.547  13.169
    1HEX  H29   7247  13.180   8.832  13.096
    1HEX  H2A   7248  13.308   8.714  13.116
    1HEX  H2B   7249  13.196   8.661  13.511
    1HEX  H2C   7250  13.128   8.823  13.516
    1HEX  H2D   7251  13.358   8.911  13.581
    1HEX  H2E   7252  13.418   8.747  13.581
    1HEX  H2G   7253  12.891   8.616  13.041
    1HEX  H2H   7254  12.952   8.769  13.093
    1HEX  H2I   7255  12.897   8.540  13.483
    1HEX  H2J   7256  12.751   8.451  13.441
    1HEX  H2K   7257  12.646   8.671  13.363
    1HEX  H2M   7258  12.788   8.756  13.420
    1STR  S00   7259  13.529   8.571  12.404
    1STR  S0E   7260  12.883   9.419  12.915
    1STR  S0M   7261  12.798   8.084  12.821
    1STR  S0X   7262  13.640   8.638  13.368
    1STR  S14   7263  13.252   8.813  13.763
    1STR  S1B   7264  12.668   8.701  13.604
    1HEX  C01   7265  13.351  12.929  16.756
    1HEX  C02   7266  13.290  12.930  16.896
    1HEX  C03   7267  13.139  12.931  16.887
    1HEX  O04   7268  13.077  12.832  16.848
    1HEX  O05   7269  13.085  13.048  16.924
    1HEX  C06   7270  12.943  13.062  16.930
    1HEX  C07   7271  12.893  13.053  17.076
    1HEX  C08   7272  12.940  13.182  17.148
    1HEX  O09   7273  12.877  13.303  17.107
    1HEX  C0A   7274  12.818  13.379  17.200
    1HEX  O0B   7275  12.763  13.337  17.302
    1HEX  C0C   7276  12.833  13.528  17.172
    1HEX  C0D   7277  12.834  13.610  17.302
    1HEX  C0F   7278  12.738  13.051  17.082
    1HEX  O0G   7279  12.689  12.932  17.020
    1HEX  C0H   7280  12.648  12.934  16.893
    1HEX  O0I   7281  12.624  13.035  16.826
    1HEX  C0J   7282  12.643  12.795  16.832
    1HEX  C0K   7283  12.524  12.716  16.888
    1HEX  C0N   7284  12.940  12.920  17.145
    1HEX  O0O   7285  13.077  12.900  17.184
    1HEX  C0P   7286  13.147  12.983  17.277
    1HEX  C0Q   7287  13.112  12.982  17.429
    1HEX  C0R   7288  13.148  12.843   0.047
    1HEX  O0S   7289  13.289  12.819   0.041
    1HEX  C0T   7290  13.362  12.812   0.154
    1HEX  O0U   7291  13.319  12.822   0.269
    1HEX  C0V   7292  13.509  12.789   0.126
    1HEX  C0W   7293  13.589  12.920   0.132
    1HEX  C0Y   7294  13.200  13.091   0.053
    1HEX  O0Z   7295  13.176  13.093   0.191
    1HEX  C10   7296  13.262  13.149   0.274
    1HEX  O11   7297  13.363  13.211   0.241
    1HEX  C12   7298  13.220  13.127   0.418
    1HEX  C13   7299  13.329  13.168   0.517
    1HEX  C15   7300  12.964  13.020   0.023
    1HEX  O16   7301  12.927  12.998   0.159
    1HEX  C17   7302  12.858  12.890   0.195
    1HEX  O18   7303  12.830  12.794   0.123
    1HEX  C19   7304  12.809  12.900   0.338
    1HEX  C1A   7305  12.727  13.028   0.356
    1HEX  H1D   7306  13.317  12.841  16.701
    1HEX  H1E   7307  13.318  13.016  16.699
    1HEX  H1F   7308  13.323  13.018  16.953
    1HEX  H1G   7309  13.320  12.842  16.953
    1HEX  H1H   7310  12.896  12.989  16.866
    1HEX  H1I   7311  12.916  13.159  16.887
    1HEX  H1J   7312  13.044  13.201  17.125
    1HEX  H1K   7313  12.931  13.169  17.254
    1HEX  H1M   7314  12.756  13.561  17.104
    1HEX  H1N   7315  12.929  13.541  17.121
    1HEX  H1O   7316  12.908  13.571  17.372
    1HEX  H1P   7317  12.737  13.602  17.352
    1HEX  H1R   7318  12.694  13.141  17.037
    1HEX  H1S   7319  12.703  13.052  17.185
    1HEX  H1T   7320  12.737  12.745  16.854
    1HEX  H1U   7321  12.636  12.805  16.724
    1HEX  H1V   7322  12.431  12.770  16.869
    1HEX  H1W   7323  12.533  12.705  16.996
    1HEX  H1Y   7324  12.924  12.841  17.071
    1HEX  H1Z   7325  12.873  12.886  17.222
    1HEX  H20   7326  13.160  13.084  17.239
    1HEX  H21   7327  13.249  12.945  17.269
    1HEX  H22   7328  13.096  12.764  17.432
    1HEX  H23   7329  13.113  12.834   0.150
    1HEX  H24   7330  13.519  12.742   0.028
    1HEX  H25   7331  13.548  12.719   0.200
    1HEX  H26   7332  13.539  12.999   0.077
    1HEX  H27   7333  13.689  12.908   0.090
    1HEX  H29   7334  13.179  13.191   0.012
    1HEX  H2A   7335  13.306  13.073   0.033
    1HEX  H2B   7336  13.195  13.021   0.430
    1HEX  H2C   7337  13.128  13.183   0.434
    1HEX  H2D   7338  13.358  13.272   0.500
    1HEX  H2E   7339  13.418  13.107   0.500
    1HEX  H2G   7340  12.890  12.972  17.401
    1HEX  H2H   7341  12.949  13.127   0.012
    1HEX  H2I   7342  12.896  12.900   0.404
    1HEX  H2J   7343  12.750  12.811   0.362
    1HEX  H2K   7344  12.647  13.032   0.282
    1HEX  H2M   7345  12.789  13.116   0.340
    1STR  S00   7346  13.532  12.932  16.765
    1STR  S0E   7347  12.883  13.782  17.276
    1STR  S0M   7348  12.530  12.550  16.815
    1STR  S0X   7349  13.639  12.997   0.289
    1STR  S14   7350  13.252  13.172   0.681
    1STR  S1B   7351  12.668  13.060   0.524
    1HEX  C01   7352  13.351  12.929   3.676
    1HEX  C02   7353  13.290  12.931   3.816
    1HEX  C03   7354  13.139  12.931   3.807
    1HEX  O04   7355  13.077  12.832   3.768
    1HEX  O05   7356  13.085  13.048   3.844
    1HEX  C06   7357  12.943  13.062   3.850
    1HEX  C07   7358  12.893  13.053   3.996
    1HEX  C08   7359  12.940  13.182   4.068
    1HEX  O09   7360  12.877  13.303   4.027
    1HEX  C0A   7361  12.818  13.379   4.120
    1HEX  O0B   7362  12.763  13.337   4.222
    1HEX  C0C   7363  12.833  13.528   4.092
    1HEX  C0D   7364  12.834  13.610   4.222
    1HEX  C0F   7365  12.738  13.051   4.002
    1HEX  O0G   7366  12.689  12.932   3.940
    1HEX  C0H   7367  12.648  12.934   3.813
    1HEX  O0I   7368  12.624  13.035   3.746
    1HEX  C0J   7369  12.643  12.795   3.752
    1HEX  C0K   7370  12.524  12.716   3.808
    1HEX  C0N   7371  12.940  12.920   4.065
    1HEX  O0O   7372  13.077  12.900   4.104
    1HEX  C0P   7373  13.147  12.983   4.197
    1HEX  C0Q   7374  13.112  12.982   4.349
    1HEX  C0R   7375  13.148  12.843   4.407
    1HEX  O0S   7376  13.289  12.819   4.401
    1HEX  C0T   7377  13.362  12.812   4.514
    1HEX  O0U   7378  13.319  12.822   4.629
    1HEX  C0V   7379  13.509  12.789   4.486
    1HEX  C0W   7380  13.589  12.920   4.492
    1HEX  C0Y   7381  13.200  13.091   4.413
    1HEX  O0Z   7382  13.176  13.093   4.551
    1HEX  C10   7383  13.262  13.149   4.634
    1HEX  O11   7384  13.363  13.211   4.601
    1HEX  C12   7385  13.220  13.127   4.778
    1HEX  C13   7386  13.329  13.168   4.877
    1HEX  C15   7387  12.964  13.020   4.383
    1HEX  O16   7388  12.927  12.998   4.519
    1HEX  C17   7389  12.858  12.890   4.555
    1HEX  O18   7390  12.830  12.794   4.483
    1HEX  C19   7391  12.809  12.900   4.698
    1HEX  C1A   7392  12.727  13.028   4.716
    1HEX  H1D   7393  13.317  12.841   3.621
    1HEX  H1E   7394  13.318  13.016   3.619
    1HEX  H1F   7395  13.323  13.018   3.873
    1HEX  H1G   7396  13.320  12.842   3.873
    1HEX  H1H   7397  12.896  12.989   3.786
    1HEX  H1I   7398  12.916  13.159   3.807
    1HEX  H1J   7399  13.044  13.201   4.045
    1HEX  H1K   7400  12.931  13.169   4.174
    1HEX  H1M   7401  12.756  13.561   4.024
    1HEX  H1N   7402  12.929  13.541   4.041
    1HEX  H1O   7403  12.908  13.571   4.292
    1HEX  H1P   7404  12.737  13.602   4.272
    1HEX  H1R   7405  12.694  13.141   3.957
    1HEX  H1S   7406  12.703  13.052   4.105
    1HEX  H1T   7407  12.737  12.745   3.774
    1HEX  H1U   7408  12.636  12.805   3.644
    1HEX  H1V   7409  12.431  12.770   3.789
    1HEX  H1W   7410  12.533  12.705   3.916
    1HEX  H1Y   7411  12.924  12.841   3.991
    1HEX  H1Z   7412  12.873  12.886   4.142
    1HEX  H20   7413  13.160  13.084   4.159
    1HEX  H21   7414  13.249  12.945   4.189
    1HEX  H22   7415  13.096  12.764   4.352
    1HEX  H23   7416  13.113  12.834   4.510
    1HEX  H24   7417  13.519  12.742   4.388
    1HEX  H25   7418  13.548  12.719   4.560
    1HEX  H26   7419  13.539  13.000   4.437
    1HEX  H27   7420  13.689  12.908   4.450
    1HEX  H29   7421  13.179  13.191   4.372
    1HEX  H2A   7422  13.306  13.073   4.393
    1HEX  H2B   7423  13.195  13.021   4.790
    1HEX  H2C   7424  13.128  13.183   4.794
    1HEX  H2D   7425  13.358  13.272   4.860
    1HEX  H2E   7426  13.418  13.107   4.860
    1HEX  H2G   7427  12.890  12.972   4.321
    1HEX  H2H   7428  12.949  13.127   4.372
    1HEX  H2I   7429  12.896  12.900   4.764
    1HEX  H2J   7430  12.750  12.811   4.722
    1HEX  H2K   7431  12.647  13.032   4.642
    1HEX  H2M   7432  12.789  13.116   4.700
    1STR  S00   7433  13.532  12.932   3.685
    1STR  S0E   7434  12.883  13.782   4.196
    1STR  S0M   7435  12.531  12.550   3.735
    1STR  S0X   7436  13.639  12.997   4.649
    1STR  S14   7437  13.252  13.172   5.041
    1STR  S1B   7438  12.668  13.060   4.884
    1HEX  C01   7439  13.349  12.929   8.037
    1HEX  C02   7440  13.288  12.933   8.178
    1HEX  C03   7441  13.137  12.938   8.170
    1HEX  O04   7442  13.072  12.842   8.128
    1HEX  O05   7443  13.086  13.057   8.211
    1HEX  C06   7444  12.944  13.075   8.215
    1HEX  C07   7445  12.890  13.066   8.360
    1HEX  C08   7446  12.932  13.194   8.438
    1HEX  O09   7447  12.875  13.321   8.402
    1HEX  C0A   7448  12.843  13.410   8.501
    1HEX  O0B   7449  12.806  13.379   8.614
    1HEX  C0C   7450  12.861  13.557   8.460
    1HEX  C0D   7451  12.877  13.659   8.578
    1HEX  C0F   7452  12.735  13.060   8.361
    1HEX  O0G   7453  12.690  12.939   8.300
    1HEX  C0H   7454  12.649  12.938   8.173
    1HEX  O0I   7455  12.624  13.038   8.105
    1HEX  C0J   7456  12.645  12.798   8.114
    1HEX  C0K   7457  12.526  12.719   8.169
    1HEX  C0N   7458  12.937  12.930   8.426
    1HEX  O0O   7459  13.073  12.906   8.464
    1HEX  C0P   7460  13.146  12.987   8.557
    1HEX  C0Q   7461  13.112  12.984   8.709
    1HEX  C0R   7462  13.148  12.844   8.766
    1HEX  O0S   7463  13.289  12.821   8.760
    1HEX  C0T   7464  13.362  12.812   8.874
    1HEX  O0U   7465  13.319  12.820   8.989
    1HEX  C0V   7466  13.509  12.789   8.846
    1HEX  C0W   7467  13.589  12.920   8.852
    1HEX  C0Y   7468  13.201  13.093   8.773
    1HEX  O0Z   7469  13.177  13.093   8.912
    1HEX  C10   7470  13.263  13.148   8.995
    1HEX  O11   7471  13.365  13.209   8.962
    1HEX  C12   7472  13.220  13.128   9.138
    1HEX  C13   7473  13.329  13.169   9.238
    1HEX  C15   7474  12.965  13.022   8.745
    1HEX  O16   7475  12.928  12.998   8.880
    1HEX  C17   7476  12.858  12.890   8.915
    1HEX  O18   7477  12.830  12.795   8.842
    1HEX  C19   7478  12.809  12.900   9.058
    1HEX  C1A   7479  12.727  13.028   9.076
    1HEX  H1D   7480  13.315  12.841   7.983
    1HEX  H1E   7481  13.317  13.016   7.980
    1HEX  H1F   7482  13.324  13.019   8.234
    1HEX  H1G   7483  13.316  12.844   8.234
    1HEX  H1H   7484  12.896  13.003   8.150
    1HEX  H1I   7485  12.920  13.172   8.172
    1HEX  H1J   7486  13.038  13.213   8.424
    1HEX  H1K   7487  12.915  13.177   8.543
    1HEX  H1M   7488  12.780  13.587   8.395
    1HEX  H1N   7489  12.952  13.561   8.400
    1HEX  H1O   7490  12.953  13.627   8.650
    1HEX  H1P   7491  12.784  13.670   8.634
    1HEX  H1R   7492  12.691  13.149   8.315
    1HEX  H1S   7493  12.698  13.061   8.464
    1HEX  H1T   7494  12.739  12.748   8.137
    1HEX  H1U   7495  12.639  12.807   8.006
    1HEX  H1V   7496  12.432  12.771   8.149
    1HEX  H1W   7497  12.534  12.708   8.278
    1HEX  H1Y   7498  12.921  12.853   8.351
    1HEX  H1Z   7499  12.869  12.895   8.503
    1HEX  H20   7500  13.159  13.087   8.520
    1HEX  H21   7501  13.247  12.948   8.548
    1HEX  H22   7502  13.096  12.766   8.710
    1HEX  H23   7503  13.113  12.835   8.869
    1HEX  H24   7504  13.519  12.743   8.748
    1HEX  H25   7505  13.548  12.719   8.919
    1HEX  H26   7506  13.538  13.000   8.798
    1HEX  H27   7507  13.688  12.908   8.810
    1HEX  H29   7508  13.180  13.192   8.734
    1HEX  H2A   7509  13.307  13.074   8.753
    1HEX  H2B   7510  13.195  13.022   9.150
    1HEX  H2C   7511  13.128  13.184   9.153
    1HEX  H2D   7512  13.358  13.272   9.220
    1HEX  H2E   7513  13.418  13.108   9.221
    1HEX  H2G   7514  12.891  12.975   8.683
    1HEX  H2H   7515  12.951  13.129   8.736
    1HEX  H2I   7516  12.896  12.900   9.124
    1HEX  H2J   7517  12.750  12.812   9.082
    1HEX  H2K   7518  12.647  13.032   9.003
    1HEX  H2M   7519  12.789  13.116   9.060
    1STR  S00   7520  13.530  12.932   8.045
    1STR  S0E   7521  12.939  13.822   8.638
    1STR  S0M   7522  12.531  12.553   8.096
    1STR  S0X   7523  13.640  12.996   9.009
    1STR  S14   7524  13.252  13.170   9.402
    1STR  S1B   7525  12.666  13.058   9.244
    1HEX  C01   7526  13.349  12.930  12.397
    1HEX  C02   7527  13.288  12.934  12.538
    1HEX  C03   7528  13.136  12.940  12.530
    1HEX  O04   7529  13.071  12.844  12.488
    1HEX  O05   7530  13.086  13.058  12.572
    1HEX  C06   7531  12.945  13.079  12.576
    1HEX  C07   7532  12.890  13.070  12.721
    1HEX  C08   7533  12.931  13.198  12.800
    1HEX  O09   7534  12.877  13.326  12.764
    1HEX  C0A   7535  12.855  13.420  12.863
    1HEX  O0B   7536  12.824  13.393  12.978
    1HEX  C0C   7537  12.875  13.566  12.818
    1HEX  C0D   7538  12.904  13.671  12.930
    1HEX  C0F   7539  12.735  13.063  12.721
    1HEX  O0G   7540  12.691  12.941  12.660
    1HEX  C0H   7541  12.650  12.940  12.533
    1HEX  O0I   7542  12.623  13.038  12.465
    1HEX  C0J   7543  12.645  12.799  12.475
    1HEX  C0K   7544  12.526  12.720  12.530
    1HEX  C0N   7545  12.936  12.933  12.787
    1HEX  O0O   7546  13.072  12.908  12.824
    1HEX  C0P   7547  13.146  12.988  12.917
    1HEX  C0Q   7548  13.112  12.984  13.069
    1HEX  C0R   7549  13.148  12.845  13.126
    1HEX  O0S   7550  13.289  12.821  13.120
    1HEX  C0T   7551  13.362  12.812  13.233
    1HEX  O0U   7552  13.319  12.821  13.348
    1HEX  C0V   7553  13.509  12.789  13.206
    1HEX  C0W   7554  13.589  12.920  13.212
    1HEX  C0Y   7555  13.201  13.093  13.133
    1HEX  O0Z   7556  13.177  13.093  13.272
    1HEX  C10   7557  13.263  13.149  13.355
    1HEX  O11   7558  13.365  13.210  13.323
    1HEX  C12   7559  13.220  13.127  13.499
    1HEX  C13   7560  13.329  13.168  13.598
    1HEX  C15   7561  12.965  13.022  13.105
    1HEX  O16   7562  12.928  12.999  13.240
    1HEX  C17   7563  12.858  12.891  13.275
    1HEX  O18   7564  12.830  12.796  13.202
    1HEX  C19   7565  12.810  12.900  13.418
    1HEX  C1A   7566  12.727  13.028  13.436
    1HEX  H1D   7567  13.314  12.841  12.344
    1HEX  H1E   7568  13.316  13.017  12.340
    1HEX  H1F   7569  13.324  13.020  12.594
    1HEX  H1G   7570  13.315  12.845  12.594
    1HEX  H1H   7571  12.896  13.007  12.511
    1HEX  H1I   7572  12.921  13.176  12.533
    1HEX  H1J   7573  13.037  13.215  12.789
    1HEX  H1K   7574  12.910  13.180  12.904
    1HEX  H1M   7575  12.791  13.597  12.757
    1HEX  H1N   7576  12.962  13.565  12.752
    1HEX  H1O   7577  12.977  13.634  13.003
    1HEX  H1P   7578  12.813  13.693  12.987
    1HEX  H1R   7579  12.691  13.151  12.674
    1HEX  H1S   7580  12.698  13.063  12.823
    1HEX  H1T   7581  12.740  12.749  12.498
    1HEX  H1U   7582  12.639  12.807  12.367
    1HEX  H1V   7583  12.433  12.772  12.509
    1HEX  H1W   7584  12.534  12.708  12.638
    1HEX  H1Y   7585  12.920  12.857  12.711
    1HEX  H1Z   7586  12.868  12.898  12.863
    1HEX  H20   7587  13.160  13.088  12.880
    1HEX  H21   7588  13.247  12.948  12.908
    1HEX  H22   7589  13.096  12.767  13.070
    1HEX  H23   7590  13.113  12.835  13.228
    1HEX  H24   7591  13.519  12.743  13.108
    1HEX  H25   7592  13.548  12.719  13.279
    1HEX  H26   7593  13.539  13.000  13.157
    1HEX  H27   7594  13.688  12.908  13.170
    1HEX  H29   7595  13.180  13.192  13.094
    1HEX  H2A   7596  13.307  13.074  13.113
    1HEX  H2B   7597  13.196  13.022  13.510
    1HEX  H2C   7598  13.128  13.184  13.514
    1HEX  H2D   7599  13.358  13.272  13.580
    1HEX  H2E   7600  13.418  13.108  13.581
    1HEX  H2G   7601  12.891  12.975  13.043
    1HEX  H2H   7602  12.951  13.129  13.096
    1HEX  H2I   7603  12.896  12.900  13.484
    1HEX  H2J   7604  12.750  12.812  13.442
    1HEX  H2K   7605  12.647  13.032  13.363
    1HEX  H2M   7606  12.789  13.116  13.420
    1STR  S00   7607  13.530  12.932  12.405
    1STR  S0E   7608  12.987  13.829  12.983
    1STR  S0M   7609  12.530  12.554  12.457
    1STR  S0X   7610  13.639  12.996  13.369
    1STR  S14   7611  13.251  13.171  13.762
    1STR  S1B   7612  12.667  13.059  13.604
   17.44000    17.44000    17.44000
