Gromacs.gro file
    7940
    1STR  BCK1     1   0.708   4.244   4.509
    1STR  O03      2   0.634   4.332   4.553
    1STR  N04      3   0.841   4.266   4.479
    1STR  C05      4   0.947   4.186   4.421
    1STR  C06      5   1.089   4.214   4.442
    1STR  C07      6   1.200   4.138   4.384
    1STR  N08      7   1.343   4.163   4.403
    1STR  C09      8   1.455   4.089   4.366
    1STR  O0A      9   1.445   3.980   4.312
    1STR  O0B     10   1.586   4.142   4.394
    1STR  C0C     11   1.712   4.070   4.353
    1STR  C0D     12   1.734   4.087   4.201
    1STR  C0E     13   1.851   4.101   4.426
    1STR  O0F     14   1.974   4.033   4.378
    1STR  C0G     15   2.104   4.054   4.446
    1STR  C0H     16   2.101   3.978   4.580
    1STR  C0I     17   2.238   4.010   4.371
    1STR  O0J     18   2.363   4.042   4.442
    1STR  C0K     19   2.493   4.001   4.386
    1STR  C0M     20   2.527   4.085   4.262
    1STR  C0N     21   2.614   4.016   4.485
    1STR  O0O     22   2.738   3.960   4.434
    1STR  C0P     23   2.854   4.033   4.418
    1STR  O0Q     24   2.865   4.154   4.429
    1STR  N0R     25   2.957   3.950   4.389
    1STR  C0S     26   3.094   3.965   4.359
    1STR  C0T     27   3.171   3.847   4.364
    1STR  C0U     28   3.308   3.848   4.332
    1STR  C0V     29   3.373   3.966   4.293
    1STR  C0W     30   3.523   3.958   4.266
    1STR  C0X     31   3.298   4.087   4.283
    1STR  N0Y     32   3.358   4.204   4.237
    1STR  BCK2    33   3.450   4.213   4.140
    1STR  O10     34   3.505   4.319   4.110
    1STR  C13     35   3.160   4.086   4.320
    1STR  C14     36   1.158   4.032   4.301
    1STR  C15     37   1.023   4.003   4.277
    1STR  C16     38   0.918   4.078   4.332
    1STR  C17     39   0.779   4.041   4.281
    1STR  H1B     40   0.866   4.360   4.506
    1STR  H1C     41   1.114   4.298   4.506
    1STR  H1D     42   1.368   4.249   4.448
    1STR  H1E     43   1.692   3.964   4.370
    1STR  H1F     44   1.759   4.189   4.175
    1STR  H1G     45   1.817   4.024   4.168
    1STR  H1H     46   1.647   4.057   4.143
    1STR  H1I     47   1.838   4.078   4.532
    1STR  H1J     48   1.870   4.209   4.421
    1STR  H1K     49   2.114   4.161   4.466
    1STR  H1M     50   2.090   3.871   4.565
    1STR  H1N     51   2.020   4.011   4.645
    1STR  H1O     52   2.194   3.994   4.635
    1STR  H1P     53   2.235   3.902   4.352
    1STR  H1Q     54   2.241   4.057   4.273
    1STR  H1R     55   2.487   3.896   4.358
    1STR  H1S     56   2.623   4.054   4.220
    1STR  H1T     57   2.536   4.190   4.287
    1STR  H1U     58   2.453   4.074   4.182
    1STR  H1V     59   2.592   3.963   4.577
    1STR  H1W     60   2.629   4.120   4.514
    1STR  H1X     61   2.924   3.855   4.393
    1STR  H1Y     62   3.127   3.753   4.392
    1STR  H1Z     63   3.364   3.756   4.338
    1STR  H20     64   3.543   3.953   4.159
    1STR  H21     65   3.575   4.045   4.306
    1STR  H22     66   3.568   3.870   4.312
    1STR  H23     67   3.327   4.293   4.274
    1STR  H27     68   3.103   4.177   4.315
    1STR  H28     69   1.228   3.968   4.250
    1STR  H29     70   1.000   3.922   4.210
    1STR  H2A     71   0.696   4.074   4.340
    1STR  H2B     72   0.770   3.932   4.274
    1STR  H2C     73   0.766   4.082   4.181
    1STR  BCK1    74   0.721   4.575   8.593
    1STR  O03     75   0.629   4.504   8.633
    1STR  N04     76   0.854   4.544   8.612
    1STR  C05     77   0.977   4.611   8.577
    1STR  C06     78   1.111   4.555   8.598
    1STR  C07     79   1.237   4.624   8.564
    1STR  N08     80   1.374   4.571   8.575
    1STR  C09     81   1.499   4.630   8.551
    1STR  O0A     82   1.508   4.749   8.523
    1STR  O0B     83   1.623   4.552   8.559
    1STR  C0C     84   1.759   4.616   8.541
    1STR  C0D     85   1.789   4.701   8.665
    1STR  C0E     86   1.895   4.531   8.506
    1STR  O0F     87   2.029   4.601   8.499
    1STR  C0G     88   2.158   4.531   8.459
    1STR  C0H     89   2.145   4.498   8.310
    1STR  C0I     90   2.302   4.605   8.484
    1STR  O0J     91   2.433   4.531   8.466
    1STR  C0K     92   2.567   4.595   8.494
    1STR  C0M     93   2.571   4.634   8.642
    1STR  C0N     94   2.707   4.515   8.467
    1STR  O0O     95   2.836   4.582   8.500
    1STR  C0P     96   2.959   4.516   8.540
    1STR  O0Q     97   2.966   4.397   8.569
    1STR  N0R     98   3.068   4.599   8.537
    1STR  C0S     99   3.211   4.602   8.558
    1STR  C0T    100   3.273   4.702   8.481
    1STR  C0U    101   3.409   4.736   8.494
    1STR  C0V    102   3.493   4.670   8.585
    1STR  C0W    103   3.636   4.724   8.597
    1STR  C0X    104   3.443   4.562   8.663
    1STR  N0Y    105   3.531   4.492   8.752
    1STR  BCK2   106   3.665   4.504   8.779
    1STR  O10    107   3.723   4.431   8.859
    1STR  C13    108   3.301   4.529   8.647
    1STR  C14    109   1.217   4.754   8.512
    1STR  C15    110   1.090   4.810   8.490
    1STR  C16    111   0.971   4.741   8.519
    1STR  C17    112   0.841   4.812   8.483
    1STR  H1B    113   0.862   4.458   8.664
    1STR  H1C    114   1.117   4.457   8.641
    1STR  H1D    115   1.383   4.475   8.605
    1STR  H1E    116   1.746   4.684   8.457
    1STR  H1F    117   1.807   4.640   8.753
    1STR  H1G    118   1.878   4.762   8.648
    1STR  H1H    119   1.707   4.770   8.687
    1STR  H1I    120   1.878   4.480   8.412
    1STR  H1J    121   1.905   4.452   8.581
    1STR  H1K    122   2.161   4.438   8.516
    1STR  H1M    123   2.133   4.588   8.250
    1STR  H1N    124   2.061   4.432   8.289
    1STR  H1O    125   2.235   4.447   8.274
    1STR  H1P    126   2.306   4.693   8.420
    1STR  H1Q    127   2.299   4.644   8.585
    1STR  H1R    128   2.572   4.686   8.434
    1STR  H1S    129   2.666   4.682   8.666
    1STR  H1T    130   2.562   4.546   8.705
    1STR  H1U    131   2.493   4.705   8.669
    1STR  H1V    132   2.712   4.492   8.360
    1STR  H1W    133   2.705   4.418   8.516
    1STR  H1X    134   3.033   4.686   8.503
    1STR  H1Y    135   3.216   4.759   8.409
    1STR  H1Z    136   3.449   4.816   8.434
    1STR  H20    137   3.657   4.754   8.700
    1STR  H21    138   3.710   4.650   8.566
    1STR  H22    139   3.652   4.813   8.536
    1STR  H23    140   3.490   4.417   8.807
    1STR  H27    141   3.259   4.449   8.707
    1STR  H28    142   1.299   4.818   8.484
    1STR  H29    143   1.085   4.909   8.449
    1STR  H2A    144   0.783   4.752   8.413
    1STR  H2B    145   0.859   4.907   8.433
    1STR  H2C    146   0.782   4.833   8.572
    1STR  BCK1   147   0.922  13.040  13.115
    1STR  O03    148   0.886  12.923  13.126
    1STR  N04    149   1.031  13.093  13.173
    1STR  C05    150   1.117  13.037  13.267
    1STR  C06    151   1.258  13.049  13.249
    1STR  C07    152   1.352  12.999  13.343
    1STR  N08    153   1.490  13.017  13.322
    1STR  C09    154   1.595  12.984  13.398
    1STR  O0A    155   1.588  12.925  13.506
    1STR  O0B    156   1.713  13.023  13.343
    1STR  C0C    157   1.838  12.989  13.407
    1STR  C0D    158   1.875  12.844  13.371
    1STR  C0E    159   1.950  13.088  13.370
    1STR  O0F    160   2.071  13.055  13.440
    1STR  C0G    161   2.184  13.141  13.416
    1STR  C0H    162   2.166  13.271  13.497
    1STR  C0I    163   2.314  13.067  13.457
    1STR  O0J    164   2.431  13.141  13.418
    1STR  C0K    165   2.558  13.079  13.443
    1STR  C0M    166   2.581  12.964  13.343
    1STR  C0N    167   2.670  13.184  13.428
    1STR  O0O    168   2.799  13.131  13.461
    1STR  C0P    169   2.897  13.116  13.368
    1STR  O0Q    170   2.885  13.136  13.248
    1STR  N0R    171   3.009  13.077  13.429
    1STR  C0S    172   3.138  13.045  13.385
    1STR  C0T    173   3.233  13.021  13.486
    1STR  C0U    174   3.364  12.983  13.452
    1STR  C0V    175   3.404  12.966  13.318
    1STR  C0W    176   3.545  12.915  13.297
    1STR  C0X    177   3.311  12.992  13.213
    1STR  N0Y    178   3.335  12.975  13.075
    1STR  BCK2   179   3.441  12.961  12.993
    1STR  O10    180   3.560  12.970  13.019
    1STR  C13    181   3.179  13.032  13.250
    1STR  C14    182   1.300  12.933  13.457
    1STR  C15    183   1.161  12.922  13.478
    1STR  C16    184   1.070  12.976  13.386
    1STR  C17    185   0.922  12.970  13.422
    1STR  H1B    186   1.056  13.185  13.139
    1STR  H1C    187   1.294  13.098  13.159
    1STR  H1D    188   1.519  13.063  13.237
    1STR  H1E    189   1.824  12.995  13.516
    1STR  H1F    190   1.890  12.833  13.263
    1STR  H1G    191   1.967  12.814  13.421
    1STR  H1H    192   1.797  12.774  13.401
    1STR  H1I    193   1.918  13.189  13.396
    1STR  H1J    194   1.967  13.086  13.262
    1STR  H1K    195   2.191  13.164  13.310
    1STR  H1M    196   2.153  13.250  13.603
    1STR  H1N    197   2.080  13.329  13.464
    1STR  H1O    198   2.254  13.335  13.487
    1STR  H1P    199   2.315  13.049  13.565
    1STR  H1Q    200   2.313  12.969  13.409
    1STR  H1R    201   2.560  13.040  13.545
    1STR  H1S    202   2.679  12.918  13.359
    1STR  H1T    203   2.579  13.001  13.241
    1STR  H1U    204   2.507  12.885  13.352
    1STR  H1V    205   2.651  13.267  13.497
    1STR  H1W    206   2.669  13.229  13.328
    1STR  H1X    207   2.992  13.071  13.528
    1STR  H1Y    208   3.208  13.031  13.590
    1STR  H1Z    209   3.434  12.964  13.532
    1STR  H20    210   3.546  12.832  13.225
    1STR  H21    211   3.609  12.995  13.260
    1STR  H22    212   3.590  12.878  13.389
    1STR  H23    213   3.250  12.978  13.022
    1STR  H27    214   3.106  13.052  13.173
    1STR  H28    215   1.363  12.890  13.533
    1STR  H29    216   1.126  12.873  13.568
    1STR  H2A    217   0.871  13.062  13.391
    1STR  H2B    218   0.908  12.960  13.530
    1STR  H2C    219   0.874  12.885  13.374
    1STR  BCK1   220   5.274   4.287   4.376
    1STR  O03    221   5.193   4.345   4.305
    1STR  N04    222   5.402   4.256   4.348
    1STR  C05    223   5.483   4.251   4.231
    1STR  C06    224   5.625   4.255   4.247
    1STR  C07    225   5.718   4.239   4.139
    1STR  N08    226   5.859   4.237   4.162
    1STR  C09    227   5.963   4.210   4.079
    1STR  O0A    228   5.951   4.183   3.960
    1STR  O0B    229   6.088   4.216   4.141
    1STR  C0C    230   6.212   4.200   4.066
    1STR  C0D    231   6.240   4.331   3.991
    1STR  C0E    232   6.337   4.157   4.153
    1STR  O0F    233   6.466   4.145   4.083
    1STR  C0G    234   6.583   4.097   4.157
    1STR  C0H    235   6.563   3.947   4.182
    1STR  C0I    236   6.722   4.124   4.084
    1STR  O0J    237   6.847   4.109   4.161
    1STR  C0K    238   6.975   4.151   4.099
    1STR  C0M    239   6.971   4.303   4.080
    1STR  C0N    240   7.111   4.118   4.177
    1STR  O0O    241   7.233   4.156   4.103
    1STR  C0P    242   7.357   4.193   4.159
    1STR  O0Q    243   7.377   4.218   4.278
    1STR  N0R    244   7.450   4.192   4.062
    1STR  C0S    245   7.590   4.205   4.032
    1STR  C0T    246   7.621   4.118   3.926
    1STR  C0U    247   7.739   4.131   3.853
    1STR  C0V    248   7.834   4.228   3.885
    1STR  C0W    249   7.947   4.243   3.787
    1STR  C0X    250   7.821   4.308   4.003
    1STR  N0Y    251   7.930   4.393   4.043
    1STR  BCK2   252   8.051   4.422   3.984
    1STR  O10    253   8.136   4.492   4.039
    1STR  C13    254   7.695   4.296   4.075
    1STR  C14    255   5.661   4.223   4.010
    1STR  C15    256   5.522   4.220   3.992
    1STR  C16    257   5.432   4.231   4.100
    1STR  C17    258   5.284   4.215   4.068
    1STR  H1B    259   5.453   4.235   4.432
    1STR  H1C    260   5.665   4.269   4.346
    1STR  H1D    261   5.890   4.258   4.255
    1STR  H1E    262   6.196   4.122   3.991
    1STR  H1F    263   6.255   4.415   4.060
    1STR  H1G    264   6.330   4.323   3.929
    1STR  H1H    265   6.158   4.357   3.924
    1STR  H1I    266   6.311   4.062   4.200
    1STR  H1J    267   6.349   4.229   4.235
    1STR  H1K    268   6.586   4.150   4.252
    1STR  H1M    269   6.546   3.893   4.089
    1STR  H1N    270   6.478   3.926   4.247
    1STR  H1O    271   6.650   3.903   4.230
    1STR  H1P    272   6.727   4.062   3.994
    1STR  H1Q    273   6.715   4.226   4.047
    1STR  H1R    274   6.981   4.102   4.002
    1STR  H1S    275   7.066   4.339   4.041
    1STR  H1T    276   6.953   4.352   4.175
    1STR  H1U    277   6.895   4.335   4.009
    1STR  H1V    278   7.117   4.010   4.194
    1STR  H1W    279   7.112   4.164   4.275
    1STR  H1X    280   7.399   4.162   3.981
    1STR  H1Y    281   7.551   4.042   3.895
    1STR  H1Z    282   7.754   4.066   3.768
    1STR  H20    283   7.960   4.347   3.756
    1STR  H21    284   8.036   4.209   3.838
    1STR  H22    285   7.934   4.183   3.697
    1STR  H23    286   7.920   4.441   4.131
    1STR  H27    287   7.676   4.359   4.161
    1STR  H28    288   5.722   4.212   3.922
    1STR  H29    289   5.483   4.206   3.892
    1STR  H2A    290   5.234   4.152   4.142
    1STR  H2B    291   5.268   4.168   3.971
    1STR  H2C    292   5.235   4.312   4.065
    1STR  BCK1   293   5.280   8.710   4.417
    1STR  O03    294   5.223   8.729   4.524
    1STR  N04    295   5.398   8.763   4.378
    1STR  C05    296   5.482   8.863   4.432
    1STR  C06    297   5.624   8.852   4.417
    1STR  C07    298   5.717   8.953   4.461
    1STR  N08    299   5.857   8.940   4.438
    1STR  C09    300   5.963   9.018   4.475
    1STR  O0A    301   5.951   9.118   4.544
    1STR  O0B    302   6.087   8.972   4.429
    1STR  C0C    303   6.212   9.036   4.471
    1STR  C0D    304   6.243   8.990   4.615
    1STR  C0E    305   6.337   9.010   4.376
    1STR  O0F    306   6.466   9.067   4.416
    1STR  C0G    307   6.581   9.054   4.325
    1STR  C0H    308   6.556   9.149   4.206
    1STR  C0I    309   6.725   9.084   4.388
    1STR  O0J    310   6.844   9.053   4.305
    1STR  C0K    311   6.981   9.071   4.358
    1STR  C0M    312   6.999   8.977   4.478
    1STR  C0N    313   7.101   9.046   4.252
    1STR  O0O    314   7.239   9.084   4.287
    1STR  C0P    315   7.355   9.019   4.236
    1STR  O0Q    316   7.354   8.911   4.178
    1STR  N0R    317   7.470   9.087   4.264
    1STR  C0S    318   7.612   9.063   4.267
    1STR  C0T    319   7.672   9.124   4.380
    1STR  C0U    320   7.807   9.105   4.411
    1STR  C0V    321   7.892   9.030   4.328
    1STR  C0W    322   8.028   8.990   4.385
    1STR  C0X    323   7.845   8.982   4.203
    1STR  N0Y    324   7.938   8.913   4.121
    1STR  BCK2   325   8.050   8.960   4.056
    1STR  O10    326   8.140   8.887   4.017
    1STR  C13    327   7.702   8.994   4.177
    1STR  C14    328   5.660   9.066   4.524
    1STR  C15    329   5.520   9.080   4.538
    1STR  C16    330   5.431   8.983   4.490
    1STR  C17    331   5.282   9.015   4.497
    1STR  H1B    332   5.435   8.718   4.296
    1STR  H1C    333   5.663   8.764   4.370
    1STR  H1D    334   5.888   8.860   4.386
    1STR  H1E    335   6.195   9.144   4.473
    1STR  H1F    336   6.257   8.882   4.620
    1STR  H1G    337   6.333   9.039   4.653
    1STR  H1H    338   6.161   9.016   4.683
    1STR  H1I    339   6.309   9.048   4.278
    1STR  H1J    340   6.349   8.902   4.364
    1STR  H1K    341   6.584   8.951   4.289
    1STR  H1M    342   6.539   9.251   4.240
    1STR  H1N    343   6.469   9.119   4.147
    1STR  H1O    344   6.641   9.150   4.138
    1STR  H1P    345   6.729   9.189   4.418
    1STR  H1Q    346   6.730   9.027   4.481
    1STR  H1R    347   6.990   9.174   4.393
    1STR  H1S    348   7.100   8.982   4.518
    1STR  H1T    349   6.980   8.873   4.448
    1STR  H1U    350   6.932   9.000   4.560
    1STR  H1V    351   7.077   9.103   4.163
    1STR  H1W    352   7.100   8.942   4.221
    1STR  H1X    353   7.443   9.174   4.305
    1STR  H1Y    354   7.612   9.181   4.449
    1STR  H1Z    355   7.844   9.146   4.504
    1STR  H20    356   8.019   8.889   4.426
    1STR  H21    357   8.108   8.991   4.312
    1STR  H22    358   8.057   9.055   4.468
    1STR  H23    359   7.934   8.812   4.122
    1STR  H27    360   7.662   8.950   4.087
    1STR  H28    361   5.721   9.146   4.562
    1STR  H29    362   5.482   9.170   4.584
    1STR  H2A    363   5.229   8.977   4.410
    1STR  H2B    364   5.264   9.122   4.501
    1STR  H2C    365   5.237   8.971   4.587
    1STR  BCK1   366   9.611   4.290   4.423
    1STR  O03    367   9.548   4.393   4.400
    1STR  N04    368   9.744   4.289   4.428
    1STR  C05    369   9.833   4.181   4.448
    1STR  C06    370   9.973   4.207   4.447
    1STR  C07    371  10.070   4.104   4.464
    1STR  N08    372  10.208   4.134   4.465
    1STR  C09    373  10.315   4.053   4.482
    1STR  O0A    374  10.309   3.932   4.498
    1STR  O0B    375  10.434   4.121   4.479
    1STR  C0C    376  10.558   4.048   4.489
    1STR  C0D    377  10.594   3.989   4.351
    1STR  C0E    378  10.674   4.137   4.543
    1STR  O0F    379  10.796   4.061   4.557
    1STR  C0G    380  10.909   4.131   4.612
    1STR  C0H    381  10.890   4.145   4.764
    1STR  C0I    382  11.041   4.056   4.579
    1STR  O0J    383  11.157   4.134   4.614
    1STR  C0K    384  11.286   4.079   4.581
    1STR  C0M    385  11.308   4.083   4.430
    1STR  C0N    386  11.398   4.160   4.653
    1STR  O0O    387  11.529   4.105   4.630
    1STR  C0P    388  11.633   4.181   4.584
    1STR  O0Q    389  11.626   4.297   4.545
    1STR  N0R    390  11.745   4.108   4.589
    1STR  C0S    391  11.879   4.129   4.550
    1STR  C0T    392  11.965   4.020   4.566
    1STR  C0U    393  12.098   4.025   4.522
    1STR  C0V    394  12.150   4.141   4.461
    1STR  C0W    395  12.290   4.130   4.402
    1STR  C0X    396  12.069   4.258   4.451
    1STR  N0Y    397  12.110   4.378   4.391
    1STR  BCK2   398  12.228   4.443   4.380
    1STR  O10    399  12.335   4.414   4.433
    1STR  C13    400  11.933   4.249   4.494
    1STR  C14    401  10.021   3.972   4.479
    1STR  C15    402   9.884   3.945   4.481
    1STR  C16    403   9.789   4.047   4.468
    1STR  C17    404   9.642   4.006   4.477
    1STR  H1B    405   9.783   4.381   4.413
    1STR  H1C    406  10.007   4.308   4.434
    1STR  H1D    407  10.236   4.230   4.452
    1STR  H1E    408  10.545   3.966   4.559
    1STR  H1F    409  10.609   4.067   4.276
    1STR  H1G    410  10.685   3.929   4.357
    1STR  H1H    411  10.515   3.923   4.315
    1STR  H1I    412  10.643   4.177   4.639
    1STR  H1J    413  10.690   4.221   4.477
    1STR  H1K    414  10.915   4.230   4.567
    1STR  H1M    415  10.877   4.048   4.811
    1STR  H1N    416  10.805   4.207   4.790
    1STR  H1O    417  10.978   4.192   4.810
    1STR  H1P    418  11.043   3.960   4.630
    1STR  H1Q    419  11.041   4.035   4.472
    1STR  H1R    420  11.291   3.975   4.617
    1STR  H1S    421  11.407   4.046   4.404
    1STR  H1T    422  11.302   4.186   4.393
    1STR  H1U    423  11.237   4.023   4.374
    1STR  H1V    424  11.381   4.158   4.760
    1STR  H1W    425  11.394   4.265   4.624
    1STR  H1X    426  11.724   4.018   4.628
    1STR  H1Y    427  11.930   3.927   4.610
    1STR  H1Z    428  12.161   3.938   4.532
    1STR  H20    429  12.297   4.185   4.308
    1STR  H21    430  12.364   4.169   4.472
    1STR  H22    431  12.316   4.027   4.380
    1STR  H23    432  12.034   4.432   4.353
    1STR  H27    433  11.868   4.334   4.484
    1STR  H28    434  10.086   3.887   4.490
    1STR  H29    435   9.852   3.843   4.495
    1STR  H2A    436   9.593   4.060   4.558
    1STR  H2B    437   9.631   3.900   4.498
    1STR  H2C    438   9.591   4.027   4.383
    1STR  BCK1   439   9.362   4.227   8.392
    1STR  O03    440   9.283   4.148   8.444
    1STR  N04    441   9.496   4.234   8.434
    1STR  C05    442   9.612   4.320   8.410
    1STR  C06    443   9.754   4.283   8.435
    1STR  C07    444   9.873   4.368   8.413
    1STR  N08    445  10.016   4.339   8.438
    1STR  C09    446  10.135   4.402   8.397
    1STR  O0A    447  10.131   4.495   8.318
    1STR  O0B    448  10.269   4.357   8.445
    1STR  C0C    449  10.402   4.423   8.407
    1STR  C0D    450  10.415   4.560   8.476
    1STR  C0E    451  10.548   4.350   8.425
    1STR  O0F    452  10.677   4.419   8.386
    1STR  C0G    453  10.812   4.352   8.396
    1STR  C0H    454  10.817   4.241   8.290
    1STR  C0I    455  10.951   4.436   8.379
    1STR  O0J    456  11.080   4.363   8.395
    1STR  C0K    457  11.212   4.428   8.375
    1STR  C0M    458  11.239   4.531   8.485
    1STR  C0N    459  11.342   4.335   8.373
    1STR  O0O    460  11.468   4.403   8.339
    1STR  C0P    461  11.589   4.389   8.411
    1STR  O0Q    462  11.600   4.335   8.520
    1STR  N0R    463  11.691   4.444   8.342
    1STR  C0S    464  11.831   4.467   8.359
    1STR  C0T    465  11.897   4.505   8.240
    1STR  C0U    466  12.033   4.542   8.240
    1STR  C0V    467  12.109   4.543   8.357
    1STR  C0W    468  12.255   4.587   8.343
    1STR  C0X    469  12.048   4.503   8.480
    1STR  N0Y    470  12.121   4.502   8.601
    1STR  BCK2   471  12.238   4.562   8.630
    1STR  O10    472  12.295   4.550   8.738
    1STR  C13    473  11.909   4.464   8.479
    1STR  C14    474   9.839   4.497   8.365
    1STR  C15    475   9.706   4.538   8.345
    1STR  C16    476   9.594   4.455   8.368
    1STR  C17    477   9.460   4.526   8.356
    1STR  H1B    478   9.513   4.158   8.498
    1STR  H1C    479   9.771   4.183   8.473
    1STR  H1D    480  10.035   4.261   8.499
    1STR  H1E    481  10.392   4.443   8.300
    1STR  H1F    482  10.431   4.551   8.583
    1STR  H1G    483  10.501   4.615   8.436
    1STR  H1H    484  10.327   4.624   8.460
    1STR  H1I    485  10.543   4.255   8.372
    1STR  H1J    486  10.559   4.324   8.530
    1STR  H1K    487  10.817   4.307   8.495
    1STR  H1M    488  10.810   4.282   8.190
    1STR  H1N    489  10.738   4.167   8.303
    1STR  H1O    490  10.912   4.187   8.296
    1STR  H1P    491  10.952   4.483   8.280
    1STR  H1Q    492  10.951   4.519   8.450
    1STR  H1R    493  11.210   4.479   8.278
    1STR  H1S    494  11.335   4.581   8.468
    1STR  H1T    495  11.246   4.483   8.582
    1STR  H1U    496  11.163   4.609   8.490
    1STR  H1V    497  11.330   4.257   8.297
    1STR  H1W    498  11.354   4.281   8.467
    1STR  H1X    499  11.655   4.473   8.253
    1STR  H1Y    500  11.846   4.508   8.146
    1STR  H1Z    501  12.079   4.571   8.146
    1STR  H20    502  12.270   4.683   8.394
    1STR  H21    503  12.323   4.513   8.384
    1STR  H22    504  12.284   4.603   8.239
    1STR  H23    505  12.083   4.453   8.680
    1STR  H27    506  11.861   4.434   8.571
    1STR  H28    507   9.915   4.571   8.346
    1STR  H29    508   9.690   4.639   8.312
    1STR  H2A    509   9.372   4.463   8.354
    1STR  H2B    510   9.457   4.586   8.265
    1STR  H2C    511   9.448   4.594   8.441
    1STR  BCK1   512  13.753   4.236  12.951
    1STR  O03    513  13.657   4.237  13.027
    1STR  N04    514  13.890   4.263  12.980
    1STR  C05    515  13.988   4.306  13.084
    1STR  C06    516  14.136   4.308  13.066
    1STR  C07    517  14.239   4.345  13.168
    1STR  N08    518  14.387   4.360  13.154
    1STR  C09    519  14.492   4.389  13.246
    1STR  O0A    520  14.468   4.400  13.366
    1STR  O0B    521  14.634   4.408  13.202
    1STR  C0C    522  14.754   4.435  13.296
    1STR  C0D    523  14.786   4.307  13.376
    1STR  C0E    524  14.900   4.497  13.248
    1STR  O0F    525  15.024   4.493  13.336
    1STR  C0G    526  15.157   4.554  13.296
    1STR  C0H    527  15.147   4.708  13.308
    1STR  C0I    528  15.298   4.514  13.370
    1STR  O0J    529  15.426   4.569  13.314
    1STR  C0K    530  15.559   4.544  13.377
    1STR  C0M    531  15.596   4.395  13.367
    1STR  C0N    532  15.686   4.622  13.318
    1STR  O0O    533  15.814   4.601  13.388
    1STR  C0P    534  15.936   4.568  13.325
    1STR  O0Q    535  15.947   4.536  13.207
    1STR  N0R    536  16.039   4.576  13.411
    1STR  C0S    537  16.179   4.544  13.413
    1STR  C0T    538  16.242   4.569  13.537
    1STR  C0U    539  16.375   4.532  13.561
    1STR  C0V    540  16.453   4.470  13.462
    1STR  C0W    541  16.591   4.420  13.506
    1STR  C0X    542  16.399   4.453  13.332
    1STR  N0Y    543  16.478   4.400  13.227
    1STR  BCK2   544  16.612   4.382  13.221
    1STR  O10    545  16.669   4.336  13.123
    1STR  C13    546  16.261   4.488  13.310
    1STR  C14    547  14.182   4.372  13.294
    1STR  C15    548  14.043   4.376  13.315
    1STR  C16    549  13.948   4.353  13.213
    1STR  C17    550  13.808   4.390  13.254
    1STR  H1B    551  13.940   4.244  12.895
    1STR  H1C    552  14.173   4.281  12.969
    1STR  H1D    553  14.424   4.349  13.061
    1STR  H1E    554  14.715   4.506  13.369
    1STR  H1F    555  14.830   4.230  13.312
    1STR  H1G    556  14.860   4.329  13.454
    1STR  H1H    557  14.699   4.266  13.426
    1STR  H1I    558  14.884   4.601  13.221
    1STR  H1J    559  14.928   4.447  13.155
    1STR  H1K    560  15.172   4.529  13.191
    1STR  H1M    561  15.136   4.738  13.413
    1STR  H1N    562  15.065   4.750  13.252
    1STR  H1O    563  15.239   4.755  13.272
    1STR  H1P    564  15.292   4.545  13.474
    1STR  H1Q    565  15.306   4.406  13.372
    1STR  H1R    566  15.552   4.571  13.482
    1STR  H1S    567  15.692   4.376  13.415
    1STR  H1T    568  15.607   4.365  13.263
    1STR  H1U    569  15.523   4.330  13.415
    1STR  H1V    570  15.667   4.729  13.323
    1STR  H1W    571  15.699   4.600  13.212
    1STR  H1X    572  16.004   4.612  13.498
    1STR  H1Y    573  16.188   4.615  13.619
    1STR  H1Z    574  16.417   4.549  13.659
    1STR  H20    575  16.605   4.317  13.474
    1STR  H21    576  16.670   4.482  13.464
    1STR  H22    577  16.603   4.420  13.614
    1STR  H23    578  16.433   4.375  13.140
    1STR  H27    579  16.216   4.472  13.213
    1STR  H28    580  14.242   4.394  13.381
    1STR  H29    581  14.009   4.404  13.413
    1STR  H2A    582  13.736   4.396  13.174
    1STR  H2B    583  13.809   4.490  13.298
    1STR  H2C    584  13.775   4.324  13.333
    1STR  BCK1   585   0.160   0.819   4.473
    1STR  O03    586   0.093   0.755   4.554
    1STR  N04    587   0.139   0.951   4.454
    1STR  C05    588   0.201   1.044   4.366
    1STR  C06    589   0.183   1.186   4.386
    1STR  C07    590   0.242   1.286   4.301
    1STR  N08    591   0.223   1.427   4.322
    1STR  C09    592   0.285   1.535   4.264
    1STR  O0A    593   0.375   1.524   4.181
    1STR  O0B    594   0.240   1.661   4.306
    1STR  C0C    595   0.295   1.785   4.247
    1STR  C0D    596   0.232   1.808   4.108
    1STR  C0E    597   0.279   1.916   4.334
    1STR  O0F    598   0.333   2.040   4.275
    1STR  C0G    599   0.329   2.163   4.355
    1STR  C0H    600   0.438   2.152   4.464
    1STR  C0I    601   0.350   2.297   4.273
    1STR  O0J    602   0.328   2.421   4.347
    1STR  C0K    603   0.338   2.550   4.277
    1STR  C0M    604   0.222   2.562   4.177
    1STR  C0N    605   0.332   2.677   4.370
    1STR  O0O    606   0.345   2.804   4.298
    1STR  C0P    607   0.256   2.910   4.309
    1STR  O0Q    608   0.148   2.906   4.367
    1STR  N0R    609   0.307   3.019   4.250
    1STR  C0S    610   0.271   3.155   4.227
    1STR  C0T    611   0.380   3.238   4.197
    1STR  C0U    612   0.363   3.374   4.166
    1STR  C0V    613   0.235   3.433   4.161
    1STR  C0W    614   0.230   3.581   4.128
    1STR  C0X    615   0.120   3.354   4.190
    1STR  N0Y    616  17.429   3.410   4.186
    1STR  BCK2   617  17.381   3.527   4.137
    1STR  O10    618  17.263   3.556   4.149
    1STR  C13    619   0.140   3.215   4.225
    1STR  C14    620   0.317   1.237   4.192
    1STR  C15    621   0.336   1.100   4.170
    1STR  C16    622   0.279   1.002   4.255
    1STR  C17    623   0.302   0.856   4.217
    1STR  H1B    624   0.064   0.985   4.512
    1STR  H1C    625   0.123   1.218   4.470
    1STR  H1D    626   0.155   1.456   4.389
    1STR  H1E    627   0.402   1.769   4.232
    1STR  H1F    628   0.125   1.826   4.114
    1STR  H1G    629   0.277   1.894   4.059
    1STR  H1H    630   0.247   1.722   4.042
    1STR  H1I    631   0.328   1.897   4.429
    1STR  H1J    632   0.174   1.932   4.357
    1STR  H1K    633   0.231   2.170   4.402
    1STR  H1M    634   0.536   2.138   4.420
    1STR  H1N    635   0.420   2.070   4.532
    1STR  H1O    636   0.441   2.243   4.524
    1STR  H1P    637   0.451   2.298   4.230
    1STR  H1Q    638   0.282   2.293   4.188
    1STR  H1R    639   0.433   2.552   4.223
    1STR  H1S    640   0.228   2.658   4.125
    1STR  H1T    641   0.126   2.560   4.229
    1STR  H1U    642   0.223   2.485   4.101
    1STR  H1V    643   0.415   2.673   4.441
    1STR  H1W    644   0.242   2.677   4.431
    1STR  H1X    645   0.399   2.995   4.217
    1STR  H1Y    646   0.481   3.200   4.199
    1STR  H1Z    647   0.451   3.433   4.144
    1STR  H20    648   0.169   3.600   4.040
    1STR  H21    649   0.188   3.637   4.212
    1STR  H22    650   0.329   3.622   4.107
    1STR  H23    651  17.356   3.356   4.228
    1STR  H27    652   0.055   3.153   4.248
    1STR  H28    653   0.363   1.303   4.120
    1STR  H29    654   0.394   1.069   4.085
    1STR  H2A    655   0.341   0.797   4.300
    1STR  H2B    656   0.377   0.847   4.138
    1STR  H2C    657   0.210   0.812   4.181
    1STR  BCK1   658  17.411   5.140  17.185
    1STR  O03    659   0.069   5.068  17.172
    1STR  N04    660  17.424   5.267  17.234
    1STR  C05    661  17.327   5.366  17.269
    1STR  C06    662  17.351   5.508  17.253
    1STR  C07    663  17.254   5.611  17.287
    1STR  N08    664  17.279   5.753  17.282
    1STR  C09    665  17.192   5.860  17.290
    1STR  O0A    666  17.070   5.846  17.292
    1STR  O0B    667  17.250   5.989  17.294
    1STR  C0C    668  17.166   6.110  17.309
    1STR  C0D    669  17.119   6.126   0.015
    1STR  C0E    670  17.230   6.247  17.260
    1STR  O0F    671  17.147   6.368  17.272
    1STR  C0G    672  17.198   6.494  17.218
    1STR  C0H    673  17.190   6.488  17.065
    1STR  C0I    674  17.124   6.627  17.266
    1STR  O0J    675  17.186   6.750  17.214
    1STR  C0K    676  17.126   6.879  17.246
    1STR  C0M    677  17.148   6.912  17.395
    1STR  C0N    678  17.185   6.998  17.161
    1STR  O0O    679  17.111   7.122  17.175
    1STR  C0P    680  17.172   7.244  17.196
    1STR  O0Q    681  17.291   7.262  17.217
    1STR  N0R    682  17.079   7.342  17.195
    1STR  C0S    683  17.080   7.478  17.230
    1STR  C0T    684  16.959   7.525  17.286
    1STR  C0U    685  16.947   7.656  17.336
    1STR  C0V    686  17.054   7.747  17.325
    1STR  C0W    687  17.045   7.878  17.402
    1STR  C0X    688  17.170   7.709  17.252
    1STR  N0Y    689  17.264   7.808  17.219
    1STR  BCK2   690  17.232   7.928  17.169
    1STR  O10    691  17.317   8.013  17.141
    1STR  C13    692  17.185   7.573  17.212
    1STR  C14    693  17.129   5.563  17.333
    1STR  C15    694  17.105   5.426  17.355
    1STR  C16    695  17.204   5.329  17.331
    1STR  C17    696  17.176   5.192  17.390
    1STR  H1B    697   0.080   5.293  17.244
    1STR  H1C    698   0.006   5.539  17.215
    1STR  H1D    699  17.374   5.783  17.274
    1STR  H1E    700  17.077   6.094  17.248
    1STR  H1F    701  17.202   6.147   0.082
    1STR  H1G    702  17.049   6.209   0.023
    1STR  H1H    703  17.067   6.037   0.051
    1STR  H1I    704  17.258   6.233  17.155
    1STR  H1J    705  17.323   6.264  17.314
    1STR  H1K    706  17.302   6.504  17.249
    1STR  H1M    707  17.087   6.475  17.031
    1STR  H1N    708  17.250   6.408  17.023
    1STR  H1O    709  17.227   6.581  17.021
    1STR  H1P    710  17.020   6.624  17.235
    1STR  H1Q    711  17.124   6.629  17.375
    1STR  H1R    712  17.019   6.874  17.226
    1STR  H1S    713  17.107   7.010  17.419
    1STR  H1T    714  17.255   6.916  17.418
    1STR  H1U    715  17.101   6.840   0.021
    1STR  H1V    716  17.181   6.971  17.055
    1STR  H1W    717  17.290   7.013  17.184
    1STR  H1X    718  16.990   7.302  17.173
    1STR  H1Y    719  16.874   7.460  17.296
    1STR  H1Z    720  16.856   7.686  17.385
    1STR  H20    721  17.133   7.889   0.025
    1STR  H21    722  17.039   7.965  17.337
    1STR  H22    723  16.958   7.881   0.028
    1STR  H23    724  17.363   7.787  17.225
    1STR  H27    725  17.277   7.541  17.164
    1STR  H28    726  17.048   5.629  17.358
    1STR  H29    727  17.010   5.396  17.396
    1STR  H2A    728  17.255   5.119  17.377
    1STR  H2B    729  17.082   5.154  17.352
    1STR  H2C    730  17.164   5.203   0.058
    1STR  BCK1   731  17.389   5.269  13.082
    1STR  O03    732   0.040   5.187  13.072
    1STR  N04    733  17.396   5.394  13.134
    1STR  C05    734   0.050   5.470  13.209
    1STR  C06    735   0.041   5.613  13.203
    1STR  C07    736   0.123   5.700  13.282
    1STR  N08    737   0.106   5.841  13.275
    1STR  C09    738   0.165   5.942  13.344
    1STR  O0A    739   0.252   5.926  13.429
    1STR  O0B    740   0.117   6.066  13.309
    1STR  C0C    741   0.172   6.188  13.367
    1STR  C0D    742   0.303   6.222  13.294
    1STR  C0E    743   0.072   6.308  13.361
    1STR  O0F    744   0.126   6.432  13.415
    1STR  C0G    745   0.038   6.547  13.417
    1STR  C0H    746  17.376   6.529  13.531
    1STR  C0I    747   0.115   6.683  13.433
    1STR  O0J    748   0.031   6.800  13.414
    1STR  C0K    749   0.092   6.932  13.418
    1STR  C0M    750   0.182   6.950  13.295
    1STR  C0N    751  17.424   7.046  13.418
    1STR  O0O    752   0.038   7.181  13.418
    1STR  C0P    753  17.431   7.281  13.336
    1STR  O0Q    754  17.353   7.266  13.243
    1STR  N0R    755   0.043   7.399  13.373
    1STR  C0S    756   0.040   7.534  13.327
    1STR  C0T    757   0.121   7.621  13.402
    1STR  C0U    758   0.138   7.755  13.362
    1STR  C0V    759   0.074   7.807  13.248
    1STR  C0W    760   0.116   7.947  13.207
    1STR  C0X    761  17.422   7.727  13.174
    1STR  N0Y    762  17.352   7.773  13.059
    1STR  BCK2   763  17.309   7.893  13.009
    1STR  O10    764  17.313   8.003  13.063
    1STR  C13    765  17.409   7.588  13.215
    1STR  C14    766   0.218   5.639  13.366
    1STR  C15    767   0.229   5.499  13.373
    1STR  C16    768   0.145   5.414  13.299
    1STR  C17    769   0.158   5.265  13.324
    1STR  H1B    770  17.313   5.447  13.110
    1STR  H1C    771  17.408   5.657  13.137
    1STR  H1D    772   0.039   5.877  13.210
    1STR  H1E    773   0.195   6.169  13.472
    1STR  H1F    774   0.287   6.241  13.188
    1STR  H1G    775   0.349   6.312  13.337
    1STR  H1H    776   0.376   6.142  13.303
    1STR  H1I    777  17.423   6.279  13.416
    1STR  H1J    778   0.041   6.325  13.258
    1STR  H1K    779  17.425   6.552  13.322
    1STR  H1M    780  17.427   6.516  13.627
    1STR  H1N    781  17.311   6.444  13.516
    1STR  H1O    782  17.312   6.617  13.540
    1STR  H1P    783   0.163   6.686  13.532
    1STR  H1Q    784   0.196   6.683  13.360
    1STR  H1R    785   0.152   6.940  13.508
    1STR  H1S    786   0.228   7.049  13.295
    1STR  H1T    787   0.125   6.941  13.203
    1STR  H1U    788   0.264   6.878  13.291
    1STR  H1V    789  17.364   7.036  13.509
    1STR  H1W    790  17.355   7.033  13.335
    1STR  H1X    791   0.099   7.384  13.455
    1STR  H1Y    792   0.174   7.587  13.489
    1STR  H1Z    793   0.204   7.817  13.420
    1STR  H20    794   0.126   7.954  13.099
    1STR  H21    795   0.044   8.021  13.242
    1STR  H22    796   0.213   7.974  13.249
    1STR  H23    797  17.321   7.697  13.001
    1STR  H27    798  17.345   7.522  13.159
    1STR  H28    799   0.285   5.696  13.427
    1STR  H29    800   0.302   5.456  13.441
    1STR  H2A    801   0.061   5.216  13.329
    1STR  H2B    802   0.208   5.244  13.419
    1STR  H2C    803   0.217   5.218  13.245
    1STR  BCK1   804   0.091   9.565  13.132
    1STR  O03    805   0.030   9.477  13.073
    1STR  N04    806   0.106   9.697  13.099
    1STR  C05    807   0.083   9.784  12.987
    1STR  C06    808   0.085   9.928  13.004
    1STR  C07    809   0.070  10.025  12.897
    1STR  N08    810   0.079  10.169  12.915
    1STR  C09    811   0.079  10.275  12.826
    1STR  O0A    812   0.070  10.257  12.705
    1STR  O0B    813   0.091  10.409  12.879
    1STR  C0C    814   0.084  10.533  12.794
    1STR  C0D    815  17.378  10.550  12.748
    1STR  C0E    816   0.140  10.674  12.854
    1STR  O0F    817   0.122  10.806  12.781
    1STR  C0G    818   0.187  10.934  12.829
    1STR  C0H    819   0.338  10.915  12.801
    1STR  C0I    820   0.138  11.080  12.770
    1STR  O0J    821   0.178  11.212  12.833
    1STR  C0K    822   0.126  11.347  12.786
    1STR  C0M    823  17.414  11.342  12.799
    1STR  C0N    824   0.174  11.491  12.853
    1STR  O0O    825   0.120  11.623  12.802
    1STR  C0P    826   0.110  11.750  12.877
    1STR  O0Q    827   0.128  11.758  12.998
    1STR  N0R    828   0.082  11.860  12.798
    1STR  C0S    829   0.058  12.005  12.795
    1STR  C0T    830   0.082  12.055  12.666
    1STR  C0U    831   0.047  12.185  12.626
    1STR  C0V    832  17.428  12.277  12.714
    1STR  C0W    833  17.382  12.409  12.653
    1STR  C0X    834  17.412  12.244  12.852
    1STR  N0Y    835  17.365  12.348  12.943
    1STR  BCK2   836  17.312  12.475  12.929
    1STR  O10    837  17.297  12.549  13.026
    1STR  C13    838   0.008  12.105  12.890
    1STR  C14    839   0.047   9.967  12.770
    1STR  C15    840   0.046   9.828  12.749
    1STR  C16    841   0.067   9.736  12.854
    1STR  C17    842   0.078   9.589  12.814
    1STR  H1B    843   0.144   9.747  13.178
    1STR  H1C    844   0.100   9.966  13.104
    1STR  H1D    845   0.086  10.202  13.010
    1STR  H1E    846   0.143  10.510  12.705
    1STR  H1F    847  17.312  10.570  12.832
    1STR  H1G    848  17.370  10.633  12.678
    1STR  H1H    849  17.342  10.461  12.697
    1STR  H1I    850   0.247  10.658  12.869
    1STR  H1J    851   0.098  10.687  12.953
    1STR  H1K    852   0.171  10.938  12.936
    1STR  H1M    853   0.356  10.897  12.695
    1STR  H1N    854   0.380  10.831  12.856
    1STR  H1O    855   0.394  11.003  12.830
    1STR  H1P    856   0.168  11.084  12.665
    1STR  H1Q    857   0.030  11.075  12.768
    1STR  H1R    858   0.152  11.354  12.679
    1STR  H1S    859  17.370  11.437  12.770
    1STR  H1T    860  17.386  11.322  12.902
    1STR  H1U    861  17.369  11.266  12.735
    1STR  H1V    862   0.282  11.497  12.842
    1STR  H1W    863   0.158  11.488  12.960
    1STR  H1X    864   0.083  11.822  12.705
    1STR  H1Y    865   0.126  11.992  12.590
    1STR  H1Z    866   0.065  12.214  12.524
    1STR  H20    867  17.278  12.428  12.678
    1STR  H21    868   0.003  12.493  12.688
    1STR  H22    869  17.387  12.407  12.545
    1STR  H23    870  17.376  12.327  13.041
    1STR  H27    871  17.434  12.075  12.993
    1STR  H28    872   0.030  10.028  12.683
    1STR  H29    873   0.030   9.791  12.649
    1STR  H2A    874   0.156   9.538  12.870
    1STR  H2B    875   0.103   9.577  12.709
    1STR  H2C    876  17.423   9.538  12.831
    1STR  BCK1   877   0.099  13.814   4.460
    1STR  O03    878   0.051  13.729   4.533
    1STR  N04    879   0.067  13.950   4.446
    1STR  C05    880  17.411  14.048   4.494
    1STR  C06    881  17.425  14.193   4.468
    1STR  C07    882  17.333  14.298   4.513
    1STR  N08    883  17.340  14.442   4.483
    1STR  C09    884  17.268  14.551   4.533
    1STR  O0A    885  17.190  14.539   4.626
    1STR  O0B    886  17.287  14.684   4.474
    1STR  C0C    887  17.219  14.809   4.527
    1STR  C0D    888  17.284  14.847   4.660
    1STR  C0E    889  17.206  14.945   4.438
    1STR  O0F    890  17.159  15.072   4.504
    1STR  C0G    891  17.141  15.200   4.427
    1STR  C0H    892  17.013  15.188   4.343
    1STR  C0I    893  17.132  15.340   4.508
    1STR  O0J    894  17.132  15.466   4.429
    1STR  C0K    895  17.126  15.598   4.496
    1STR  C0M    896  17.253  15.622   4.578
    1STR  C0N    897  17.110  15.727   4.402
    1STR  O0O    898  17.102  15.856   4.472
    1STR  C0P    899  17.178  15.969   4.438
    1STR  O0Q    900  17.272  15.969   4.359
    1STR  N0R    901  17.134  16.078   4.503
    1STR  C0S    902  17.172  16.215   4.515
    1STR  C0T    903  17.078  16.298   4.581
    1STR  C0U    904  17.105  16.433   4.608
    1STR  C0V    905  17.226  16.494   4.570
    1STR  C0W    906  17.245  16.641   4.607
    1STR  C0X    907  17.323  16.416   4.500
    1STR  N0Y    908   0.006  16.471   4.457
    1STR  BCK2   909   0.064  16.588   4.490
    1STR  O10    910   0.171  16.624   4.443
    1STR  C13    911  17.294  16.278   4.472
    1STR  C14    912  17.225  14.248   4.590
    1STR  C15    913  17.206  14.111   4.614
    1STR  C16    914  17.293  14.012   4.565
    1STR  C17    915  17.249  13.868   4.587
    1STR  H1B    916   0.133  13.991   4.383
    1STR  H1C    917   0.071  14.224   4.411
    1STR  H1D    918  17.406  14.470   4.413
    1STR  H1E    919  17.117  14.778   4.550
    1STR  H1F    920  17.387  14.882   4.646
    1STR  H1G    921  17.229  14.929   4.708
    1STR  H1H    922  17.285  14.764   4.731
    1STR  H1I    923  17.139  14.924   4.355
    1STR  H1J    924  17.303  14.967   4.394
    1STR  H1K    925  17.227  15.209   4.360
    1STR  H1M    926  16.925  15.177   4.405
    1STR  H1N    927  17.016  15.104   4.274
    1STR  H1O    928  16.998  15.278   4.283
    1STR  H1P    929  17.042  15.339   4.570
    1STR  H1Q    930  17.215  15.343   4.578
    1STR  H1R    931  17.040  15.598   4.563
    1STR  H1S    932  17.248  15.718   4.629
    1STR  H1T    933  17.340  15.625   4.513
    1STR  H1U    934  17.268  15.547   4.655
    1STR  H1V    935  17.018  15.718   4.345
    1STR  H1W    936  17.190  15.730   4.328
    1STR  H1X    937  17.053  16.053   4.556
    1STR  H1Y    938  16.983  16.259   4.613
    1STR  H1Z    939  17.030  16.492   4.659
    1STR  H20    940  17.330  16.654   4.674
    1STR  H21    941  17.260  16.702   4.519
    1STR  H22    942  17.158  16.681   4.660
    1STR  H23    943   0.061  16.418   4.392
    1STR  H27    944  17.367  16.217   4.420
    1STR  H28    945  17.150  14.313   4.631
    1STR  H29    946  17.119  14.082   4.671
    1STR  H2A    947  17.259  13.811   4.495
    1STR  H2B    948  17.145  13.862   4.616
    1STR  H2C    949  17.308  13.821   4.666
    1STR  BCK1   950   4.512   5.125   4.135
    1STR  O03    951   4.615   5.079   4.088
    1STR  N04    952   4.495   5.249   4.194
    1STR  C05    953   4.582   5.354   4.241
    1STR  C06    954   4.541   5.495   4.245
    1STR  C07    955   4.623   5.603   4.297
    1STR  N08    956   4.583   5.742   4.312
    1STR  C09    957   4.659   5.857   4.331
    1STR  O0A    958   4.781   5.855   4.318
    1STR  O0B    959   4.593   5.981   4.364
    1STR  C0C    960   4.667   6.111   4.374
    1STR  C0D    961   4.701   6.157   4.231
    1STR  C0E    962   4.607   6.238   4.454
    1STR  O0F    963   4.680   6.367   4.443
    1STR  C0G    964   4.634   6.489   4.515
    1STR  C0H    965   4.667   6.473   4.664
    1STR  C0I    966   4.694   6.630   4.466
    1STR  O0J    967   4.638   6.752   4.530
    1STR  C0K    968   4.686   6.886   4.493
    1STR  C0M    969   4.648   6.917   4.347
    1STR  C0N    970   4.631   7.007   4.582
    1STR  O0O    971   4.683   7.139   4.549
    1STR  C0P    972   4.605   7.255   4.550
    1STR  O0Q    973   4.483   7.257   4.564
    1STR  N0R    974   4.680   7.366   4.533
    1STR  C0S    975   4.656   7.504   4.514
    1STR  C0T    976   4.768   7.581   4.474
    1STR  C0U    977   4.757   7.716   4.440
    1STR  C0V    978   4.634   7.784   4.447
    1STR  C0W    979   4.627   7.925   4.390
    1STR  C0X    980   4.520   7.715   4.498
    1STR  N0Y    981   4.398   7.783   4.516
    1STR  BCK2   982   4.381   7.910   4.557
    1STR  O10    983   4.271   7.963   4.565
    1STR  C13    984   4.532   7.575   4.528
    1STR  C14    985   4.751   5.563   4.342
    1STR  C15    986   4.791   5.429   4.345
    1STR  C16    987   4.707   5.324   4.300
    1STR  C17    988   4.753   5.182   4.330
    1STR  H1B    989   4.397   5.268   4.206
    1STR  H1C    990   4.443   5.519   4.206
    1STR  H1D    991   4.484   5.762   4.312
    1STR  H1E    992   4.762   6.086   4.424
    1STR  H1F    993   4.610   6.184   4.177
    1STR  H1G    994   4.766   6.243   4.234
    1STR  H1H    995   4.752   6.079   4.175
    1STR  H1I    996   4.600   6.211   4.559
    1STR  H1J    997   4.505   6.255   4.421
    1STR  H1K    998   4.526   6.496   4.503
    1STR  H1M    999   4.775   6.463   4.680
    1STR  H1N   1000   4.618   6.387   4.709
    1STR  H1O   1001   4.635   6.561   4.720
    1STR  H1P   1002   4.802   6.631   4.482
    1STR  H1Q   1003   4.679   6.638   4.359
    1STR  H1R   1004   4.795   6.887   4.502
    1STR  H1S   1005   4.683   7.016   4.318
    1STR  H1T   1006   4.539   6.917   4.335
    1STR  H1U   1007   4.690   6.846   4.277
    1STR  H1V   1008   4.658   6.989   4.686
    1STR  H1W   1009   4.522   7.008   4.579
    1STR  H1X   1010   4.777   7.339   4.531
    1STR  H1Y   1011   4.865   7.535   4.465
    1STR  H1Z   1012   4.845   7.769   4.405
    1STR  H20   1013   4.543   7.933   4.320
    1STR  H21   1014   4.613   8.001   4.468
    1STR  H22   1015   4.717   7.952   4.335
    1STR  H23   1016   4.312   7.732   4.503
    1STR  H27   1017   4.445   7.521   4.562
    1STR  H28   1018   4.821   5.635   4.383
    1STR  H29   1019   4.888   5.405   4.386
    1STR  H2A   1020   4.670   5.123   4.368
    1STR  H2B   1021   4.831   5.181   4.407
    1STR  H2C   1022   4.795   5.134   4.242
    1STR  BCK1  1023   4.382   5.127  12.754
    1STR  O03   1024   4.471   5.047  12.782
    1STR  N04   1025   4.383   5.254  12.803
    1STR  C05   1026   4.289   5.361  12.795
    1STR  C06   1027   4.329   5.499  12.815
    1STR  C07   1028   4.237   5.612  12.811
    1STR  N08   1029   4.273   5.751  12.830
    1STR  C09   1030   4.205   5.865  12.795
    1STR  O0A   1031   4.102   5.861  12.729
    1STR  O0B   1032   4.259   5.990  12.837
    1STR  C0C   1033   4.187   6.118  12.811
    1STR  C0D   1034   4.073   6.134  12.913
    1STR  C0E   1035   4.272   6.252  12.808
    1STR  O0F   1036   4.199   6.377  12.778
    1STR  C0G   1037   4.274   6.503  12.763
    1STR  C0H   1038   4.350   6.497  12.630
    1STR  C0I   1039   4.190   6.638  12.766
    1STR  O0J   1040   4.271   6.761  12.762
    1STR  C0K   1041   4.207   6.893  12.762
    1STR  C0M   1042   4.139   6.919  12.897
    1STR  C0N   1043   4.307   7.012  12.735
    1STR  O0O   1044   4.246   7.144  12.730
    1STR  C0P   1045   4.301   7.255  12.793
    1STR  O0Q   1046   4.395   7.252  12.871
    1STR  N0R   1047   4.236   7.367  12.757
    1STR  C0S   1048   4.243   7.503  12.796
    1STR  C0T   1049   4.147   7.589  12.739
    1STR  C0U   1050   4.136   7.724  12.778
    1STR  C0V   1051   4.222   7.779  12.876
    1STR  C0W   1052   4.189   7.919  12.925
    1STR  C0X   1053   4.327   7.699  12.929
    1STR  N0Y   1054   4.417   7.745  13.026
    1STR  BCK2  1055   4.476   7.864  13.050
    1STR  O10   1056   4.472   7.965  12.980
    1STR  C13   1057   4.334   7.561  12.889
    1STR  C14   1058   4.102   5.577  12.790
    1STR  C15   1059   4.060   5.444  12.772
    1STR  C16   1060   4.150   5.336  12.774
    1STR  C17   1061   4.086   5.198  12.763
    1STR  H1B   1062   4.467   5.271  12.856
    1STR  H1C   1063   4.433   5.519  12.833
    1STR  H1D   1064   4.360   5.770  12.877
    1STR  H1E   1065   4.142   6.108  12.712
    1STR  H1F   1066   4.110   6.149  13.014
    1STR  H1G   1067   4.011   6.220  12.888
    1STR  H1H   1068   4.006   6.047  12.914
    1STR  H1I   1069   4.351   6.239  12.734
    1STR  H1J   1070   4.322   6.265  12.904
    1STR  H1K   1071   4.345   6.509  12.845
    1STR  H1M   1072   4.282   6.485  12.546
    1STR  H1N   1073   4.423   6.417  12.626
    1STR  H1O   1074   4.406   6.590  12.613
    1STR  H1P   1075   4.120   6.640  12.682
    1STR  H1Q   1076   4.128   6.639  12.856
    1STR  H1R   1077   4.131   6.895  12.683
    1STR  H1S   1078   4.091   7.017  12.898
    1STR  H1T   1079   4.212   6.918  12.978
    1STR  H1U   1080   4.061   6.846  12.920
    1STR  H1V   1081   4.355   6.997  12.638
    1STR  H1W   1082   4.387   7.011  12.808
    1STR  H1X   1083   4.166   7.346  12.688
    1STR  H1Y   1084   4.077   7.553  12.665
    1STR  H1Z   1085   4.058   7.785  12.735
    1STR  H20   1086   4.209   7.929  13.031
    1STR  H21   1087   4.249   7.994  12.871
    1STR  H22   1088   4.084   7.944  12.909
    1STR  H23   1089   4.451   7.674  13.088
    1STR  H27   1090   4.411   7.498  12.931
    1STR  H28   1091   4.024   5.652  12.790
    1STR  H29   1092   3.955   5.426  12.758
    1STR  H2A   1093   4.145   5.123  12.711
    1STR  H2B   1094   3.993   5.204  12.707
    1STR  H2C   1095   4.063   5.161  12.863
    1STR  BCK1  1096   4.228   9.478  13.292
    1STR  O03   1097   4.191   9.390  13.215
    1STR  N04   1098   4.240   9.609  13.258
    1STR  C05   1099   4.287   9.722  13.333
    1STR  C06   1100   4.267   9.860  13.290
    1STR  C07   1101   4.313   9.977  13.364
    1STR  N08   1102   4.295  10.115  13.324
    1STR  C09   1103   4.310  10.232  13.396
    1STR  O0A   1104   4.339  10.232  13.515
    1STR  O0B   1105   4.292  10.358  13.328
    1STR  C0C   1106   4.319  10.488  13.396
    1STR  C0D   1107   4.472  10.509  13.401
    1STR  C0E   1108   4.251  10.623  13.340
    1STR  O0F   1109   4.282  10.751  13.409
    1STR  C0G   1110   4.213  10.877  13.370
    1STR  C0H   1111   4.067  10.867  13.417
    1STR  C0I   1112   4.273  11.017  13.423
    1STR  O0J   1113   4.213  11.143  13.373
    1STR  C0K   1114   4.265  11.276  13.415
    1STR  C0M   1115   4.409  11.292  13.365
    1STR  C0N   1116   4.185  11.407  13.368
    1STR  O0O   1117   4.230  11.535  13.426
    1STR  C0P   1118   4.235  11.659  13.358
    1STR  O0Q   1119   4.223  11.675  13.237
    1STR  N0R   1120   4.258  11.759  13.447
    1STR  C0S   1121   4.288  11.899  13.460
    1STR  C0T   1122   4.311  11.932  13.595
    1STR  C0U   1123   4.359  12.057  13.634
    1STR  C0V   1124   4.383  12.158  13.540
    1STR  C0W   1125   4.458  12.280  13.592
    1STR  C0X   1126   4.344  12.140  13.405
    1STR  N0Y   1127   4.352  12.252  13.316
    1STR  BCK2  1128   4.358  12.385  13.345
    1STR  O10   1129   4.368  12.472  13.258
    1STR  C13   1130   4.301  12.007  13.364
    1STR  C14   1131   4.385   9.946  13.482
    1STR  C15   1132   4.405   9.815  13.526
    1STR  C16   1133   4.358   9.703  13.455
    1STR  C17   1134   4.391   9.566  13.513
    1STR  H1B   1135   4.210   9.625  13.163
    1STR  H1C   1136   4.214   9.876  13.197
    1STR  H1D   1137   4.266  10.132  13.229
    1STR  H1E   1138   4.284  10.476  13.498
    1STR  H1F   1139   4.514  10.525  13.302
    1STR  H1G   1140   4.496  10.597  13.462
    1STR  H1H   1141   4.523  10.424  13.447
    1STR  H1I   1142   4.143  10.606  13.342
    1STR  H1J   1143   4.277  10.635  13.235
    1STR  H1K   1144   4.215  10.883  13.261
    1STR  H1M   1145   4.062  10.853  13.525
    1STR  H1N   1146   4.014  10.784  13.370
    1STR  H1O   1147   4.012  10.957  13.393
    1STR  H1P   1148   4.267  11.018  13.533
    1STR  H1Q   1149   4.380  11.017  13.400
    1STR  H1R   1150   4.265  11.277  13.525
    1STR  H1S   1151   4.449  11.389  13.394
    1STR  H1T   1152   4.412  11.287  13.256
    1STR  H1U   1153   4.477  11.217  13.405
    1STR  H1V   1154   4.080  11.396  13.397
    1STR  H1W   1155   4.184  11.414  13.259
    1STR  H1X   1156   4.255  11.713  13.536
    1STR  H1Y   1157   4.296  11.859  13.673
    1STR  H1Z   1158   4.382  12.074  13.738
    1STR  H20   1159   4.535  12.310  13.520
    1STR  H21   1160   4.391  12.364  13.610
    1STR  H22   1161   4.511  12.259  13.685
    1STR  H23   1162   4.348  12.235  13.217
    1STR  H27   1163   4.279  11.987  13.260
    1STR  H28   1164   4.428  10.023  13.543
    1STR  H29   1165   4.460   9.800  13.618
    1STR  H2A   1166   4.300   9.513  13.542
    1STR  H2B   1167   4.453   9.573  13.602
    1STR  H2C   1168   4.446   9.506  13.441
    1STR  BCK1  1169   4.475  13.825  17.166
    1STR  O03   1170   4.421  13.727  17.217
    1STR  N04   1171   4.470  13.951  17.219
    1STR  C05   1172   4.531  14.074  17.176
    1STR  C06   1173   4.498  14.206  17.230
    1STR  C07   1174   4.557  14.331  17.184
    1STR  N08   1175   4.534  14.465  17.238
    1STR  C09   1176   4.568  14.590  17.187
    1STR  O0A   1177   4.614  14.602  17.074
    1STR  O0B   1178   4.550  14.709  17.268
    1STR  C0C   1179   4.583  14.846  17.213
    1STR  C0D   1180   4.476  14.882  17.108
    1STR  C0E   1181   4.603  14.975  17.309
    1STR  O0F   1182   4.630  15.108  17.244
    1STR  C0G   1183   4.657  15.231  17.323
    1STR  C0H   1184   4.796  15.215  17.387
    1STR  C0I   1185   4.652  15.376  17.249
    1STR  O0J   1186   4.666  15.500  17.332
    1STR  C0K   1187   4.662  15.637  17.273
    1STR  C0M   1188   4.524  15.659  17.208
    1STR  C0N   1189   4.689  15.762  17.372
    1STR  O0O   1190   4.689  15.899  17.317
    1STR  C0P   1191   4.649  16.016  17.389
    1STR  O0Q   1192   4.591  16.013   0.057
    1STR  N0R   1193   4.679  16.132  17.324
    1STR  C0S   1194   4.654  16.274  17.333
    1STR  C0T   1195   4.684  16.341  17.212
    1STR  C0U   1196   4.656  16.477  17.194
    1STR  C0V   1197   4.600  16.556  17.296
    1STR  C0W   1198   4.549  16.694  17.257
    1STR  C0X   1199   4.581  16.500  17.426
    1STR  N0Y   1200   4.534  16.583   0.093
    1STR  BCK2  1201   4.548  16.717   0.118
    1STR  O10   1202   4.493  16.771   0.213
    1STR  C13   1203   4.605  16.357   0.000
    1STR  C14   1204   4.650  14.315  17.079
    1STR  C15   1205   4.687  14.190  17.027
    1STR  C16   1206   4.633  14.070  17.076
    1STR  C17   1207   4.693  13.942  17.022
    1STR  H1B   1208   4.408  13.955  17.299
    1STR  H1C   1209   4.424  14.210  17.309
    1STR  H1D   1210   4.486  14.471  17.327
    1STR  H1E   1211   4.678  14.833  17.161
    1STR  H1F   1212   4.379  14.900  17.154
    1STR  H1G   1213   4.505  14.973  17.055
    1STR  H1H   1214   4.465  14.804  17.033
    1STR  H1I   1215   4.685  14.953  17.377
    1STR  H1J   1216   4.514  14.987  17.371
    1STR  H1K   1217   4.583  15.236  17.403
    1STR  H1M   1218   4.873  15.203  17.310
    1STR  H1N   1219   4.802  15.130   0.014
    1STR  H1O   1220   4.823  15.304   0.005
    1STR  H1P   1221   4.730  15.378  17.173
    1STR  H1Q   1222   4.558  15.381  17.195
    1STR  H1R   1223   4.738  15.641  17.194
    1STR  H1S   1224   4.518  15.758  17.163
    1STR  H1T   1225   4.445  15.652  17.283
    1STR  H1U   1226   4.503  15.587  17.130
    1STR  H1V   1227   4.787  15.748  17.417
    1STR  H1W   1228   4.619  15.758   0.015
    1STR  H1X   1229   4.732  16.106  17.243
    1STR  H1Y   1230   4.726  16.288  17.128
    1STR  H1Z   1231   4.674  16.521  17.096
    1STR  H20   1232   4.442  16.700  17.276
    1STR  H21   1233   4.598  16.775  17.311
    1STR  H22   1234   4.563  16.714  17.151
    1STR  H23   1235   4.481  16.537   0.165
    1STR  H27   1236   4.585  16.310   0.095
    1STR  H28   1237   4.702  14.398  17.035
    1STR  H29   1238   4.761  14.187  16.949
    1STR  H2A   1239   4.725  13.877  17.104
    1STR  H2B   1240   4.782  13.961  16.962
    1STR  H2C   1241   4.623  13.888  16.958
    1STR  BCK1  1242  12.891   0.756   4.503
    1STR  O03   1243  12.977   0.668   4.507
    1STR  N04   1244  12.919   0.885   4.471
    1STR  C05   1245  12.833   0.998   4.454
    1STR  C06   1246  12.884   1.134   4.442
    1STR  C07   1247  12.800   1.251   4.425
    1STR  N08   1248  12.845   1.387   4.405
    1STR  C09   1249  12.776   1.505   4.419
    1STR  O0A   1250  12.665   1.509   4.470
    1STR  O0B   1251  12.838   1.625   4.373
    1STR  C0C   1252  12.768   1.756   4.386
    1STR  C0D   1253  12.771   1.799   4.533
    1STR  C0E   1254  12.815   1.880   4.297
    1STR  O0F   1255  12.744   2.007   4.324
    1STR  C0G   1256  12.777   2.129   4.248
    1STR  C0H   1257  12.720   2.116   4.106
    1STR  C0I   1258  12.724   2.265   4.310
    1STR  O0J   1259  12.765   2.386   4.238
    1STR  C0K   1260  12.720   2.517   4.286
    1STR  C0M   1261  12.791   2.552   4.417
    1STR  C0N   1262  12.746   2.635   4.184
    1STR  O0O   1263  12.685   2.761   4.224
    1STR  C0P   1264  12.750   2.883   4.214
    1STR  O0Q   1265  12.868   2.898   4.184
    1STR  N0R   1266  12.667   2.983   4.248
    1STR  C0S   1267  12.683   3.121   4.272
    1STR  C0T   1268  12.593   3.178   4.365
    1STR  C0U   1269  12.604   3.312   4.405
    1STR  C0V   1270  12.702   3.396   4.349
    1STR  C0W   1271  12.723   3.534   4.412
    1STR  C0X   1272  12.783   3.348   4.243
    1STR  N0Y   1273  12.865   3.437   4.173
    1STR  BCK2  1274  12.824   3.554   4.122
    1STR  O10   1275  12.900   3.629   4.061
    1STR  C13   1276  12.778   3.209   4.210
    1STR  C14   1277  12.661   1.224   4.423
    1STR  C15   1278  12.609   1.094   4.432
    1STR  C16   1279  12.693   0.981   4.444
    1STR  C17   1280  12.624   0.845   4.438
    1STR  H1B   1281  13.017   0.898   4.456
    1STR  H1C   1282  12.991   1.148   4.446
    1STR  H1D   1283  12.940   1.400   4.375
    1STR  H1E   1284  12.664   1.737   4.358
    1STR  H1F   1285  12.871   1.823   4.567
    1STR  H1G   1286  12.709   1.888   4.548
    1STR  H1H   1287  12.730   1.722   4.599
    1STR  H1I   1288  12.804   1.854   4.192
    1STR  H1J   1289  12.922   1.897   4.313
    1STR  H1K   1290  12.886   2.137   4.243
    1STR  H1M   1291  12.612   2.105   4.107
    1STR  H1N   1292  12.762   2.031   4.052
    1STR  H1O   1293  12.743   2.205   4.047
    1STR  H1P   1294  12.615   2.262   4.315
    1STR  H1Q   1295  12.759   2.272   4.413
    1STR  H1R   1296  12.612   2.512   4.303
    1STR  H1S   1297  12.760   2.651   4.453
    1STR  H1T   1298  12.899   2.556   4.403
    1STR  H1U   1299  12.770   2.481   4.497
    1STR  H1V   1300  12.704   2.609   4.087
    1STR  H1W   1301  12.853   2.648   4.168
    1STR  H1X   1302  12.575   2.946   4.266
    1STR  H1Y   1303  12.517   3.117   4.411
    1STR  H1Z   1304  12.539   3.349   4.482
    1STR  H20   1305  12.824   3.538   4.455
    1STR  H21   1306  12.713   3.616   4.342
    1STR  H22   1307  12.653   3.552   4.494
    1STR  H23   1308  12.960   3.411   4.152
    1STR  H27   1309  12.845   3.169   4.135
    1STR  H28   1310  12.588   1.302   4.410
    1STR  H29   1311  12.502   1.081   4.427
    1STR  H2A   1312  12.671   0.783   4.361
    1STR  H2B   1313  12.519   0.854   4.411
    1STR  H2C   1314  12.630   0.794   4.534
    1STR  BCK1  1315  13.179   5.166   0.226
    1STR  O03   1316  13.092   5.081   0.208
    1STR  N04   1317  13.163   5.295   0.192
    1STR  C05   1318  13.254   5.404   0.202
    1STR  C06   1319  13.208   5.541   0.190
    1STR  C07   1320  13.296   5.654   0.201
    1STR  N08   1321  13.252   5.791   0.191
    1STR  C09   1322  13.316   5.906   0.228
    1STR  O0A   1323  13.425   5.906   0.285
    1STR  O0B   1324  13.251   6.027   0.197
    1STR  C0C   1325  13.319   6.156   0.219
    1STR  C0D   1326  13.415   6.181   0.102
    1STR  C0E   1327  13.227   6.283   0.241
    1STR  O0F   1328  13.299   6.409   0.264
    1STR  C0G   1329  13.223   6.529   0.296
    1STR  C0H   1330  13.171   6.516   0.441
    1STR  C0I   1331  13.302   6.666   0.281
    1STR  O0J   1332  13.221   6.787   0.294
    1STR  C0K   1333  13.282   6.919   0.276
    1STR  C0M   1334  13.329   6.935   0.131
    1STR  C0N   1335  13.185   7.041   0.308
    1STR  O0O   1336  13.238   7.175   0.284
    1STR  C0P   1337  13.168   7.276   0.219
    1STR  O0Q   1338  13.063   7.261   0.157
    1STR  N0R   1339  13.230   7.395   0.233
    1STR  C0S   1340  13.215   7.530   0.189
    1STR  C0T   1341  13.309   7.618   0.245
    1STR  C0U   1342  13.317   7.752   0.204
    1STR  C0V   1343  13.231   7.805   0.107
    1STR  C0W   1344  13.263   7.946   0.060
    1STR  C0X   1345  13.125   7.726   0.053
    1STR  N0Y   1346  13.032   7.774  17.395
    1STR  BCK2  1347  12.985   7.895  17.349
    1STR  O10   1348  13.005   8.008  17.393
    1STR  C13   1349  13.121   7.587   0.095
    1STR  C14   1350  13.433   5.624   0.219
    1STR  C15   1351  13.480   5.492   0.231
    1STR  C16   1352  13.393   5.382   0.223
    1STR  C17   1353  13.456   5.244   0.235
    1STR  H1B   1354  13.071   5.313   0.153
    1STR  H1C   1355  13.103   5.558   0.174
    1STR  H1D   1356  13.161   5.808   0.151
    1STR  H1E   1357  13.379   6.146   0.310
    1STR  H1F   1358  13.362   6.195   0.008
    1STR  H1G   1359  13.475   6.270   0.120
    1STR  H1H   1360  13.485   6.098   0.089
    1STR  H1I   1361  13.162   6.261   0.325
    1STR  H1J   1362  13.162   6.295   0.154
    1STR  H1K   1363  13.138   6.535   0.228
    1STR  H1M   1364  13.253   6.502   0.511
    1STR  H1N   1365  13.102   6.432   0.453
    1STR  H1O   1366  13.117   6.606   0.471
    1STR  H1P   1367  13.383   6.669   0.355
    1STR  H1Q   1368  13.351   6.664   0.184
    1STR  H1R   1369  13.368   6.927   0.342
    1STR  H1S   1370  13.375   7.033   0.116
    1STR  H1T   1371  13.245   6.928   0.062
    1STR  H1U   1372  13.403   6.861   0.102
    1STR  H1V   1373  13.159   7.036   0.414
    1STR  H1W   1374  13.091   7.028   0.255
    1STR  H1X   1375  13.309   7.380   0.293
    1STR  H1Y   1376  13.380   7.584   0.319
    1STR  H1Z   1377  13.394   7.814   0.247
    1STR  H20   1378  13.253   7.955  17.392
    1STR  H21   1379  13.197   8.019   0.109
    1STR  H22   1380  13.365   7.974   0.084
    1STR  H23   1381  12.986   7.699  17.348
    1STR  H27   1382  13.047   7.520   0.054
    1STR  H28   1383  13.508   5.701   0.224
    1STR  H29   1384  13.585   5.477   0.246
    1STR  H2A   1385  13.422   5.194   0.325
    1STR  H2B   1386  13.565   5.250   0.240
    1STR  H2C   1387  13.432   5.183   0.148
    1STR  BCK1  1388  13.010   5.258  13.034
    1STR  O03   1389  12.908   5.208  12.988
    1STR  N04   1390  13.064   5.378  12.999
    1STR  C05   1391  13.034   5.467  12.895
    1STR  C06   1392  13.045   5.608  12.917
    1STR  C07   1393  13.020   5.705  12.815
    1STR  N08   1394  13.037   5.843  12.838
    1STR  C09   1395  13.013   5.950  12.759
    1STR  O0A   1396  12.965   5.943  12.646
    1STR  O0B   1397  13.049   6.068  12.817
    1STR  C0C   1398  13.024   6.193  12.747
    1STR  C0D   1399  12.877   6.233  12.767
    1STR  C0E   1400  13.119   6.306  12.794
    1STR  O0F   1401  13.094   6.428  12.722
    1STR  C0G   1402  13.177   6.541  12.755
    1STR  C0H   1403  13.314   6.524  12.687
    1STR  C0I   1404  13.108   6.673  12.708
    1STR  O0J   1405  13.176   6.790  12.757
    1STR  C0K   1406  13.115   6.917  12.725
    1STR  C0M   1407  12.988   6.937  12.807
    1STR  C0N   1408  13.212   7.035  12.753
    1STR  O0O   1409  13.159   7.156  12.698
    1STR  C0P   1410  13.135   7.269  12.770
    1STR  O0Q   1411  13.145   7.283  12.891
    1STR  N0R   1412  13.102   7.363  12.681
    1STR  C0S   1413  13.072   7.500  12.679
    1STR  C0T   1414  13.086   7.555  12.550
    1STR  C0U   1415  13.057   7.690  12.526
    1STR  C0V   1416  13.010   7.774  12.628
    1STR  C0W   1417  12.987   7.918  12.589
    1STR  C0X   1418  12.990   7.722  12.759
    1STR  N0Y   1419  12.937   7.802  12.862
    1STR  BCK2  1420  12.868   7.917  12.852
    1STR  O10   1421  12.828   7.979  12.950
    1STR  C13   1422  13.025   7.584  12.784
    1STR  C14   1423  12.980   5.655  12.688
    1STR  C15   1424  12.973   5.517  12.664
    1STR  C16   1425  13.003   5.423  12.764
    1STR  C17   1426  13.009   5.277  12.722
    1STR  H1B   1427  13.136   5.409  13.063
    1STR  H1C   1428  13.073   5.643  13.015
    1STR  H1D   1429  13.073   5.871  12.928
    1STR  H1E   1430  13.042   6.178  12.641
    1STR  H1F   1431  12.853   6.249  12.872
    1STR  H1G   1432  12.854   6.324  12.713
    1STR  H1H   1433  12.810   6.155  12.729
    1STR  H1I   1434  13.222   6.274  12.779
    1STR  H1J   1435  13.107   6.323  12.901
    1STR  H1K   1436  13.189   6.547  12.863
    1STR  H1M   1437  13.304   6.512  12.580
    1STR  H1N   1438  13.369   6.438  12.726
    1STR  H1O   1439  13.377   6.612  12.705
    1STR  H1P   1440  13.102   6.675  12.599
    1STR  H1Q   1441  13.006   6.671  12.744
    1STR  H1R   1442  13.091   6.918  12.618
    1STR  H1S   1443  12.943   7.035  12.786
    1STR  H1T   1444  13.010   6.935  12.914
    1STR  H1U   1445  12.911   6.863  12.787
    1STR  H1V   1446  13.307   7.016  12.703
    1STR  H1W   1447  13.235   7.045  12.859
    1STR  H1X   1448  13.106   7.319  12.591
    1STR  H1Y   1449  13.122   7.496  12.468
    1STR  H1Z   1450  13.071   7.728  12.426
    1STR  H20   1451  12.880   7.938  12.583
    1STR  H21   1452  13.034   7.986  12.660
    1STR  H22   1453  13.029   7.942  12.491
    1STR  H23   1454  12.947   7.771  12.958
    1STR  H27   1455  13.013   7.542  12.883
    1STR  H28   1456  12.957   5.719  12.605
    1STR  H29   1457  12.946   5.483  12.565
    1STR  H2A   1458  13.087   5.224  12.776
    1STR  H2B   1459  13.031   5.267  12.616
    1STR  H2C   1460  12.913   5.229  12.740
    1STR  BCK1  1461  13.209  13.816   8.840
    1STR  O03   1462  13.204  13.746   8.940
    1STR  N04   1463  13.172  13.949   8.825
    1STR  C05   1464  13.098  14.053   8.895
    1STR  C06   1465  13.106  14.196   8.862
    1STR  C07   1466  13.030  14.304   8.928
    1STR  N08   1467  13.028  14.447   8.893
    1STR  C09   1468  12.977  14.559   8.959
    1STR  O0A   1469  12.933  14.550   9.073
    1STR  O0B   1470  12.976  14.691   8.893
    1STR  C0C   1471  12.930  14.819   8.962
    1STR  C0D   1472  13.038  14.858   9.064
    1STR  C0E   1473  12.888  14.956   8.881
    1STR  O0F   1474  12.869  15.087   8.955
    1STR  C0G   1475  12.824  15.215   8.887
    1STR  C0H   1476  12.676  15.199   8.851
    1STR  C0I   1477  12.842  15.359   8.963
    1STR  O0J   1478  12.818  15.488   8.891
    1STR  C0K   1479  12.839  15.622   8.957
    1STR  C0M   1480  12.987  15.636   8.994
    1STR  C0N   1481  12.802  15.760   8.879
    1STR  O0O   1482  12.822  15.887   8.953
    1STR  C0P   1483  12.865  16.012   8.897
    1STR  O0Q   1484  12.910  16.026   8.784
    1STR  N0R   1485  12.846  16.115   8.984
    1STR  C0S   1486  12.860  16.258   9.000
    1STR  C0T   1487  12.773  16.307   9.098
    1STR  C0U   1488  12.778  16.439   9.145
    1STR  C0V   1489  12.870  16.532   9.094
    1STR  C0W   1490  12.870  16.669   9.162
    1STR  C0X   1491  12.958  16.495   8.988
    1STR  N0Y   1492  13.047  16.592   8.934
    1STR  BCK2  1493  13.069  16.723   8.965
    1STR  O10   1494  13.149  16.794   8.905
    1STR  C13   1495  12.951  16.356   8.942
    1STR  C14   1496  12.946  14.257   9.032
    1STR  C15   1497  12.933  14.121   9.063
    1STR  C16   1498  13.002  14.019   8.995
    1STR  C17   1499  12.962  13.876   9.027
    1STR  H1B   1500  13.208  13.983   8.737
    1STR  H1C   1501  13.174  14.224   8.783
    1STR  H1D   1502  13.070  14.472   8.805
    1STR  H1E   1503  12.842  14.790   9.019
    1STR  H1F   1504  13.129  14.890   9.015
    1STR  H1G   1505  13.003  14.941   9.126
    1STR  H1H   1506  13.061  14.776   9.132
    1STR  H1I   1507  12.796  14.935   8.827
    1STR  H1J   1508  12.964  14.975   8.805
    1STR  H1K   1509  12.882  15.223   8.795
    1STR  H1M   1510  12.614  15.188   8.941
    1STR  H1N   1511  12.657  15.114   8.786
    1STR  H1O   1512  12.639  15.288   8.799
    1STR  H1P   1513  12.778  15.359   9.051
    1STR  H1Q   1514  12.944  15.361   9.002
    1STR  H1R   1515  12.779  15.622   9.048
    1STR  H1S   1516  13.005  15.732   9.042
    1STR  H1T   1517  13.048  15.633   8.904
    1STR  H1U   1518  13.021  15.558   9.062
    1STR  H1V   1519  12.696  15.757   8.852
    1STR  H1W   1520  12.855  15.766   8.784
    1STR  H1X   1521  12.801  16.073   9.063
    1STR  H1Y   1522  12.699  16.243   9.144
    1STR  H1Z   1523  12.710  16.469   9.223
    1STR  H20   1524  12.969  16.691   9.202
    1STR  H21   1525  12.841  16.747   9.092
    1STR  H22   1526  12.802  16.674   9.246
    1STR  H23   1527  13.106  16.564   8.857
    1STR  H27   1528  13.018  16.323   8.864
    1STR  H28   1529  12.885  14.325   9.089
    1STR  H29   1530  12.863  14.094   9.141
    1STR  H2A   1531  12.953  13.817   8.937
    1STR  H2B   1532  12.865  13.872   9.077
    1STR  H2C   1533  13.034  13.829   9.094
    1STR  BCK1  1534  13.058  14.005  13.017
    1STR  O03   1535  13.090  13.943  12.916
    1STR  N04   1536  13.107  14.124  13.060
    1STR  C05   1537  13.216  14.207  13.022
    1STR  C06   1538  13.205  14.350  13.037
    1STR  C07   1539  13.312  14.442  13.008
    1STR  N08   1540  13.299  14.584  13.029
    1STR  C09   1541  13.382  14.689  13.002
    1STR  O0A   1542  13.490  14.676  12.945
    1STR  O0B   1543  13.334  14.816  13.042
    1STR  C0C   1544  13.402  14.943  13.007
    1STR  C0D   1545  13.375  14.969  12.858
    1STR  C0E   1546  13.365  15.072  13.094
    1STR  O0F   1547  13.420  15.205  13.057
    1STR  C0G   1548  13.397  15.324  13.143
    1STR  C0H   1549  13.481  15.301  13.270
    1STR  C0I   1550  13.428  15.471  13.079
    1STR  O0J   1551  13.377  15.597  13.143
    1STR  C0K   1552  13.391  15.732  13.078
    1STR  C0M   1553  13.317  15.724  12.944
    1STR  C0N   1554  13.341  15.868  13.154
    1STR  O0O   1555  13.352  16.003  13.089
    1STR  C0P   1556  13.271  16.121  13.119
    1STR  O0Q   1557  13.171  16.117  13.189
    1STR  N0R   1558  13.319  16.237  13.063
    1STR  C0S   1559  13.295  16.380  13.048
    1STR  C0T   1560  13.412  16.446  13.005
    1STR  C0U   1561  13.414  16.580  12.965
    1STR  C0V   1562  13.298  16.661  12.967
    1STR  C0W   1563  13.312  16.800  12.906
    1STR  C0X   1564  13.177  16.611  13.022
    1STR  N0Y   1565  13.062  16.699  13.037
    1STR  BCK2  1566  13.028  16.829  13.004
    1STR  O10   1567  12.922  16.879  13.041
    1STR  C13   1568  13.178  16.468  13.060
    1STR  C14   1569  13.431  14.383  12.958
    1STR  C15   1570  13.445  14.244  12.945
    1STR  C16   1571  13.340  14.155  12.979
    1STR  C17   1572  13.371  14.006  12.975
    1STR  H1B   1573  13.053  14.161  13.136
    1STR  H1C   1574  13.112  14.390  13.074
    1STR  H1D   1575  13.214  14.615  13.073
    1STR  H1E   1576  13.510  14.925  13.018
    1STR  H1F   1577  13.269  14.982  12.839
    1STR  H1G   1578  13.428  15.058  12.823
    1STR  H1H   1579  13.409  14.885  12.796
    1STR  H1I   1580  13.396  15.048  13.196
    1STR  H1J   1581  13.257  15.081  13.097
    1STR  H1K   1582  13.291  15.324  13.170
    1STR  H1M   1583  13.586  15.284  13.245
    1STR  H1N   1584  13.447  15.215  13.327
    1STR  H1O   1585  13.477  15.387  13.337
    1STR  H1P   1586  13.536  15.480  13.067
    1STR  H1Q   1587  13.389  15.465  12.978
    1STR  H1R   1588  13.498  15.745  13.057
    1STR  H1S   1589  13.319  15.820  12.893
    1STR  H1T   1590  13.213  15.696  12.960
    1STR  H1U   1591  13.362  15.652  12.875
    1STR  H1V   1592  13.397  15.876  13.247
    1STR  H1W   1593  13.237  15.855  13.186
    1STR  H1X   1594  13.404  16.209  13.019
    1STR  H1Y   1595  13.506  16.392  12.999
    1STR  H1Z   1596  13.507  16.621  12.929
    1STR  H20   1597  13.233  16.818  12.833
    1STR  H21   1598  13.311  16.878  12.982
    1STR  H22   1599  13.406  16.810  12.850
    1STR  H23   1600  12.986  16.659  13.090
    1STR  H27   1601  13.087  16.424  13.098
    1STR  H28   1602  13.517  14.443  12.932
    1STR  H29   1603  13.539  14.204  12.910
    1STR  H2A   1604  13.323  13.953  13.058
    1STR  H2B   1605  13.478  13.986  12.983
    1STR  H2C   1606  13.336  13.962  12.882
    1STR  BCK1  1607   0.078  13.096   5.262
    1STR  O03   1608   0.027  13.169   5.178
    1STR  N04   1609   0.105  13.123   5.392
    1STR  C05   1610   0.108  13.238   5.473
    1STR  C06   1611   0.101  13.218   5.614
    1STR  C07   1612   0.114  13.325   5.707
    1STR  N08   1613   0.113  13.299   5.846
    1STR  C09   1614   0.139  13.380   5.951
    1STR  O0A   1615   0.167  13.499   5.942
    1STR  O0B   1616   0.130  13.314   6.070
    1STR  C0C   1617   0.147  13.387   6.193
    1STR  C0D   1618   0.015  13.455   6.232
    1STR  C0E   1619   0.198  13.293   6.306
    1STR  O0F   1620   0.220  13.368   6.426
    1STR  C0G   1621   0.268  13.294   6.539
    1STR  C0H   1622   0.419  13.268   6.522
    1STR  C0I   1623   0.240  13.374   6.668
    1STR  O0J   1624   0.272  13.296   6.784
    1STR  C0K   1625   0.246  13.355   6.911
    1STR  C0M   1626   0.095  13.353   6.940
    1STR  C0N   1627   0.323  13.276   7.019
    1STR  O0O   1628   0.308  13.333   7.149
    1STR  C0P   1629   0.238  13.269   7.246
    1STR  O0Q   1630   0.175  13.165   7.231
    1STR  N0R   1631   0.249  13.338   7.360
    1STR  C0S   1632   0.195  13.318   7.488
    1STR  C0T   1633   0.230  13.411   7.587
    1STR  C0U   1634   0.176  13.402   7.716
    1STR  C0V   1635   0.084  13.301   7.751
    1STR  C0W   1636   0.022  13.308   7.889
    1STR  C0X   1637   0.050  13.202   7.654
    1STR  N0Y   1638  17.396  13.099   7.671
    1STR  BCK2  1639  17.354  13.026   7.776
    1STR  O10   1640  17.398  13.028   7.890
    1STR  C13   1641   0.106  13.213   7.524
    1STR  C14   1642   0.129  13.455   5.655
    1STR  C15   1643   0.136  13.477   5.517
    1STR  C16   1644   0.127  13.371   5.425
    1STR  C17   1645   0.145  13.406   5.279
    1STR  H1B   1646   0.124  13.038   5.442
    1STR  H1C   1647   0.088  13.119   5.652
    1STR  H1D   1648   0.092  13.205   5.876
    1STR  H1E   1649   0.224  13.463   6.179
    1STR  H1F   1650  17.376  13.382   6.248
    1STR  H1G   1651   0.027  13.513   6.324
    1STR  H1H   1652  17.422  13.524   6.154
    1STR  H1I   1653   0.290  13.246   6.273
    1STR  H1J   1654   0.125  13.214   6.324
    1STR  H1K   1655   0.214  13.199   6.546
    1STR  H1M   1656   0.474  13.361   6.510
    1STR  H1N   1657   0.440  13.204   6.436
    1STR  H1O   1658   0.459  13.217   6.610
    1STR  H1P   1659   0.296  13.467   6.668
    1STR  H1Q   1660   0.134  13.401   6.669
    1STR  H1R   1661   0.282  13.458   6.912
    1STR  H1S   1662   0.074  13.395   7.038
    1STR  H1T   1663   0.057  13.251   6.940
    1STR  H1U   1664   0.037  13.410   6.868
    1STR  H1V   1665   0.429  13.277   6.995
    1STR  H1W   1666   0.294  13.170   7.017
    1STR  H1X   1667   0.307  13.419   7.347
    1STR  H1Y   1668   0.298  13.492   7.566
    1STR  H1Z   1669   0.203  13.477   7.790
    1STR  H20   1670  17.356  13.283   7.886
    1STR  H21   1671   0.073  13.239   7.957
    1STR  H22   1672   0.031  13.408   7.931
    1STR  H23   1673  17.357  13.066   7.585
    1STR  H27   1674   0.080  13.140   7.449
    1STR  H28   1675   0.138  13.542   5.718
    1STR  H29   1676   0.150  13.578   5.481
    1STR  H2A   1677   0.213  13.336   5.230
    1STR  H2B   1678   0.188  13.505   5.266
    1STR  H2C   1679   0.049  13.406   5.228
    1STR  BCK1  1680   4.378   4.371  13.998
    1STR  O03   1681   4.371   4.271  13.927
    1STR  N04   1682   4.318   4.390  14.117
    1STR  C05   1683   4.224   4.317  14.192
    1STR  C06   1684   4.231   4.326  14.334
    1STR  C07   1685   4.136   4.264  14.421
    1STR  N08   1686   4.146   4.281  14.561
    1STR  C09   1687   4.068   4.237  14.662
    1STR  O0A   1688   3.969   4.166  14.647
    1STR  O0B   1689   4.112   4.279  14.784
    1STR  C0C   1690   4.046   4.237  14.905
    1STR  C0D   1691   4.096   4.096  14.942
    1STR  C0E   1692   4.070   4.337  15.021
    1STR  O0F   1693   4.005   4.295  15.142
    1STR  C0G   1694   4.019   4.382  15.256
    1STR  C0H   1695   3.926   4.503  15.240
    1STR  C0I   1696   3.987   4.306  15.387
    1STR  O0J   1697   4.016   4.388  15.502
    1STR  C0K   1698   3.993   4.330  15.632
    1STR  C0M   1699   4.102   4.227  15.664
    1STR  C0N   1700   3.994   4.443  15.738
    1STR  O0O   1701   3.953   4.395  15.867
    1STR  C0P   1702   4.024   4.421  15.979
    1STR  O0Q   1703   4.133   4.478  15.984
    1STR  N0R   1704   3.958   4.372  16.085
    1STR  C0S   1705   3.994   4.359  16.219
    1STR  C0T   1706   3.928   4.257  16.290
    1STR  C0U   1707   3.964   4.226  16.423
    1STR  C0V   1708   4.063   4.301  16.488
    1STR  C0W   1709   4.111   4.253  16.624
    1STR  C0X   1710   4.120   4.414  16.425
    1STR  N0Y   1711   4.206   4.499  16.495
    1STR  BCK2  1712   4.182   4.547  16.618
    1STR  O10   1713   4.260   4.621  16.676
    1STR  C13   1714   4.089   4.439  16.289
    1STR  C14   1715   4.032   4.190  14.360
    1STR  C15   1716   4.022   4.181  14.220
    1STR  C16   1717   4.115   4.246  14.135
    1STR  C17   1718   4.088   4.240  13.986
    1STR  H1B   1719   4.353   4.472  14.164
    1STR  H1C   1720   4.312   4.381  14.378
    1STR  H1D   1721   4.223   4.335  14.596
    1STR  H1E   1722   3.939   4.233  14.887
    1STR  H1F   1723   4.203   4.095  14.961
    1STR  H1G   1724   4.046   4.060  15.032
    1STR  H1H   1725   4.074   4.024  14.863
    1STR  H1I   1726   4.033   4.435  14.990
    1STR  H1J   1727   4.177   4.348  15.039
    1STR  H1K   1728   4.123   4.416  15.262
    1STR  H1M   1729   3.822   4.472  15.228
    1STR  H1N   1730   3.952   4.565  15.154
    1STR  H1O   1731   3.930   4.568  15.328
    1STR  H1P   1732   3.883   4.275  15.388
    1STR  H1Q   1733   4.047   4.215  15.390
    1STR  H1R   1734   3.894   4.283  15.633
    1STR  H1S   1735   4.088   4.185  15.764
    1STR  H1T   1736   4.201   4.272  15.661
    1STR  H1U   1737   4.101   4.143  15.594
    1STR  H1V   1738   3.924   4.521  15.710
    1STR  H1W   1739   4.092   4.491  15.742
    1STR  H1X   1740   3.871   4.332  16.056
    1STR  H1Y   1741   3.852   4.197  16.243
    1STR  H1Z   1742   3.916   4.143  16.472
    1STR  H20   1743   4.220   4.260  16.630
    1STR  H21   1744   4.067   4.314  16.702
    1STR  H22   1745   4.085   4.149  16.641
    1STR  H23   1746   4.288   4.536  16.449
    1STR  H27   1747   4.136   4.521  16.237
    1STR  H28   1748   3.956   4.140  14.417
    1STR  H29   1749   3.940   4.126  14.177
    1STR  H2A   1750   4.112   4.334  13.937
    1STR  H2B   1751   3.983   4.219  13.965
    1STR  H2C   1752   4.147   4.160  13.940
    1STR  BCK1  1753   8.627  17.203  13.751
    1STR  O03   1754   8.517  17.199  13.696
    1STR  N04   1755   8.642  17.219  13.890
    1STR  C05   1756   8.748  17.233  13.994
    1STR  C06   1757   8.726  17.234  14.142
    1STR  C07   1758   8.827  17.251  14.250
    1STR  N08   1759   8.809  17.252  14.399
    1STR  C09   1760   8.898  17.257  14.511
    1STR  O0A   1761   9.019  17.260  14.492
    1STR  O0B   1762   8.848  17.258  14.657
    1STR  C0C   1763   8.935  17.267  14.786
    1STR  C0D   1764   9.004  17.405  14.791
    1STR  C0E   1765   8.880  17.234  14.943
    1STR  O0F   1766   8.956  17.255  15.077
    1STR  C0G   1767   8.907  17.209  15.216
    1STR  C0H   1768   8.918  17.055  15.212
    1STR  C0I   1769   8.968  17.254  15.367
    1STR  O0J   1770   8.897  17.224  15.501
    1STR  C0K   1771   8.946  17.255  15.644
    1STR  C0M   1772   8.981  17.404  15.653
    1STR  C0N   1773   8.856  17.219  15.780
    1STR  O0O   1774   8.891  17.261  15.923
    1STR  C0P   1775   8.794  17.281  16.035
    1STR  O0Q   1776   8.673  17.286  16.018
    1STR  N0R   1777   8.849  17.295  16.162
    1STR  C0S   1778   8.817  17.327  16.303
    1STR  C0T   1779   8.931  17.312  16.386
    1STR  C0U   1780   8.938  17.368  16.515
    1STR  C0V   1781   8.829  17.436  16.573
    1STR  C0W   1782   8.869   0.093  16.683
    1STR  C0X   1783   8.699  17.426  16.516
    1STR  N0Y   1784   8.577   0.022  16.589
    1STR  BCK2  1785   8.529   0.073  16.712
    1STR  O10   1786   8.595   0.118  16.805
    1STR  C13   1787   8.699  17.376  16.376
    1STR  C14   1788   8.957  17.270  14.196
    1STR  C15   1789   8.983  17.270  14.058
    1STR  C16   1790   8.885  17.252  13.958
    1STR  C17   1791   8.938  17.257  13.815
    1STR  H1B   1792   8.549  17.225  13.929
    1STR  H1C   1793   8.624  17.221  14.173
    1STR  H1D   1794   8.714  17.249  14.430
    1STR  H1E   1795   9.016  17.196  14.767
    1STR  H1F   1796   8.932   0.045  14.812
    1STR  H1G   1797   9.079  17.407  14.871
    1STR  H1H   1798   9.056  17.429  14.699
    1STR  H1I   1799   8.850  17.129  14.941
    1STR  H1J   1800   8.788  17.290  14.955
    1STR  H1K   1801   8.802  17.237  15.220
    1STR  H1M   1802   9.022  17.024  15.200
    1STR  H1N   1803   8.861  17.012  15.131
    1STR  H1O   1804   8.881  17.011  15.305
    1STR  H1P   1805   9.068  17.213  15.376
    1STR  H1Q   1806   8.984  17.362  15.364
    1STR  H1R   1807   9.041  17.201  15.655
    1STR  H1S   1808   9.024  17.427  15.750
    1STR  H1T   1809   8.891   0.025  15.642
    1STR  H1U   1810   9.053  17.435  15.577
    1STR  H1V   1811   8.853  17.110  15.786
    1STR  H1W   1812   8.753  17.248  15.764
    1STR  H1X   1813   8.947  17.277  16.151
    1STR  H1Y   1814   9.021  17.265  16.349
    1STR  H1Z   1815   9.032  17.365  16.566
    1STR  H20   1816   8.794   0.170  16.701
    1STR  H21   1817   8.897   0.045  16.777
    1STR  H22   1818   8.955   0.149  16.649
    1STR  H23   1819   8.496  17.438  16.535
    1STR  H27   1820   8.606  17.378  16.321
    1STR  H28   1821   9.041  17.286  14.261
    1STR  H29   1822   9.086  17.285  14.027
    1STR  H2A   1823   8.865  17.247  13.735
    1STR  H2B   1824   9.013  17.179  13.799
    1STR  H2C   1825   8.988  17.353  13.799
    1STR  BCK1  1826   8.838  13.085   9.326
    1STR  O03   1827   8.743  13.093   9.249
    1STR  N04   1828   8.835  13.108   9.467
    1STR  C05   1829   8.755  13.169   9.579
    1STR  C06   1830   8.779  13.153   9.726
    1STR  C07   1831   8.706  13.219   9.839
    1STR  N08   1832   8.726  13.212   9.988
    1STR  C09   1833   8.670  13.281  10.099
    1STR  O0A   1834   8.587  13.369  10.081
    1STR  O0B   1835   8.710  13.252  10.243
    1STR  C0C   1836   8.651  13.322  10.368
    1STR  C0D   1837   8.506  13.274  10.394
    1STR  C0E   1838   8.722  13.322  10.519
    1STR  O0F   1839   8.653  13.377  10.643
    1STR  C0G   1840   8.718  13.383  10.781
    1STR  C0H   1841   8.823  13.495  10.780
    1STR  C0I   1842   8.633  13.408  10.918
    1STR  O0J   1843   8.708  13.408  11.047
    1STR  C0K   1844   8.645  13.436  11.179
    1STR  C0M   1845   8.554  13.321  11.224
    1STR  C0N   1846   8.745  13.461  11.301
    1STR  O0O   1847   8.684  13.494  11.431
    1STR  C0P   1848   8.706  13.420  11.547
    1STR  O0Q   1849   8.763  13.311  11.548
    1STR  N0R   1850   8.657  13.479  11.658
    1STR  C0S   1851   8.646  13.437  11.794
    1STR  C0T   1852   8.579  13.522  11.885
    1STR  C0U   1853   8.555  13.483  12.019
    1STR  C0V   1854   8.598  13.358  12.067
    1STR  C0W   1855   8.554  13.317  12.208
    1STR  C0X   1856   8.674  13.274  11.982
    1STR  N0Y   1857   8.721  13.148  12.021
    1STR  BCK2  1858   8.781  13.106  12.134
    1STR  O10   1859   8.809  13.176  12.231
    1STR  C13   1860   8.695  13.314  11.847
    1STR  C14   1861   8.600  13.300   9.792
    1STR  C15   1862   8.573  13.319   9.656
    1STR  C16   1863   8.648  13.259   9.552
    1STR  C17   1864   8.610  13.303   9.413
    1STR  H1B   1865   8.919  13.067   9.505
    1STR  H1C   1866   8.860  13.087   9.755
    1STR  H1D   1867   8.793  13.143  10.019
    1STR  H1E   1868   8.643  13.427  10.340
    1STR  H1F   1869   8.503  13.171  10.429
    1STR  H1G   1870   8.460  13.335  10.471
    1STR  H1H   1871   8.444  13.283  10.305
    1STR  H1I   1872   8.817  13.376  10.510
    1STR  H1J   1873   8.749  13.220  10.544
    1STR  H1K   1874   8.768  13.288  10.795
    1STR  H1M   1875   8.777  13.593  10.771
    1STR  H1N   1876   8.896  13.484  10.700
    1STR  H1O   1877   8.879  13.495  10.874
    1STR  H1P   1878   8.581  13.503  10.912
    1STR  H1Q   1879   8.554  13.333  10.926
    1STR  H1R   1880   8.585  13.527  11.170
    1STR  H1S   1881   8.507  13.344  11.319
    1STR  H1T   1882   8.612  13.230  11.240
    1STR  H1U   1883   8.475  13.300  11.153
    1STR  H1V   1884   8.811  13.545  11.278
    1STR  H1W   1885   8.811  13.376  11.314
    1STR  H1X   1886   8.619  13.569  11.637
    1STR  H1Y   1887   8.541  13.618  11.854
    1STR  H1Z   1888   8.499  13.548  12.084
    1STR  H20   1889   8.537  13.209  12.214
    1STR  H21   1890   8.629  13.344  12.282
    1STR  H22   1891   8.460  13.364  12.237
    1STR  H23   1892   8.719  13.078  11.949
    1STR  H27   1893   8.750  13.248  11.782
    1STR  H28   1894   8.535  13.352   9.860
    1STR  H29   1895   8.492  13.385   9.630
    1STR  H2A   1896   8.699  13.309   9.352
    1STR  H2B   1897   8.567  13.403   9.413
    1STR  H2C   1898   8.537  13.234   9.368
    1STR  BCK1  1899  13.128   4.356  14.032
    1STR  O03   1900  13.206   4.282  13.972
    1STR  N04   1901  13.054   4.326  14.139
    1STR  C05   1902  13.043   4.208  14.213
    1STR  C06   1903  13.038   4.220  14.354
    1STR  C07   1904  13.020   4.109  14.440
    1STR  N08   1905  13.011   4.130  14.580
    1STR  C09   1906  12.996   4.043  14.682
    1STR  O0A   1907  12.990   3.921  14.670
    1STR  O0B   1908  12.988   4.108  14.803
    1STR  C0C   1909  12.984   4.033  14.927
    1STR  C0D   1910  13.127   3.987  14.960
    1STR  C0E   1911  12.922   4.115  15.044
    1STR  O0F   1912  12.919   4.043  15.170
    1STR  C0G   1913  12.857   4.109  15.283
    1STR  C0H   1914  12.704   4.105  15.264
    1STR  C0I   1915  12.898   4.042  15.420
    1STR  O0J   1916  12.865   4.120  15.539
    1STR  C0K   1917  12.913   4.073  15.668
    1STR  C0M   1918  13.066   4.081  15.672
    1STR  C0N   1919  12.857   4.154  15.791
    1STR  O0O   1920  12.912   4.110  15.918
    1STR  C0P   1921  12.944   4.194  16.023
    1STR  O0Q   1922  12.946   4.316  16.021
    1STR  N0R   1923  12.968   4.117  16.130
    1STR  C0S   1924  12.994   4.123  16.270
    1STR  C0T   1925  12.948   4.005  16.330
    1STR  C0U   1926  12.969   3.980  16.464
    1STR  C0V   1927  13.037   4.072  16.545
    1STR  C0W   1928  13.043   4.030  16.687
    1STR  C0X   1929  13.087   4.196  16.495
    1STR  N0Y   1930  13.155   4.292  16.580
    1STR  BCK2  1931  13.209   4.290  16.707
    1STR  O10   1932  13.258   4.389  16.759
    1STR  C13   1933  13.061   4.220  16.354
    1STR  C14   1934  13.008   3.982  14.379
    1STR  C15   1935  13.011   3.968  14.239
    1STR  C16   1936  13.026   4.080  14.155
    1STR  C17   1937  13.016   4.057  14.004
    1STR  H1B   1938  13.004   4.405  14.176
    1STR  H1C   1939  13.050   4.318  14.397
    1STR  H1D   1940  13.016   4.225  14.612
    1STR  H1E   1941  12.922   3.944  14.911
    1STR  H1F   1942  13.194   4.073  14.974
    1STR  H1G   1943  13.129   3.927  15.050
    1STR  H1H   1944  13.168   3.926  14.879
    1STR  H1I   1945  12.821   4.143  15.015
    1STR  H1J   1946  12.977   4.207  15.057
    1STR  H1K   1947  12.891   4.212  15.286
    1STR  H1M   1948  12.669   4.003  15.250
    1STR  H1N   1949  12.672   4.163  15.178
    1STR  H1O   1950  12.653   4.146  15.351
    1STR  H1P   1951  12.854   3.943  15.427
    1STR  H1Q   1952  13.006   4.027  15.414
    1STR  H1R   1953  12.882   3.969  15.680
    1STR  H1S   1954  13.104   4.047  15.769
    1STR  H1T   1955  13.099   4.184  15.658
    1STR  H1U   1956  13.115   4.019  15.598
    1STR  H1V   1957  12.749   4.142  15.795
    1STR  H1W   1958  12.874   4.261  15.778
    1STR  H1X   1959  12.953   4.023  16.098
    1STR  H1Y   1960  12.895   3.929  16.273
    1STR  H1Z   1961  12.930   3.888  16.506
    1STR  H20   1962  13.131   4.067  16.734
    1STR  H21   1963  12.954   4.069  16.737
    1STR  H22   1964  13.043   3.922  16.699
    1STR  H23   1965  13.168   4.383  16.539
    1STR  H27   1966  13.095   4.311  16.307
    1STR  H28   1967  12.994   3.892  14.437
    1STR  H29   1968  12.999   3.869  14.196
    1STR  H2A   1969  12.967   4.141  13.955
    1STR  H2B   1970  12.958   3.968  13.981
    1STR  H2C   1971  13.115   4.045  13.961
    1STR  BCK1  1972  13.045   8.934   0.706
    1STR  O03   1973  13.093   9.024   0.638
    1STR  N04   1974  13.073   8.902   0.841
    1STR  C05   1975  13.165   8.931   0.953
    1STR  C06   1976  13.134   8.899   1.094
    1STR  C07   1977  13.224   8.919   1.209
    1STR  N08   1978  13.205   8.880   1.350
    1STR  C09   1979  13.274   8.918   1.466
    1STR  O0A   1980  13.356   9.009   1.464
    1STR  O0B   1981  13.249   8.849   1.592
    1STR  C0C   1982  13.320   8.887   1.720
    1STR  C0D   1983  13.263   9.021   1.770
    1STR  C0E   1984  13.326   8.789   1.849
    1STR  O0F   1985  13.383   8.846   1.974
    1STR  C0G   1986  13.391   8.766   2.099
    1STR  C0H   1987  13.507   8.665   2.088
    1STR  C0I   1988  13.412   8.846   2.235
    1STR  O0J   1989  13.415   8.764   2.357
    1STR  C0K   1990  13.437   8.827   2.487
    1STR  C0M   1991  13.311   8.903   2.532
    1STR  C0N   1992  13.472   8.724   2.601
    1STR  O0O   1993  13.507   8.786   2.727
    1STR  C0P   1994  13.432   8.770   2.840
    1STR  O0Q   1995  13.324   8.712   2.844
    1STR  N0R   1996  13.491   8.827   2.947
    1STR  C0S   1997  13.450   8.844   3.081
    1STR  C0T   1998  13.528   8.930   3.162
    1STR  C0U   1999  13.490   8.959   3.295
    1STR  C0V   2000  13.375   8.903   3.351
    1STR  C0W   2001  13.331   8.947   3.491
    1STR  C0X   2002  13.300   8.809   3.275
    1STR  N0Y   2003  13.191   8.742   3.330
    1STR  BCK2  2004  13.190   8.681   3.449
    1STR  O10   2005  13.090   8.623   3.489
    1STR  C13   2006  13.337   8.783   3.140
    1STR  C14   2007  13.348   8.976   1.175
    1STR  C15   2008  13.383   9.005   1.043
    1STR  C16   2009  13.298   8.980   0.933
    1STR  C17   2010  13.366   8.995   0.799
    1STR  H1B   2011  13.005   8.834   0.870
    1STR  H1C   2012  13.038   8.856   1.115
    1STR  H1D   2013  13.132   8.814   1.370
    1STR  H1E   2014  13.424   8.905   1.692
    1STR  H1F   2015  13.160   9.011   1.805
    1STR  H1G   2016  13.322   9.058   1.854
    1STR  H1H   2017  13.267   9.099   1.694
    1STR  H1I   2018  13.383   8.700   1.822
    1STR  H1J   2019  13.225   8.754   1.872
    1STR  H1K   2020  13.298   8.710   2.110
    1STR  H1M   2021  13.603   8.716   2.080
    1STR  H1N   2022  13.497   8.598   2.003
    1STR  H1O   2023  13.513   8.603   2.178
    1STR  H1P   2024  13.506   8.902   2.230
    1STR  H1Q   2025  13.333   8.921   2.245
    1STR  H1R   2026  13.521   8.896   2.479
    1STR  H1S   2027  13.327   8.950   2.629
    1STR  H1T   2028  13.227   8.836   2.544
    1STR  H1U   2029  13.283   8.982   2.463
    1STR  H1V   2030  13.559   8.665   2.570
    1STR  H1W   2031  13.391   8.652   2.615
    1STR  H1X   2032  13.580   8.866   2.921
    1STR  H1Y   2033  13.618   8.976   3.124
    1STR  H1Z   2034  13.550   9.028   3.353
    1STR  H20   2035  13.222   8.957   3.495
    1STR  H21   2036  13.362   8.876   3.567
    1STR  H22   2037  13.372   9.045   3.517
    1STR  H23   2038  13.109   8.726   3.274
    1STR  H27   2039  13.277   8.714   3.083
    1STR  H28   2040  13.425   8.995   1.248
    1STR  H29   2041  13.483   9.043   1.026
    1STR  H2A   2042  13.404   8.898   0.770
    1STR  H2B   2043  13.453   9.060   0.806
    1STR  H2C   2044  13.305   9.037   0.722
    1HEX  C01   2045   0.273  17.286  16.752
    1HEX  C02   2046   0.212  17.289  16.893
    1HEX  C03   2047   0.060  17.289  16.884
    1HEX  O04   2048  17.439  17.190  16.846
    1HEX  O05   2049   0.007  17.408  16.918
    1HEX  C06   2050  17.305  17.422  16.924
    1HEX  C07   2051  17.256  17.417  17.070
    1HEX  C08   2052  17.306   0.105  17.141
    1HEX  O09   2053  17.241   0.226  17.104
    1HEX  C0A   2054  17.178   0.296  17.199
    1HEX  O0B   2055  17.130   0.251  17.302
    1HEX  C0C   2056  17.176   0.446  17.168
    1HEX  C0D   2057  17.179   0.529  17.297
    1HEX  C0F   2058  17.101  17.416  17.073
    1HEX  O0G   2059  17.052  17.296  17.015
    1HEX  C0H   2060  17.006  17.295  16.890
    1HEX  O0I   2061  16.978  17.393  16.822
    1HEX  C0J   2062  16.997  17.154  16.832
    1HEX  C0K   2063  16.878  17.077  16.891
    1HEX  C0N   2064  17.302  17.285  17.142
    1HEX  O0O   2065  17.438  17.265  17.184
    1HEX  C0P   2066   0.067  17.347  17.280
    1HEX  C0Q   2067   0.032  17.340  17.432
    1HEX  C0R   2068   0.066  17.198   0.045
    1HEX  O0S   2069   0.206  17.172   0.038
    1HEX  C0T   2070   0.280  17.167   0.151
    1HEX  O0U   2071   0.239  17.180   0.266
    1HEX  C0V   2072   0.428  17.144   0.122
    1HEX  C0W   2073   0.510  17.272   0.137
    1HEX  C0Y   2074   0.124   0.005   0.060
    1HEX  O0Z   2075   0.100   0.005   0.199
    1HEX  C10   2076   0.188   0.060   0.281
    1HEX  O11   2077   0.292   0.117   0.248
    1HEX  C12   2078   0.145   0.043   0.426
    1HEX  C13   2079   0.254   0.088   0.525
    1HEX  C15   2080  17.325  17.380   0.025
    1HEX  O16   2081  17.287  17.359   0.160
    1HEX  C17   2082  17.215  17.251   0.195
    1HEX  O18   2083  17.185  17.157   0.121
    1HEX  C19   2084  17.169  17.258   0.339
    1HEX  C1A   2085  17.086  17.385   0.361
    1HEX  H1C   2086   0.488  17.290  16.630
    1HEX  H1D   2087   0.239  17.198  16.699
    1HEX  H1E   2088   0.239  17.373  16.695
    1HEX  H1F   2089   0.244  17.377  16.948
    1HEX  H1G   2090   0.242  17.201  16.950
    1HEX  H1H   2091  17.257  17.347  16.861
    1HEX  H1I   2092  17.278   0.078  16.879
    1HEX  H1J   2093  17.410   0.122  17.114
    1HEX  H1K   2094  17.303   0.091  17.248
    1HEX  H1M   2095  17.090   0.471  17.106
    1HEX  H1N   2096  17.265   0.467  17.110
    1HEX  H1O   2097  17.256   0.493  17.365
    1HEX  H1P   2098  17.084   0.520  17.350
    1HEX  H1Q   2099  17.383   0.727  17.239
    1HEX  H1R   2100  17.059   0.065  17.024
    1HEX  H1S   2101  17.064  17.422  17.176
    1HEX  H1T   2102  17.091  17.103  16.853
    1HEX  H1U   2103  16.989  17.162  16.724
    1HEX  H1V   2104  16.786  17.132  16.874
    1HEX  H1W   2105  16.890  17.066  16.998
    1HEX  H1X   2106  16.868  16.918  16.674
    1HEX  H1Y   2107  17.286  17.204  17.071
    1HEX  H1Z   2108  17.233  17.254  17.220
    1HEX  H20   2109   0.077   0.009  17.246
    1HEX  H21   2110   0.170  17.311  17.271
    1HEX  H22   2111   0.012  17.123  17.427
    1HEX  H23   2112   0.030  17.187   0.147
    1HEX  H24   2113   0.438  17.102   0.022
    1HEX  H25   2114   0.465  17.069   0.193
    1HEX  H26   2115   0.468  17.352   0.075
    1HEX  H27   2116   0.613  17.257   0.105
    1HEX  H28   2117   0.436  17.429   0.287
    1HEX  H29   2118   0.105   0.106   0.022
    1HEX  H2A   2119   0.229  17.424   0.040
    1HEX  H2B   2120   0.121  17.378   0.442
    1HEX  H2C   2121   0.053   0.101   0.439
    1HEX  H2D   2122   0.285   0.190   0.503
    1HEX  H2E   2123   0.343   0.026   0.513
    1HEX  H2F   2124   0.063   0.183   0.703
    1HEX  H2G   2125  17.252  17.332  17.402
    1HEX  H2H   2126  17.311   0.047   0.011
    1HEX  H2I   2127  17.256  17.256   0.404
    1HEX  H2J   2128  17.110  17.169   0.361
    1HEX  H2K   2129  17.005  17.391   0.288
    1HEX  H2M   2130  17.148   0.034   0.347
    1HEX  H2N   2131  16.932  17.311   0.547
    1STR  S00   2132   0.454  17.296  16.759
    1STR  S0E   2133  17.262   0.689  17.281
    1STR  S0M   2134  16.879  16.916  16.807
    1STR  S0X   2135   0.559  17.378   0.276
    1STR  S14   2136   0.169   0.103   0.685
    1STR  S1B   2137  17.019  17.411   0.527
    1HEX  C01   2138   0.270  17.287   3.675
    1HEX  C02   2139   0.208  17.290   3.815
    1HEX  C03   2140   0.056  17.289   3.805
    1HEX  O04   2141  17.435  17.190   3.767
    1HEX  O05   2142   0.002  17.408   3.839
    1HEX  C06   2143  17.301  17.422   3.844
    1HEX  C07   2144  17.250  17.422   3.990
    1HEX  C08   2145  17.299   0.112   4.056
    1HEX  O09   2146  17.231   0.231   4.021
    1HEX  C0A   2147  17.173   0.303   4.118
    1HEX  O0B   2148  17.127   0.258   4.223
    1HEX  C0C   2149  17.177   0.453   4.090
    1HEX  C0D   2150  17.182   0.534   4.220
    1HEX  C0F   2151  17.094  17.420   3.991
    1HEX  O0G   2152  17.047  17.298   3.934
    1HEX  C0H   2153  17.002  17.295   3.808
    1HEX  O0I   2154  16.974  17.392   3.739
    1HEX  C0J   2155  16.996  17.153   3.753
    1HEX  C0K   2156  16.878  17.076   3.811
    1HEX  C0N   2157  17.295  17.294   4.069
    1HEX  O0O   2158  17.432  17.277   4.109
    1HEX  C0P   2159   0.062  17.363   4.201
    1HEX  C0Q   2160   0.030  17.364   4.354
    1HEX  C0R   2161   0.042  17.218   4.406
    1HEX  O0S   2162   0.164  17.152   4.374
    1HEX  C0T   2163   0.243  17.107   4.473
    1HEX  O0U   2164   0.243  17.148   4.589
    1HEX  C0V   2165   0.334  16.994   4.429
    1HEX  C0W   2166   0.290  16.861   4.493
    1HEX  C0Y   2167   0.138   0.018   4.421
    1HEX  O0Z   2168   0.090   0.123   4.507
    1HEX  C10   2169   0.176   0.222   4.545
    1HEX  O11   2170   0.295   0.227   4.512
    1HEX  C12   2171   0.116   0.329   4.636
    1HEX  C13   2172   0.135   0.476   4.588
    1HEX  C15   2173  17.328  17.417   4.388
    1HEX  O16   2174  17.286  17.388   4.522
    1HEX  C17   2175  17.205  17.283   4.547
    1HEX  O18   2176  17.163  17.202   4.464
    1HEX  C19   2177  17.165  17.275   4.693
    1HEX  C1A   2178  17.080  17.397   4.729
    1HEX  H1C   2179   0.487  17.290   3.548
    1HEX  H1D   2180   0.237  17.197   3.622
    1HEX  H1E   2181   0.237  17.373   3.617
    1HEX  H1F   2182   0.240  17.378   3.871
    1HEX  H1G   2183   0.238  17.203   3.873
    1HEX  H1H   2184  17.253  17.345   3.784
    1HEX  H1I   2185  17.273   0.076   3.795
    1HEX  H1J   2186  17.402   0.131   4.026
    1HEX  H1K   2187  17.300   0.100   4.164
    1HEX  H1M   2188  17.093   0.482   4.027
    1HEX  H1N   2189  17.268   0.472   4.033
    1HEX  H1O   2190  17.260   0.497   4.287
    1HEX  H1P   2191  17.088   0.524   4.274
    1HEX  H1Q   2192  17.380   0.728   4.165
    1HEX  H1R   2193  17.053   0.068   3.939
    1HEX  H1S   2194  17.057  17.428   4.093
    1HEX  H1T   2195  17.091  17.103   3.775
    1HEX  H1U   2196  16.989  17.160   3.644
    1HEX  H1V   2197  16.785  17.130   3.793
    1HEX  H1W   2198  16.889  17.064   3.919
    1HEX  H1X   2199  16.866  16.919   3.593
    1HEX  H1Y   2200  17.278  17.209   4.002
    1HEX  H1Z   2201  17.229  17.270   4.152
    1HEX  H20   2202   0.072   0.023   4.162
    1HEX  H21   2203   0.164  17.325   4.192
    1HEX  H22   2204  17.402  17.158   4.361
    1HEX  H23   2205   0.023  17.214   4.513
    1HEX  H24   2206   0.436  17.021   4.458
    1HEX  H25   2207   0.333  16.986   4.321
    1HEX  H26   2208   0.270  16.873   4.600
    1HEX  H27   2209   0.368  16.785   4.485
    1HEX  H29   2210   0.194   0.069   4.343
    1HEX  H2A   2211   0.213  17.400   4.474
    1HEX  H2B   2212   0.164   0.315   4.733
    1HEX  H2C   2213   0.011   0.306   4.652
    1HEX  H2D   2214   0.238   0.495   4.559
    1HEX  H2E   2215   0.113   0.544   4.670
    1HEX  H2G   2216  17.252  17.381   4.321
    1HEX  H2H   2217  17.324   0.086   4.378
    1HEX  H2I   2218  17.256  17.270   4.754
    1HEX  H2J   2219  17.110  17.183   4.709
    1HEX  H2K   2220  16.996  17.405   4.661
    1HEX  H2M   2221  17.139   0.048   4.718
    1HEX  H2N   2222  16.932  17.306   4.905
    1STR  S00   2223   0.451  17.296   3.676
    1STR  S0E   2224  17.255   0.699   4.205
    1STR  S0M   2225  16.877  16.915   3.726
    1STR  S0X   2226   0.165  16.729   4.505
    1STR  S14   2227   0.153   0.650   4.525
    1STR  S1B   2228  17.015  17.410   4.898
    1HEX  C01   2229   0.273  17.286   8.032
    1HEX  C02   2230   0.212  17.289   8.173
    1HEX  C03   2231   0.060  17.289   8.164
    1HEX  O04   2232  17.439  17.190   8.126
    1HEX  O05   2233   0.007  17.408   8.198
    1HEX  C06   2234  17.305  17.422   8.204
    1HEX  C07   2235  17.256  17.417   8.350
    1HEX  C08   2236  17.306   0.105   8.421
    1HEX  O09   2237  17.241   0.226   8.384
    1HEX  C0A   2238  17.178   0.296   8.479
    1HEX  O0B   2239  17.130   0.251   8.583
    1HEX  C0C   2240  17.176   0.446   8.448
    1HEX  C0D   2241  17.178   0.529   8.577
    1HEX  C0F   2242  17.101  17.416   8.353
    1HEX  O0G   2243  17.052  17.296   8.295
    1HEX  C0H   2244  17.006  17.295   8.170
    1HEX  O0I   2245  16.978  17.393   8.102
    1HEX  C0J   2246  16.997  17.154   8.112
    1HEX  C0K   2247  16.878  17.077   8.171
    1HEX  C0N   2248  17.302  17.285   8.422
    1HEX  O0O   2249  17.438  17.265   8.464
    1HEX  C0P   2250   0.067  17.347   8.560
    1HEX  C0Q   2251   0.032  17.340   8.712
    1HEX  C0R   2252   0.066  17.198   8.765
    1HEX  O0S   2253   0.206  17.172   8.758
    1HEX  C0T   2254   0.280  17.167   8.871
    1HEX  O0U   2255   0.239  17.180   8.986
    1HEX  C0V   2256   0.428  17.144   8.842
    1HEX  C0W   2257   0.510  17.272   8.857
    1HEX  C0Y   2258   0.124   0.005   8.780
    1HEX  O0Z   2259   0.100   0.005   8.919
    1HEX  C10   2260   0.188   0.060   9.001
    1HEX  O11   2261   0.292   0.117   8.968
    1HEX  C12   2262   0.145   0.043   9.146
    1HEX  C13   2263   0.254   0.088   9.245
    1HEX  C15   2264  17.325  17.380   8.745
    1HEX  O16   2265  17.287  17.359   8.880
    1HEX  C17   2266  17.215  17.251   8.915
    1HEX  O18   2267  17.185  17.157   8.841
    1HEX  C19   2268  17.169  17.258   9.059
    1HEX  C1A   2269  17.086  17.385   9.081
    1HEX  H1C   2270   0.488  17.290   7.910
    1HEX  H1D   2271   0.239  17.198   7.979
    1HEX  H1E   2272   0.239  17.373   7.975
    1HEX  H1F   2273   0.244  17.377   8.228
    1HEX  H1G   2274   0.242  17.201   8.230
    1HEX  H1H   2275  17.257  17.347   8.141
    1HEX  H1I   2276  17.278   0.078   8.159
    1HEX  H1J   2277  17.410   0.122   8.394
    1HEX  H1K   2278  17.303   0.091   8.528
    1HEX  H1M   2279  17.090   0.471   8.386
    1HEX  H1N   2280  17.265   0.467   8.390
    1HEX  H1O   2281  17.256   0.493   8.645
    1HEX  H1P   2282  17.084   0.520   8.630
    1HEX  H1Q   2283  17.383   0.727   8.520
    1HEX  H1R   2284  17.059   0.065   8.304
    1HEX  H1S   2285  17.064  17.422   8.456
    1HEX  H1T   2286  17.091  17.103   8.133
    1HEX  H1U   2287  16.989  17.162   8.004
    1HEX  H1V   2288  16.786  17.132   8.154
    1HEX  H1W   2289  16.890  17.066   8.278
    1HEX  H1X   2290  16.868  16.918   7.954
    1HEX  H1Y   2291  17.286  17.204   8.351
    1HEX  H1Z   2292  17.233  17.254   8.500
    1HEX  H20   2293   0.077   0.009   8.526
    1HEX  H21   2294   0.170  17.311   8.551
    1HEX  H22   2295   0.012  17.123   8.707
    1HEX  H23   2296   0.030  17.187   8.867
    1HEX  H24   2297   0.438  17.102   8.742
    1HEX  H25   2298   0.465  17.069   8.913
    1HEX  H26   2299   0.468  17.352   8.795
    1HEX  H27   2300   0.613  17.257   8.825
    1HEX  H28   2301   0.436  17.429   9.007
    1HEX  H29   2302   0.105   0.106   8.742
    1HEX  H2A   2303   0.229  17.424   8.760
    1HEX  H2B   2304   0.121  17.378   9.162
    1HEX  H2C   2305   0.053   0.101   9.159
    1HEX  H2D   2306   0.285   0.190   9.223
    1HEX  H2E   2307   0.343   0.026   9.233
    1HEX  H2F   2308   0.063   0.183   9.423
    1HEX  H2G   2309  17.252  17.332   8.682
    1HEX  H2H   2310  17.311   0.047   8.731
    1HEX  H2I   2311  17.256  17.256   9.124
    1HEX  H2J   2312  17.110  17.169   9.081
    1HEX  H2K   2313  17.005  17.391   9.008
    1HEX  H2M   2314  17.148   0.034   9.067
    1HEX  H2N   2315  16.932  17.311   9.267
    1STR  S00   2316   0.454  17.296   8.039
    1STR  S0E   2317  17.262   0.689   8.561
    1STR  S0M   2318  16.879  16.916   8.087
    1STR  S0X   2319   0.559  17.378   8.996
    1STR  S14   2320   0.169   0.103   9.405
    1STR  S1B   2321  17.019  17.411   9.247
    1HEX  C01   2322   0.273  17.286  12.392
    1HEX  C02   2323   0.212  17.289  12.533
    1HEX  C03   2324   0.060  17.289  12.524
    1HEX  O04   2325  17.439  17.190  12.486
    1HEX  O05   2326   0.007  17.408  12.558
    1HEX  C06   2327  17.305  17.422  12.564
    1HEX  C07   2328  17.256  17.417  12.710
    1HEX  C08   2329  17.306   0.105  12.781
    1HEX  O09   2330  17.241   0.226  12.744
    1HEX  C0A   2331  17.178   0.296  12.839
    1HEX  O0B   2332  17.130   0.251  12.942
    1HEX  C0C   2333  17.176   0.446  12.808
    1HEX  C0D   2334  17.179   0.529  12.937
    1HEX  C0F   2335  17.101  17.416  12.713
    1HEX  O0G   2336  17.052  17.296  12.655
    1HEX  C0H   2337  17.006  17.295  12.530
    1HEX  O0I   2338  16.978  17.393  12.462
    1HEX  C0J   2339  16.997  17.154  12.472
    1HEX  C0K   2340  16.878  17.077  12.531
    1HEX  C0N   2341  17.302  17.285  12.782
    1HEX  O0O   2342  17.438  17.265  12.824
    1HEX  C0P   2343   0.067  17.347  12.920
    1HEX  C0Q   2344   0.032  17.340  13.072
    1HEX  C0R   2345   0.066  17.198  13.125
    1HEX  O0S   2346   0.206  17.172  13.118
    1HEX  C0T   2347   0.280  17.167  13.231
    1HEX  O0U   2348   0.239  17.180  13.346
    1HEX  C0V   2349   0.428  17.144  13.202
    1HEX  C0W   2350   0.510  17.272  13.217
    1HEX  C0Y   2351   0.124   0.005  13.140
    1HEX  O0Z   2352   0.100   0.005  13.279
    1HEX  C10   2353   0.188   0.060  13.361
    1HEX  O11   2354   0.292   0.117  13.328
    1HEX  C12   2355   0.145   0.043  13.506
    1HEX  C13   2356   0.254   0.088  13.605
    1HEX  C15   2357  17.325  17.380  13.105
    1HEX  O16   2358  17.287  17.359  13.240
    1HEX  C17   2359  17.215  17.251  13.275
    1HEX  O18   2360  17.185  17.157  13.201
    1HEX  C19   2361  17.169  17.258  13.419
    1HEX  C1A   2362  17.086  17.385  13.441
    1HEX  H1C   2363   0.488  17.290  12.270
    1HEX  H1D   2364   0.239  17.198  12.339
    1HEX  H1E   2365   0.239  17.373  12.335
    1HEX  H1F   2366   0.244  17.377  12.588
    1HEX  H1G   2367   0.242  17.201  12.590
    1HEX  H1H   2368  17.257  17.347  12.501
    1HEX  H1I   2369  17.278   0.078  12.519
    1HEX  H1J   2370  17.410   0.122  12.754
    1HEX  H1K   2371  17.303   0.091  12.888
    1HEX  H1M   2372  17.090   0.471  12.746
    1HEX  H1N   2373  17.265   0.467  12.750
    1HEX  H1O   2374  17.256   0.493  13.005
    1HEX  H1P   2375  17.084   0.520  12.990
    1HEX  H1Q   2376  17.383   0.728  12.880
    1HEX  H1R   2377  17.059   0.065  12.664
    1HEX  H1S   2378  17.064  17.422  12.816
    1HEX  H1T   2379  17.091  17.103  12.493
    1HEX  H1U   2380  16.989  17.162  12.364
    1HEX  H1V   2381  16.786  17.132  12.514
    1HEX  H1W   2382  16.889  17.066  12.638
    1HEX  H1X   2383  16.868  16.918  12.314
    1HEX  H1Y   2384  17.286  17.204  12.711
    1HEX  H1Z   2385  17.233  17.254  12.860
    1HEX  H20   2386   0.077   0.009  12.886
    1HEX  H21   2387   0.170  17.311  12.911
    1HEX  H22   2388   0.012  17.123  13.067
    1HEX  H23   2389   0.030  17.187  13.227
    1HEX  H24   2390   0.438  17.102  13.102
    1HEX  H25   2391   0.465  17.069  13.273
    1HEX  H26   2392   0.468  17.352  13.155
    1HEX  H27   2393   0.613  17.257  13.185
    1HEX  H28   2394   0.436  17.429  13.367
    1HEX  H29   2395   0.105   0.106  13.102
    1HEX  H2A   2396   0.229  17.424  13.120
    1HEX  H2B   2397   0.121  17.378  13.522
    1HEX  H2C   2398   0.053   0.101  13.519
    1HEX  H2D   2399   0.285   0.190  13.583
    1HEX  H2E   2400   0.343   0.026  13.593
    1HEX  H2F   2401   0.063   0.183  13.783
    1HEX  H2G   2402  17.252  17.332  13.042
    1HEX  H2H   2403  17.311   0.047  13.091
    1HEX  H2I   2404  17.256  17.256  13.484
    1HEX  H2J   2405  17.110  17.169  13.441
    1HEX  H2K   2406  17.005  17.391  13.368
    1HEX  H2M   2407  17.148   0.034  13.427
    1HEX  H2N   2408  16.932  17.311  13.627
    1STR  S00   2409   0.454  17.296  12.399
    1STR  S0E   2410  17.262   0.689  12.921
    1STR  S0M   2411  16.879  16.916  12.447
    1STR  S0X   2412   0.559  17.378  13.356
    1STR  S14   2413   0.169   0.103  13.765
    1STR  S1B   2414  17.018  17.411  13.607
    1HEX  C01   2415   0.081   4.806  17.077
    1HEX  C02   2416   0.143   4.667  17.033
    1HEX  C03   2417   0.071   4.532  17.003
    1HEX  O04   2418   0.141   4.431  16.997
    1HEX  O05   2419  17.379   4.530  16.982
    1HEX  C06   2420  17.310   4.403  16.963
    1HEX  C07   2421  17.245   4.344  17.093
    1HEX  C08   2422  17.242   4.451  17.202
    1HEX  O09   2423  17.178   4.564  17.149
    1HEX  C0A   2424  17.141   4.661  17.229
    1HEX  O0B   2425  17.134   4.655  17.351
    1HEX  C0C   2426  17.113   4.786  17.149
    1HEX  C0D   2427  17.122   4.910  17.237
    1HEX  C0F   2428  17.093   4.315  17.069
    1HEX  O0G   2429  17.073   4.197  16.993
    1HEX  C0H   2430  17.011   4.202  16.876
    1HEX  O0I   2431  16.969   4.302  16.819
    1HEX  C0J   2432  16.996   4.063  16.816
    1HEX  C0K   2433  16.877   3.990  16.879
    1HEX  C0N   2434  17.306   4.207  17.141
    1HEX  O0O   2435   0.003   4.190  17.178
    1HEX  C0P   2436   0.070   4.270  17.276
    1HEX  C0Q   2437   0.038   4.257  17.429
    1HEX  C0R   2438   0.072   4.115   0.039
    1HEX  O0S   2439   0.212   4.089   0.035
    1HEX  C0T   2440   0.284   4.085   0.149
    1HEX  O0U   2441   0.241   4.097   0.264
    1HEX  C0V   2442   0.432   4.063   0.123
    1HEX  C0W   2443   0.513   4.193   0.137
    1HEX  C0Y   2444   0.128   4.362   0.058
    1HEX  O0Z   2445   0.104   4.361   0.198
    1HEX  C10   2446   0.189   4.419   0.280
    1HEX  O11   2447   0.292   4.478   0.247
    1HEX  C12   2448   0.145   4.404   0.424
    1HEX  C13   2449   0.253   4.448   0.524
    1HEX  C15   2450  17.331   4.293   0.025
    1HEX  O16   2451  17.294   4.271   0.160
    1HEX  C17   2452  17.217   4.167   0.194
    1HEX  O18   2453  17.182   4.075   0.120
    1HEX  C19   2454  17.170   4.176   0.339
    1HEX  C1A   2455  17.088   4.304   0.360
    1HEX  H1D   2456   0.166   4.874  17.088
    1HEX  H1E   2457   0.018   4.847  16.998
    1HEX  H1F   2458   0.211   4.639  17.113
    1HEX  H1G   2459   0.207   4.683  16.947
    1HEX  H1H   2460  17.374   4.329  16.914
    1HEX  H1I   2461  17.232   4.422  16.889
    1HEX  H1J   2462  17.341   4.483  17.233
    1HEX  H1K   2463  17.186   4.418  17.288
    1HEX  H1M   2464  17.015   4.774  17.101
    1HEX  H1N   2465  17.188   4.789  17.070
    1HEX  H1O   2466  17.218   4.906  17.290
    1HEX  H1P   2467  17.046   4.905  17.315
    1HEX  H1Q   2468  17.173   5.082  17.187
    1HEX  H1R   2469  17.042   4.402  17.027
    1HEX  H1S   2470  17.042   4.299  17.164
    1HEX  H1T   2471  17.089   4.009  16.832
    1HEX  H1U   2472  16.983   4.074  16.708
    1HEX  H1V   2473  16.785   4.048  16.866
    1HEX  H1W   2474  16.891   3.978  16.986
    1HEX  H1X   2475  16.866   3.837  16.671
    1HEX  H1Y   2476  17.297   4.137  17.057
    1HEX  H1Z   2477  17.242   4.159  17.215
    1HEX  H20   2478   0.075   4.373  17.243
    1HEX  H21   2479   0.173   4.238  17.265
    1HEX  H22   2480   0.020   4.040  17.419
    1HEX  H23   2481   0.034   4.101   0.141
    1HEX  H24   2482   0.444   4.021   0.023
    1HEX  H25   2483   0.469   3.989   0.194
    1HEX  H26   2484   0.469   4.272   0.076
    1HEX  H27   2485   0.616   4.178   0.105
    1HEX  H28   2486   0.436   4.350   0.286
    1HEX  H29   2487   0.109   4.463   0.021
    1HEX  H2A   2488   0.233   4.342   0.038
    1HEX  H2B   2489   0.120   4.299   0.441
    1HEX  H2C   2490   0.054   4.461   0.436
    1HEX  H2D   2491   0.285   4.551   0.502
    1HEX  H2E   2492   0.342   4.386   0.512
    1HEX  H2F   2493   0.064   4.544   0.702
    1HEX  H2G   2494  17.260   4.242  17.401
    1HEX  H2H   2495  17.317   4.400   0.012
    1HEX  H2I   2496  17.257   4.174   0.404
    1HEX  H2J   2497  17.110   4.088   0.362
    1HEX  H2K   2498  17.007   4.310   0.287
    1HEX  H2M   2499  17.151   4.392   0.344
    1HEX  H2N   2500  16.932   4.232   0.547
    1STR  S00   2501   0.007   4.972  17.131
    1STR  S0E   2502  17.084   5.027  17.103
    1STR  S0M   2503  16.881   3.825  16.804
    1STR  S0X   2504   0.560   4.299   0.276
    1STR  S14   2505   0.169   4.463   0.684
    1STR  S1B   2506  17.019   4.331   0.525
    1HEX  C01   2507   0.269   4.211   3.666
    1HEX  C02   2508   0.204   4.214   3.804
    1HEX  C03   2509   0.053   4.203   3.794
    1HEX  O04   2510  17.439   4.098   3.761
    1HEX  O05   2511  17.430   4.317   3.829
    1HEX  C06   2512  17.290   4.315   3.851
    1HEX  C07   2513  17.255   4.303   4.003
    1HEX  C08   2514  17.271   4.443   4.068
    1HEX  O09   2515  17.185   4.549   4.028
    1HEX  C0A   2516  17.153   4.639   4.124
    1HEX  O0B   2517  17.120   4.610   4.239
    1HEX  C0C   2518  17.171   4.784   4.081
    1HEX  C0D   2519  17.181   4.878   4.203
    1HEX  C0F   2520  17.110   4.247   4.019
    1HEX  O0G   2521  17.112   4.103   4.012
    1HEX  C0H   2522  17.091   4.039   3.895
    1HEX  O0I   2523  17.035   4.090   3.799
    1HEX  C0J   2524  17.147   3.895   3.883
    1HEX  C0K   2525  17.202   3.817   4.008
    1HEX  C0N   2526  17.347   4.203   4.081
    1HEX  O0O   2527   0.046   4.229   4.085
    1HEX  C0P   2528   0.104   4.321   4.177
    1HEX  C0Q   2529   0.119   4.284   4.328
    1HEX  C0R   2530   0.155   4.130   4.329
    1HEX  O0S   2531   0.275   4.078   4.387
    1HEX  C0T   2532   0.270   3.951   4.438
    1HEX  O0U   2533   0.169   3.895   4.481
    1HEX  C0V   2534   0.398   3.871   4.429
    1HEX  C0W   2535   0.509   3.917   4.523
    1HEX  C0Y   2536   0.221   4.397   4.375
    1HEX  O0Z   2537   0.205   4.435   4.511
    1HEX  C10   2538   0.239   4.551   4.566
    1HEX  O11   2539   0.309   4.638   4.515
    1HEX  C12   2540   0.177   4.566   4.705
    1HEX  C13   2541   0.282   4.567   4.817
    1HEX  C15   2542  17.429   4.299   4.416
    1HEX  O16   2543   0.023   4.292   4.556
    1HEX  C17   2544   0.077   4.181   4.611
    1HEX  O18   2545   0.011   4.078   4.616
    1HEX  C19   2546   0.212   4.196   4.690
    1HEX  C1A   2547   0.360   4.219   4.630
    1HEX  H1C   2548   0.488   4.207   3.550
    1HEX  H1D   2549   0.238   4.121   3.612
    1HEX  H1E   2550   0.235   4.296   3.607
    1HEX  H1F   2551   0.231   4.304   3.859
    1HEX  H1G   2552   0.238   4.130   3.865
    1HEX  H1H   2553  17.243   4.237   3.792
    1HEX  H1I   2554  17.248   4.408   3.811
    1HEX  H1J   2555  17.367   4.482   4.037
    1HEX  H1K   2556  17.273   4.432   4.176
    1HEX  H1M   2557  17.090   4.815   4.014
    1HEX  H1N   2558  17.263   4.791   4.024
    1HEX  H1O   2559  17.256   4.843   4.273
    1HEX  H1P   2560  17.086   4.881   4.257
    1HEX  H1Q   2561  17.382   5.084   4.158
    1HEX  H1R   2562  17.042   4.292   3.945
    1HEX  H1S   2563  17.069   4.276   4.115
    1HEX  H1T   2564  17.227   3.902   3.810
    1HEX  H1U   2565  17.068   3.837   3.836
    1HEX  H1V   2566  17.199   3.711   3.985
    1HEX  H1W   2567  17.138   3.832   4.095
    1HEX  H1Y   2568  17.343   4.107   4.029
    1HEX  H1Z   2569  17.307   4.182   4.180
    1HEX  H20   2570   0.071   4.423   4.164
    1HEX  H21   2571   0.207   4.323   4.138
    1HEX  H22   2572   0.156   4.087   4.229
    1HEX  H23   2573   0.070   4.076   4.370
    1HEX  H24   2574   0.430   3.869   4.325
    1HEX  H25   2575   0.372   3.769   4.457
    1HEX  H26   2576   0.549   4.008   4.479
    1HEX  H27   2577   0.591   3.846   4.525
    1HEX  H28   2578   0.517   4.063   4.697
    1HEX  H29   2579   0.203   4.490   4.321
    1HEX  H2A   2580   0.324   4.370   4.353
    1HEX  H2B   2581   0.107   4.483   4.720
    1HEX  H2C   2582   0.116   4.656   4.709
    1HEX  H2D   2583   0.344   4.656   4.810
    1HEX  H2E   2584   0.349   4.481   4.810
    1HEX  H2F   2585   0.115   4.532   5.056
    1HEX  H2G   2586  17.352   4.225   4.393
    1HEX  H2H   2587  17.382   4.396   4.398
    1HEX  H2I   2588   0.217   4.101   4.744
    1HEX  H2J   2589   0.191   4.270   4.767
    1HEX  H2K   2590   0.431   4.243   4.709
    1HEX  H2M   2591   0.374   4.294   4.553
    1STR  S00   2592   0.450   4.210   3.678
    1STR  S0E   2593  17.261   5.040   4.193
    1STR  S0M   2594  17.297   3.670   4.072
    1STR  S0X   2595   0.568   3.939   4.693
    1STR  S14   2596   0.211   4.497   4.970
    1STR  S1B   2597   0.533   4.256   4.556
    1HEX  C01   2598   0.280   4.201   8.028
    1HEX  C02   2599   0.223   4.203   8.170
    1HEX  C03   2600   0.073   4.217   8.164
    1HEX  O04   2601   0.001   4.125   8.124
    1HEX  O05   2602   0.032   4.339   8.201
    1HEX  C06   2603  17.334   4.367   8.214
    1HEX  C07   2604  17.288   4.352   8.360
    1HEX  C08   2605  17.342   4.472   8.448
    1HEX  O09   2606   0.028   4.536   8.419
    1HEX  C0A   2607   0.088   4.613   8.518
    1HEX  O0B   2608   0.036   4.634   8.627
    1HEX  C0C   2609   0.224   4.680   8.483
    1HEX  C0D   2610   0.357   4.623   8.549
    1HEX  C0F   2611  17.132   4.358   8.356
    1HEX  O0G   2612  17.080   4.237   8.300
    1HEX  C0H   2613  17.020   4.233   8.180
    1HEX  O0I   2614  16.981   4.331   8.116
    1HEX  C0J   2615  17.009   4.092   8.123
    1HEX  C0K   2616  16.888   4.016   8.178
    1HEX  C0N   2617  17.319   4.210   8.421
    1HEX  O0O   2618   0.008   4.168   8.466
    1HEX  C0P   2619   0.085   4.236   8.565
    1HEX  C0Q   2620   0.043   4.238   8.717
    1HEX  C0R   2621   0.071   4.099   8.780
    1HEX  O0S   2622   0.210   4.067   8.773
    1HEX  C0T   2623   0.288   4.078   8.882
    1HEX  O0U   2624   0.251   4.098   8.998
    1HEX  C0V   2625   0.436   4.065   8.848
    1HEX  C0W   2626   0.511   4.199   8.857
    1HEX  C0Y   2627   0.135   4.343   8.785
    1HEX  O0Z   2628   0.109   4.348   8.924
    1HEX  C10   2629   0.188   4.417   9.003
    1HEX  O11   2630   0.287   4.482   8.968
    1HEX  C12   2631   0.145   4.406   9.148
    1HEX  C13   2632   0.255   4.450   9.246
    1HEX  C15   2633  17.336   4.282   8.746
    1HEX  O16   2634  17.294   4.266   8.881
    1HEX  C17   2635  17.216   4.165   8.917
    1HEX  O18   2636  17.180   4.072   8.845
    1HEX  C19   2637  17.170   4.177   9.061
    1HEX  C1A   2638  17.089   4.306   9.080
    1HEX  H1C   2639   0.490   4.210   7.905
    1HEX  H1D   2640   0.241   4.115   7.974
    1HEX  H1E   2641   0.248   4.290   7.974
    1HEX  H1F   2642   0.263   4.286   8.228
    1HEX  H1G   2643   0.247   4.112   8.224
    1HEX  H1H   2644  17.277   4.303   8.147
    1HEX  H1I   2645  17.316   4.468   8.178
    1HEX  H1J   2646  17.360   4.428   8.543
    1HEX  H1K   2647  17.265   4.546   8.471
    1HEX  H1M   2648   0.210   4.783   8.518
    1HEX  H1N   2649   0.231   4.688   8.375
    1HEX  H1O   2650   0.338   4.591   8.651
    1HEX  H1P   2651   0.434   4.701   8.556
    1HEX  H1R   2652  17.095   4.446   8.302
    1HEX  H1S   2653  17.090   4.367   8.456
    1HEX  H1T   2654  17.102   4.038   8.145
    1HEX  H1U   2655  17.003   4.100   8.015
    1HEX  H1V   2656  16.795   4.069   8.157
    1HEX  H1W   2657  16.895   4.002   8.285
    1HEX  H1X   2658  16.870   3.841   7.959
    1HEX  H1Y   2659  17.298   4.138   8.341
    1HEX  H1Z   2660  17.243   4.180   8.492
    1HEX  H20   2661   0.115   4.334   8.528
    1HEX  H21   2662   0.180   4.183   8.561
    1HEX  H22   2663   0.013   4.022   8.727
    1HEX  H23   2664   0.036   4.095   8.883
    1HEX  H24   2665   0.444   4.023   8.748
    1HEX  H25   2666   0.480   3.993   8.917
    1HEX  H26   2667   0.466   4.275   8.793
    1HEX  H27   2668   0.614   4.187   8.825
    1HEX  H28   2669   0.435   4.348   9.006
    1HEX  H29   2670   0.118   4.442   8.745
    1HEX  H2A   2671   0.240   4.321   8.767
    1HEX  H2B   2672   0.118   4.302   9.167
    1HEX  H2C   2673   0.055   4.465   9.159
    1HEX  H2D   2674   0.287   4.551   9.223
    1HEX  H2E   2675   0.343   4.386   9.233
    1HEX  H2F   2676   0.065   4.544   9.421
    1HEX  H2G   2677  17.264   4.232   8.683
    1HEX  H2H   2678  17.323   4.389   8.733
    1HEX  H2I   2679  17.258   4.176   9.125
    1HEX  H2J   2680  17.110   4.090   9.085
    1HEX  H2K   2681  17.008   4.312   9.008
    1HEX  H2M   2682  17.152   4.394   9.063
    1HEX  H2N   2683  16.930   4.232   9.267
    1STR  S00   2684   0.461   4.212   8.035
    1STR  S0E   2685   0.543   4.597   8.572
    1STR  S0M   2686  16.881   3.856   8.091
    1STR  S0X   2687   0.561   4.300   8.999
    1STR  S14   2688   0.170   4.463   9.406
    1STR  S1B   2689  17.017   4.331   9.244
    1HEX  C01   2690   0.265   4.209  12.399
    1HEX  C02   2691   0.205   4.218  12.539
    1HEX  C03   2692   0.054   4.229  12.531
    1HEX  O04   2693  17.426   4.137  12.487
    1HEX  O05   2694   0.008   4.349  12.575
    1HEX  C06   2695  17.308   4.374  12.578
    1HEX  C07   2696  17.250   4.363  12.721
    1HEX  C08   2697  17.292   4.488  12.804
    1HEX  O09   2698  17.238   4.617  12.774
    1HEX  C0A   2699  17.238   4.711  12.875
    1HEX  O0B   2700  17.238   4.685  12.995
    1HEX  C0C   2701  17.241   4.857  12.826
    1HEX  C0D   2702  17.268   4.966  12.935
    1HEX  C0F   2703  17.094   4.359  12.714
    1HEX  O0G   2704  17.051   4.235  12.657
    1HEX  C0H   2705  17.009   4.228  12.530
    1HEX  O0I   2706  16.981   4.324  12.458
    1HEX  C0J   2707  17.003   4.085  12.478
    1HEX  C0K   2708  16.885   4.008  12.535
    1HEX  C0N   2709  17.292   4.226  12.788
    1HEX  O0O   2710  17.427   4.199  12.830
    1HEX  C0P   2711   0.058   4.276  12.928
    1HEX  C0Q   2712   0.023   4.269  13.080
    1HEX  C0R   2713   0.051   4.127  13.133
    1HEX  O0S   2714   0.191   4.095  13.124
    1HEX  C0T   2715   0.268   4.089  13.234
    1HEX  O0U   2716   0.230   4.103  13.351
    1HEX  C0V   2717   0.415   4.065  13.202
    1HEX  C0W   2718   0.500   4.192  13.218
    1HEX  C0Y   2719   0.118   4.371  13.148
    1HEX  O0Z   2720   0.094   4.371  13.286
    1HEX  C10   2721   0.185   4.420  13.368
    1HEX  O11   2722   0.292   4.472  13.335
    1HEX  C12   2723   0.144   4.404  13.513
    1HEX  C13   2724   0.253   4.448  13.611
    1HEX  C15   2725  17.317   4.316  13.112
    1HEX  O16   2726  17.262   4.284  13.239
    1HEX  C17   2727  17.166   4.190  13.246
    1HEX  O18   2728  17.153   4.096  13.167
    1HEX  C19   2729  17.068   4.212  13.360
    1HEX  C1A   2730  16.936   4.279  13.311
    1HEX  H1C   2731   0.486   4.208  12.270
    1HEX  H1D   2732   0.228   4.120  12.347
    1HEX  H1E   2733   0.235   4.296  12.339
    1HEX  H1F   2734   0.245   4.303  12.594
    1HEX  H1G   2735   0.230   4.129  12.597
    1HEX  H1H   2736  17.256   4.306  12.509
    1HEX  H1I   2737  17.289   4.473  12.537
    1HEX  H1J   2738  17.399   4.504  12.791
    1HEX  H1K   2739  17.273   4.465  12.908
    1HEX  H1M   2740  17.148   4.878  12.773
    1HEX  H1N   2741  17.321   4.861  12.753
    1HEX  H1O   2742  17.355   4.941  12.996
    1HEX  H1P   2743  17.183   4.974  13.004
    1HEX  H1R   2744  17.054   4.445  12.660
    1HEX  H1S   2745  17.051   4.365  12.814
    1HEX  H1T   2746  17.098   4.036  12.502
    1HEX  H1U   2747  16.997   4.090  12.369
    1HEX  H1V   2748  16.791   4.061  12.517
    1HEX  H1W   2749  16.895   3.997  12.644
    1HEX  H1X   2750  16.868   3.842  12.316
    1HEX  H1Y   2751  17.276   4.149  12.712
    1HEX  H1Z   2752  17.221   4.192  12.863
    1HEX  H20   2753   0.074   4.378  12.895
    1HEX  H21   2754   0.159   4.235  12.919
    1HEX  H22   2755  17.435   4.053  13.076
    1HEX  H23   2756   0.016   4.117  13.236
    1HEX  H24   2757   0.423   4.025  13.101
    1HEX  H25   2758   0.452   3.988  13.270
    1HEX  H26   2759   0.461   4.273  13.157
    1HEX  H27   2760   0.604   4.174  13.187
    1HEX  H28   2761   0.435   4.350  13.366
    1HEX  H29   2762   0.103   4.472  13.110
    1HEX  H2A   2763   0.222   4.346  13.127
    1HEX  H2B   2764   0.118   4.299  13.529
    1HEX  H2C   2765   0.052   4.462  13.526
    1HEX  H2D   2766   0.285   4.550  13.588
    1HEX  H2E   2767   0.341   4.385  13.598
    1HEX  H2F   2768   0.066   4.549  13.778
    1HEX  H2G   2769  17.247   4.284  13.037
    1HEX  H2H   2770  17.314   4.425  13.109
    1HEX  H2I   2771  17.116   4.269  13.439
    1HEX  H2J   2772  17.045   4.114  13.402
    1HEX  H2K   2773  16.909   4.249  13.210
    1HEX  H2M   2774  16.945   4.388  13.311
    1STR  S00   2775   0.447   4.214  12.398
    1STR  S0E   2776  17.343   5.113  13.016
    1STR  S0M   2777  16.881   3.848  12.449
    1STR  S0X   2778   0.557   4.295  13.356
    1STR  S14   2779   0.169   4.464  13.771
    1STR  S1B   2780  16.779   4.333  13.234
    1HEX  C01   2781   0.270   8.566  16.752
    1HEX  C02   2782   0.205   8.568  16.890
    1HEX  C03   2783   0.054   8.563  16.877
    1HEX  O04   2784  17.437   8.462  16.836
    1HEX  O05   2785  17.436   8.678  16.913
    1HEX  C06   2786  17.294   8.684  16.926
    1HEX  C07   2787  17.252   8.674  17.075
    1HEX  C08   2788  17.289   8.808  17.141
    1HEX  O09   2789  17.215   8.923  17.103
    1HEX  C0A   2790  17.169   9.004  17.201
    1HEX  O0B   2791  17.133   8.966  17.313
    1HEX  C0C   2792  17.175   9.152  17.164
    1HEX  C0D   2793  17.179   9.241  17.289
    1HEX  C0F   2794  17.099   8.650  17.085
    1HEX  O0G   2795  17.071   8.511  17.062
    1HEX  C0H   2796  17.041   8.467  16.939
    1HEX  O0I   2797  16.995   8.536  16.849
    1HEX  C0J   2798  17.077   8.320  16.914
    1HEX  C0K   2799  17.101   8.233  17.041
    1HEX  C0N   2800  17.320   8.551  17.147
    1HEX  O0O   2801   0.019   8.553  17.182
    1HEX  C0P   2802   0.075   8.638  17.282
    1HEX  C0Q   2803   0.036   8.625  17.433
    1HEX  C0R   2804   0.068   8.481   0.041
    1HEX  O0S   2805   0.209   8.455   0.036
    1HEX  C0T   2806   0.281   8.447   0.150
    1HEX  O0U   2807   0.239   8.459   0.265
    1HEX  C0V   2808   0.429   8.423   0.123
    1HEX  C0W   2809   0.511   8.552   0.137
    1HEX  C0Y   2810   0.127   8.728   0.065
    1HEX  O0Z   2811   0.102   8.724   0.204
    1HEX  C10   2812   0.188   8.781   0.287
    1HEX  O11   2813   0.291   8.841   0.254
    1HEX  C12   2814   0.145   8.763   0.431
    1HEX  C13   2815   0.254   8.808   0.530
    1HEX  C15   2816  17.329   8.665   0.025
    1HEX  O16   2817  17.290   8.641   0.160
    1HEX  C17   2818  17.216   8.534   0.192
    1HEX  O18   2819  17.184   8.443   0.117
    1HEX  C19   2820  17.170   8.539   0.337
    1HEX  C1A   2821  17.087   8.666   0.361
    1HEX  H1C   2822   0.487   8.571  16.630
    1HEX  H1D   2823   0.240   8.476  16.698
    1HEX  H1E   2824   0.236   8.651  16.693
    1HEX  H1F   2825   0.234   8.656  16.946
    1HEX  H1G   2826   0.236   8.481  16.949
    1HEX  H1H   2827  17.247   8.608  16.864
    1HEX  H1I   2828  17.260   8.779  16.884
    1HEX  H1J   2829  17.391   8.834  17.114
    1HEX  H1K   2830  17.287   8.796  17.248
    1HEX  H1M   2831  17.091   9.178  17.100
    1HEX  H1N   2832  17.266   9.167  17.107
    1HEX  H1O   2833  17.256   9.207  17.359
    1HEX  H1P   2834  17.084   9.237  17.343
    1HEX  H1Q   2835  17.382   9.446  17.238
    1HEX  H1R   2836  17.043   8.716  17.018
    1HEX  H1S   2837  17.063   8.674  17.185
    1HEX  H1T   2838  17.169   8.321  16.856
    1HEX  H1U   2839  17.001   8.277  16.850
    1HEX  H1V   2840  17.089   8.127  17.020
    1HEX  H1W   2841  17.034   8.260  17.122
    1HEX  H1Y   2842  17.313   8.467  17.078
    1HEX  H1Z   2843  17.261   8.514  17.230
    1HEX  H20   2844   0.075   8.742  17.251
    1HEX  H21   2845   0.181   8.613  17.275
    1HEX  H22   2846   0.016   8.408  17.420
    1HEX  H23   2847   0.031   8.466   0.143
    1HEX  H24   2848   0.439   8.381   0.023
    1HEX  H25   2849   0.465   8.349   0.194
    1HEX  H26   2850   0.469   8.632   0.075
    1HEX  H27   2851   0.614   8.536   0.105
    1HEX  H28   2852   0.435   8.710   0.287
    1HEX  H29   2853   0.109   8.829   0.030
    1HEX  H2A   2854   0.232   8.707   0.045
    1HEX  H2B   2855   0.121   8.658   0.446
    1HEX  H2C   2856   0.054   8.820   0.444
    1HEX  H2D   2857   0.285   8.910   0.509
    1HEX  H2E   2858   0.343   8.746   0.517
    1HEX  H2F   2859   0.064   8.905   0.703
    1HEX  H2G   2860  17.255   8.620  17.400
    1HEX  H2H   2861  17.316   8.772   0.014
    1HEX  H2I   2862  17.258   8.537   0.401
    1HEX  H2J   2863  17.112   8.449   0.358
    1HEX  H2K   2864  17.006   8.672   0.288
    1HEX  H2M   2865  17.149   8.755   0.347
    1HEX  H2N   2866  16.932   8.591   0.546
    1STR  S00   2867   0.451   8.578  16.759
    1STR  S0E   2868  17.262   9.402  17.276
    1STR  S0M   2869  17.181   8.082  17.105
    1STR  S0X   2870   0.558   8.658   0.275
    1STR  S14   2871   0.169   8.823   0.689
    1STR  S1B   2872  17.019   8.691   0.526
    1HEX  C01   2873   0.273   8.566   3.672
    1HEX  C02   2874   0.212   8.569   3.813
    1HEX  C03   2875   0.060   8.570   3.804
    1HEX  O04   2876  17.438   8.470   3.766
    1HEX  O05   2877   0.007   8.688   3.838
    1HEX  C06   2878  17.305   8.703   3.844
    1HEX  C07   2879  17.256   8.697   3.990
    1HEX  C08   2880  17.306   8.825   4.061
    1HEX  O09   2881  17.241   8.946   4.024
    1HEX  C0A   2882  17.178   9.017   4.119
    1HEX  O0B   2883  17.130   8.971   4.223
    1HEX  C0C   2884  17.176   9.166   4.088
    1HEX  C0D   2885  17.178   9.250   4.217
    1HEX  C0F   2886  17.101   8.697   3.993
    1HEX  O0G   2887  17.052   8.576   3.935
    1HEX  C0H   2888  17.006   8.575   3.810
    1HEX  O0I   2889  16.978   8.674   3.742
    1HEX  C0J   2890  16.997   8.435   3.752
    1HEX  C0K   2891  16.878   8.358   3.811
    1HEX  C0N   2892  17.302   8.565   4.062
    1HEX  O0O   2893  17.438   8.546   4.104
    1HEX  C0P   2894   0.067   8.627   4.200
    1HEX  C0Q   2895   0.032   8.621   4.352
    1HEX  C0R   2896   0.066   8.479   4.405
    1HEX  O0S   2897   0.206   8.452   4.398
    1HEX  C0T   2898   0.280   8.447   4.511
    1HEX  O0U   2899   0.239   8.460   4.626
    1HEX  C0V   2900   0.428   8.424   4.482
    1HEX  C0W   2901   0.510   8.552   4.497
    1HEX  C0Y   2902   0.124   8.725   4.420
    1HEX  O0Z   2903   0.100   8.725   4.559
    1HEX  C10   2904   0.188   8.780   4.642
    1HEX  O11   2905   0.292   8.837   4.608
    1HEX  C12   2906   0.145   8.764   4.786
    1HEX  C13   2907   0.254   8.808   4.885
    1HEX  C15   2908  17.325   8.661   4.385
    1HEX  O16   2909  17.287   8.639   4.520
    1HEX  C17   2910  17.215   8.531   4.555
    1HEX  O18   2911  17.185   8.438   4.481
    1HEX  C19   2912  17.169   8.538   4.699
    1HEX  C1A   2913  17.086   8.665   4.721
    1HEX  H1C   2914   0.488   8.570   3.550
    1HEX  H1D   2915   0.239   8.478   3.619
    1HEX  H1E   2916   0.239   8.653   3.615
    1HEX  H1F   2917   0.244   8.657   3.868
    1HEX  H1G   2918   0.242   8.482   3.870
    1HEX  H1H   2919  17.257   8.628   3.781
    1HEX  H1I   2920  17.278   8.798   3.799
    1HEX  H1J   2921  17.410   8.843   4.034
    1HEX  H1K   2922  17.303   8.812   4.168
    1HEX  H1M   2923  17.090   9.191   4.026
    1HEX  H1N   2924  17.265   9.187   4.030
    1HEX  H1O   2925  17.256   9.214   4.285
    1HEX  H1P   2926  17.084   9.240   4.270
    1HEX  H1Q   2927  17.383   9.447   4.159
    1HEX  H1R   2928  17.059   8.785   3.944
    1HEX  H1S   2929  17.064   8.702   4.096
    1HEX  H1T   2930  17.091   8.383   3.773
    1HEX  H1U   2931  16.989   8.443   3.644
    1HEX  H1V   2932  16.786   8.413   3.794
    1HEX  H1W   2933  16.890   8.346   3.918
    1HEX  H1X   2934  16.868   8.199   3.594
    1HEX  H1Y   2935  17.286   8.485   3.991
    1HEX  H1Z   2936  17.233   8.535   4.141
    1HEX  H20   2937   0.077   8.730   4.166
    1HEX  H21   2938   0.170   8.592   4.191
    1HEX  H22   2939   0.012   8.403   4.347
    1HEX  H23   2940   0.030   8.467   4.507
    1HEX  H24   2941   0.438   8.382   4.382
    1HEX  H25   2942   0.464   8.349   4.553
    1HEX  H26   2943   0.469   8.633   4.435
    1HEX  H27   2944   0.613   8.537   4.465
    1HEX  H28   2945   0.435   8.710   4.647
    1HEX  H29   2946   0.105   8.826   4.383
    1HEX  H2A   2947   0.229   8.704   4.400
    1HEX  H2B   2948   0.120   8.659   4.802
    1HEX  H2C   2949   0.054   8.821   4.799
    1HEX  H2D   2950   0.285   8.910   4.863
    1HEX  H2E   2951   0.342   8.745   4.873
    1HEX  H2F   2952   0.064   8.904   5.063
    1HEX  H2G   2953  17.252   8.613   4.322
    1HEX  H2H   2954  17.311   8.768   4.371
    1HEX  H2I   2955  17.256   8.537   4.764
    1HEX  H2J   2956  17.110   8.449   4.721
    1HEX  H2K   2957  17.006   8.671   4.648
    1HEX  H2M   2958  17.148   8.754   4.707
    1HEX  H2N   2959  16.932   8.592   4.907
    1STR  S00   2960   0.453   8.576   3.679
    1STR  S0E   2961  17.262   9.410   4.201
    1STR  S0M   2962  16.879   8.197   3.727
    1STR  S0X   2963   0.559   8.658   4.636
    1STR  S14   2964   0.169   8.823   5.045
    1STR  S1B   2965  17.018   8.692   4.887
    1HEX  C01   2966   0.273   8.566   8.032
    1HEX  C02   2967   0.212   8.569   8.173
    1HEX  C03   2968   0.060   8.570   8.164
    1HEX  O04   2969  17.438   8.470   8.126
    1HEX  O05   2970   0.007   8.688   8.198
    1HEX  C06   2971  17.305   8.703   8.204
    1HEX  C07   2972  17.256   8.697   8.350
    1HEX  C08   2973  17.306   8.825   8.421
    1HEX  O09   2974  17.241   8.946   8.384
    1HEX  C0A   2975  17.178   9.017   8.479
    1HEX  O0B   2976  17.130   8.971   8.583
    1HEX  C0C   2977  17.176   9.166   8.448
    1HEX  C0D   2978  17.178   9.250   8.577
    1HEX  C0F   2979  17.101   8.697   8.353
    1HEX  O0G   2980  17.052   8.576   8.295
    1HEX  C0H   2981  17.006   8.575   8.170
    1HEX  O0I   2982  16.978   8.674   8.102
    1HEX  C0J   2983  16.997   8.435   8.112
    1HEX  C0K   2984  16.878   8.358   8.171
    1HEX  C0N   2985  17.302   8.565   8.422
    1HEX  O0O   2986  17.438   8.546   8.464
    1HEX  C0P   2987   0.067   8.627   8.560
    1HEX  C0Q   2988   0.032   8.621   8.712
    1HEX  C0R   2989   0.066   8.479   8.765
    1HEX  O0S   2990   0.206   8.452   8.758
    1HEX  C0T   2991   0.280   8.447   8.871
    1HEX  O0U   2992   0.239   8.460   8.986
    1HEX  C0V   2993   0.428   8.424   8.842
    1HEX  C0W   2994   0.510   8.552   8.857
    1HEX  C0Y   2995   0.124   8.725   8.780
    1HEX  O0Z   2996   0.100   8.725   8.919
    1HEX  C10   2997   0.188   8.780   9.002
    1HEX  O11   2998   0.292   8.837   8.968
    1HEX  C12   2999   0.145   8.764   9.146
    1HEX  C13   3000   0.254   8.808   9.245
    1HEX  C15   3001  17.325   8.661   8.745
    1HEX  O16   3002  17.287   8.639   8.880
    1HEX  C17   3003  17.215   8.531   8.915
    1HEX  O18   3004  17.185   8.438   8.841
    1HEX  C19   3005  17.169   8.538   9.059
    1HEX  C1A   3006  17.086   8.665   9.081
    1HEX  H1C   3007   0.488   8.570   7.910
    1HEX  H1D   3008   0.239   8.478   7.979
    1HEX  H1E   3009   0.239   8.653   7.975
    1HEX  H1F   3010   0.244   8.657   8.228
    1HEX  H1G   3011   0.242   8.482   8.230
    1HEX  H1H   3012  17.257   8.628   8.141
    1HEX  H1I   3013  17.278   8.798   8.159
    1HEX  H1J   3014  17.410   8.843   8.394
    1HEX  H1K   3015  17.303   8.812   8.528
    1HEX  H1M   3016  17.090   9.191   8.386
    1HEX  H1N   3017  17.265   9.187   8.390
    1HEX  H1O   3018  17.256   9.214   8.645
    1HEX  H1P   3019  17.084   9.240   8.630
    1HEX  H1Q   3020  17.383   9.447   8.519
    1HEX  H1R   3021  17.059   8.785   8.304
    1HEX  H1S   3022  17.064   8.702   8.456
    1HEX  H1T   3023  17.091   8.383   8.133
    1HEX  H1U   3024  16.989   8.443   8.004
    1HEX  H1V   3025  16.786   8.413   8.154
    1HEX  H1W   3026  16.890   8.346   8.278
    1HEX  H1X   3027  16.868   8.199   7.954
    1HEX  H1Y   3028  17.286   8.485   8.351
    1HEX  H1Z   3029  17.233   8.535   8.501
    1HEX  H20   3030   0.077   8.730   8.526
    1HEX  H21   3031   0.170   8.592   8.551
    1HEX  H22   3032   0.012   8.403   8.707
    1HEX  H23   3033   0.030   8.467   8.867
    1HEX  H24   3034   0.438   8.382   8.742
    1HEX  H25   3035   0.464   8.349   8.913
    1HEX  H26   3036   0.469   8.633   8.795
    1HEX  H27   3037   0.613   8.537   8.825
    1HEX  H28   3038   0.436   8.710   9.007
    1HEX  H29   3039   0.105   8.826   8.743
    1HEX  H2A   3040   0.229   8.704   8.760
    1HEX  H2B   3041   0.120   8.659   9.162
    1HEX  H2C   3042   0.054   8.821   9.159
    1HEX  H2D   3043   0.285   8.910   9.223
    1HEX  H2E   3044   0.342   8.745   9.233
    1HEX  H2F   3045   0.064   8.904   9.423
    1HEX  H2G   3046  17.252   8.613   8.682
    1HEX  H2H   3047  17.311   8.768   8.731
    1HEX  H2I   3048  17.256   8.537   9.124
    1HEX  H2J   3049  17.110   8.449   9.081
    1HEX  H2K   3050  17.006   8.671   9.008
    1HEX  H2M   3051  17.148   8.754   9.067
    1HEX  H2N   3052  16.932   8.592   9.267
    1STR  S00   3053   0.454   8.576   8.039
    1STR  S0E   3054  17.262   9.410   8.561
    1STR  S0M   3055  16.879   8.197   8.087
    1STR  S0X   3056   0.559   8.658   8.996
    1STR  S14   3057   0.169   8.823   9.405
    1STR  S1B   3058  17.018   8.692   9.247
    1HEX  C01   3059   0.267   8.570  12.392
    1HEX  C02   3060   0.205   8.570  12.531
    1HEX  C03   3061   0.054   8.552  12.523
    1HEX  O04   3062   0.005   8.444  12.489
    1HEX  O05   3063  17.427   8.662  12.558
    1HEX  C06   3064  17.286   8.655  12.579
    1HEX  C07   3065  17.255   8.650  12.731
    1HEX  C08   3066  17.282   8.792  12.786
    1HEX  O09   3067  17.200   8.902  12.748
    1HEX  C0A   3068  17.166   8.990  12.846
    1HEX  O0B   3069  17.133   8.958  12.960
    1HEX  C0C   3070  17.183   9.136  12.806
    1HEX  C0D   3071  17.187   9.229  12.929
    1HEX  C0F   3072  17.107   8.604  12.754
    1HEX  O0G   3073  17.099   8.461  12.772
    1HEX  C0H   3074  17.087   8.378  12.666
    1HEX  O0I   3075  17.045   8.414  12.556
    1HEX  C0J   3076  17.136   8.232  12.686
    1HEX  C0K   3077  17.180   8.180  12.827
    1HEX  C0N   3078  17.342   8.543  12.808
    1HEX  O0O   3079   0.041   8.564  12.834
    1HEX  C0P   3080   0.088   8.659  12.930
    1HEX  C0Q   3081   0.051   8.653  13.083
    1HEX  C0R   3082   0.081   8.510  13.135
    1HEX  O0S   3083   0.219   8.477  13.124
    1HEX  C0T   3084   0.291   8.452  13.235
    1HEX  O0U   3085   0.250   8.454  13.351
    1HEX  C0V   3086   0.437   8.425  13.203
    1HEX  C0W   3087   0.518   8.555  13.210
    1HEX  C0Y   3088   0.146   8.761  13.149
    1HEX  O0Z   3089   0.085   8.868  13.222
    1HEX  C10   3090   0.163   8.975  13.256
    1HEX  O11   3091   0.283   8.985  13.231
    1HEX  C12   3092   0.091   9.086  13.333
    1HEX  C13   3093   0.095   9.229  13.267
    1HEX  C15   3094  17.343   8.689  13.115
    1HEX  O16   3095  17.303   8.657  13.248
    1HEX  C17   3096  17.225   8.550  13.271
    1HEX  O18   3097  17.192   8.464  13.189
    1HEX  C19   3098  17.174   8.546  13.415
    1HEX  C1A   3099  17.086   8.668  13.442
    1HEX  H1C   3100   0.487   8.570  12.269
    1HEX  H1D   3101   0.238   8.479  12.338
    1HEX  H1E   3102   0.230   8.655  12.334
    1HEX  H1F   3103   0.228   8.661  12.586
    1HEX  H1G   3104   0.244   8.487  12.591
    1HEX  H1H   3105  17.242   8.572  12.525
    1HEX  H1I   3106  17.241   8.744  12.535
    1HEX  H1J   3107  17.381   8.823  12.752
    1HEX  H1K   3108  17.288   8.788  12.893
    1HEX  H1M   3109  17.102   9.165  12.740
    1HEX  H1N   3110  17.276   9.147  12.750
    1HEX  H1O   3111  17.266   9.200  12.999
    1HEX  H1P   3112  17.093   9.225  12.984
    1HEX  H1Q   3113  17.300   9.442  12.925
    1HEX  H1R   3114  17.042   8.639  12.674
    1HEX  H1S   3115  17.068   8.651  12.845
    1HEX  H1T   3116  17.220   8.221  12.617
    1HEX  H1U   3117  17.057   8.169  12.646
    1HEX  H1V   3118  17.195   8.072  12.828
    1HEX  H1W   3119  17.106   8.204  12.904
    1HEX  H1Y   3120  17.343   8.454  12.744
    1HEX  H1Z   3121  17.295   8.506  12.898
    1HEX  H20   3122   0.079   8.760  12.892
    1HEX  H21   3123   0.195   8.640  12.924
    1HEX  H22   3124   0.023   8.436  13.078
    1HEX  H23   3125   0.046   8.498  13.237
    1HEX  H24   3126   0.443   8.380  13.105
    1HEX  H25   3127   0.475   8.353  13.275
    1HEX  H26   3128   0.471   8.633  13.149
    1HEX  H27   3129   0.619   8.540  13.173
    1HEX  H28   3130   0.433   8.687  13.397
    1HEX  H29   3131   0.203   8.811  13.071
    1HEX  H2A   3132   0.222   8.714  13.212
    1HEX  H2B   3133   0.140   9.089  13.431
    1HEX  H2C   3134  17.429   9.054  13.352
    1HEX  H2D   3135   0.196   9.251  13.232
    1HEX  H2E   3136   0.069   9.306  13.339
    1HEX  H2G   3137  17.272   8.642  13.047
    1HEX  H2H   3138  17.326   8.796  13.103
    1HEX  H2I   3139  17.260   8.543  13.482
    1HEX  H2J   3140  17.119   8.453  13.430
    1HEX  H2K   3141  17.005   8.673  13.369
    1HEX  H2M   3142  17.144   8.759  13.430
    1HEX  H2N   3143  16.935   8.590  13.622
    1STR  S00   3144   0.448   8.575  12.397
    1STR  S0E   3145  17.169   9.409  12.922
    1STR  S0M   3146  17.250   8.034  12.919
    1STR  S0X   3147   0.556   8.663  13.350
    1STR  S14   3148   0.098   9.396  13.185
    1STR  S1B   3149  17.018   8.694  13.608
    1HEX  C01   3150   0.273  12.927  16.752
    1HEX  C02   3151   0.212  12.929  16.893
    1HEX  C03   3152   0.060  12.930  16.884
    1HEX  O04   3153  17.438  12.830  16.846
    1HEX  O05   3154   0.007  13.048  16.918
    1HEX  C06   3155  17.305  13.063  16.924
    1HEX  C07   3156  17.256  13.057  17.070
    1HEX  C08   3157  17.306  13.185  17.141
    1HEX  O09   3158  17.241  13.306  17.104
    1HEX  C0A   3159  17.178  13.377  17.199
    1HEX  O0B   3160  17.130  13.331  17.303
    1HEX  C0C   3161  17.176  13.526  17.168
    1HEX  C0D   3162  17.178  13.610  17.297
    1HEX  C0F   3163  17.101  13.057  17.073
    1HEX  O0G   3164  17.052  12.936  17.015
    1HEX  C0H   3165  17.006  12.935  16.890
    1HEX  O0I   3166  16.978  13.034  16.822
    1HEX  C0J   3167  16.997  12.795  16.832
    1HEX  C0K   3168  16.878  12.718  16.891
    1HEX  C0N   3169  17.302  12.925  17.142
    1HEX  O0O   3170  17.438  12.906  17.184
    1HEX  C0P   3171   0.067  12.987  17.280
    1HEX  C0Q   3172   0.032  12.981  17.432
    1HEX  C0R   3173   0.066  12.839   0.045
    1HEX  O0S   3174   0.206  12.812   0.038
    1HEX  C0T   3175   0.280  12.807   0.151
    1HEX  O0U   3176   0.239  12.820   0.266
    1HEX  C0V   3177   0.428  12.784   0.122
    1HEX  C0W   3178   0.510  12.913   0.137
    1HEX  C0Y   3179   0.124  13.085   0.060
    1HEX  O0Z   3180   0.100  13.085   0.199
    1HEX  C10   3181   0.188  13.140   0.281
    1HEX  O11   3182   0.292  13.198   0.248
    1HEX  C12   3183   0.145  13.124   0.426
    1HEX  C13   3184   0.254  13.168   0.525
    1HEX  C15   3185  17.325  13.021   0.025
    1HEX  O16   3186  17.287  12.999   0.160
    1HEX  C17   3187  17.215  12.892   0.195
    1HEX  O18   3188  17.185  12.798   0.121
    1HEX  C19   3189  17.169  12.898   0.339
    1HEX  C1A   3190  17.086  13.026   0.361
    1HEX  H1C   3191   0.488  12.930  16.630
    1HEX  H1D   3192   0.239  12.838  16.699
    1HEX  H1E   3193   0.239  13.013  16.695
    1HEX  H1F   3194   0.244  13.017  16.948
    1HEX  H1G   3195   0.242  12.842  16.950
    1HEX  H1H   3196  17.257  12.988  16.861
    1HEX  H1I   3197  17.278  13.158  16.879
    1HEX  H1J   3198  17.410  13.203  17.114
    1HEX  H1K   3199  17.303  13.172  17.248
    1HEX  H1M   3200  17.090  13.551  17.106
    1HEX  H1N   3201  17.265  13.547  17.110
    1HEX  H1O   3202  17.256  13.574  17.365
    1HEX  H1P   3203  17.084  13.600  17.350
    1HEX  H1Q   3204  17.383  13.808  17.240
    1HEX  H1R   3205  17.059  13.145  17.024
    1HEX  H1S   3206  17.064  13.063  17.176
    1HEX  H1T   3207  17.091  12.743  16.853
    1HEX  H1U   3208  16.989  12.803  16.724
    1HEX  H1V   3209  16.786  12.773  16.874
    1HEX  H1W   3210  16.890  12.706  16.998
    1HEX  H1X   3211  16.868  12.559  16.674
    1HEX  H1Y   3212  17.286  12.845  17.071
    1HEX  H1Z   3213  17.233  12.895  17.221
    1HEX  H20   3214   0.077  13.090  17.246
    1HEX  H21   3215   0.170  12.952  17.271
    1HEX  H22   3216   0.012  12.763  17.427
    1HEX  H23   3217   0.030  12.827   0.147
    1HEX  H24   3218   0.438  12.742   0.022
    1HEX  H25   3219   0.464  12.709   0.193
    1HEX  H26   3220   0.469  12.993   0.075
    1HEX  H27   3221   0.613  12.897   0.105
    1HEX  H28   3222   0.436  13.070   0.286
    1HEX  H29   3223   0.105  13.186   0.022
    1HEX  H2A   3224   0.229  13.065   0.040
    1HEX  H2B   3225   0.120  13.019   0.442
    1HEX  H2C   3226   0.054  13.182   0.439
    1HEX  H2D   3227   0.285  13.271   0.503
    1HEX  H2E   3228   0.342  13.106   0.513
    1HEX  H2F   3229   0.064  13.264   0.703
    1HEX  H2G   3230  17.252  12.973  17.402
    1HEX  H2H   3231  17.311  13.128   0.011
    1HEX  H2I   3232  17.256  12.897   0.404
    1HEX  H2J   3233  17.110  12.809   0.361
    1HEX  H2K   3234  17.006  13.032   0.288
    1HEX  H2M   3235  17.148  13.114   0.347
    1HEX  H2N   3236  16.932  12.952   0.547
    1STR  S00   3237   0.454  12.936  16.759
    1STR  S0E   3238  17.262  13.770  17.281
    1STR  S0M   3239  16.880  12.557  16.807
    1STR  S0X   3240   0.559  13.018   0.276
    1STR  S14   3241   0.169  13.183   0.685
    1STR  S1B   3242  17.019  13.052   0.527
    1HEX  C01   3243   0.269  12.928   3.676
    1HEX  C02   3244   0.209  12.933   3.816
    1HEX  C03   3245   0.057  12.935   3.810
    1HEX  O04   3246  17.434  12.835   3.775
    1HEX  O05   3247   0.005  13.054   3.843
    1HEX  C06   3248  17.303  13.071   3.847
    1HEX  C07   3249  17.249  13.072   3.992
    1HEX  C08   3250  17.290  13.203   4.059
    1HEX  O09   3251  17.220  13.320   4.022
    1HEX  C0A   3252  17.164  13.393   4.120
    1HEX  O0B   3253  17.116  13.348   4.224
    1HEX  C0C   3254  17.175  13.542   4.094
    1HEX  C0D   3255  17.183  13.621   4.226
    1HEX  C0F   3256  17.094  13.063   3.990
    1HEX  O0G   3257  17.053  12.939   3.933
    1HEX  C0H   3258  17.005  12.935   3.808
    1HEX  O0I   3259  16.974  13.032   3.739
    1HEX  C0J   3260  16.998  12.793   3.753
    1HEX  C0K   3261  16.879  12.717   3.811
    1HEX  C0N   3262  17.302  12.952   4.077
    1HEX  O0O   3263  17.437  12.954   4.128
    1HEX  C0P   3264   0.050  13.049   4.223
    1HEX  C0Q   3265   0.016  13.041   4.377
    1HEX  C0R   3266   0.151  13.004   4.444
    1HEX  O0S   3267   0.238  13.115   4.413
    1HEX  C0T   3268   0.286  13.200   4.508
    1HEX  O0U   3269   0.308  13.165   4.624
    1HEX  C0V   3270   0.333  13.337   4.452
    1HEX  C0W   3271   0.249  13.475   4.458
    1HEX  C0Y   3272  17.414  13.178   4.445
    1HEX  O0Z   3273  17.396  13.153   4.586
    1HEX  C10   3274   0.021  13.215   4.687
    1HEX  O11   3275   0.075  13.325   4.681
    1HEX  C12   3276   0.019  13.129   4.814
    1HEX  C13   3277   0.131  13.154   4.918
    1HEX  C15   3278  17.340  12.940   4.399
    1HEX  O16   3279  17.309  12.922   4.536
    1HEX  C17   3280  17.206  12.846   4.572
    1HEX  O18   3281  17.151  12.762   4.502
    1HEX  C19   3282  17.158  12.879   4.713
    1HEX  C1A   3283  17.090  13.016   4.717
    1HEX  H1C   3284   0.488  12.931   3.549
    1HEX  H1D   3285   0.235  12.839   3.624
    1HEX  H1E   3286   0.234  13.014   3.617
    1HEX  H1F   3287   0.243  13.021   3.871
    1HEX  H1G   3288   0.239  12.846   3.874
    1HEX  H1H   3289  17.255  12.994   3.786
    1HEX  H1I   3290  17.277  13.164   3.797
    1HEX  H1J   3291  17.393  13.225   4.032
    1HEX  H1K   3292  17.285  13.190   4.167
    1HEX  H1M   3293  17.092  13.575   4.032
    1HEX  H1N   3294  17.266  13.557   4.036
    1HEX  H1O   3295  17.260  13.581   4.292
    1HEX  H1P   3296  17.089  13.613   4.280
    1HEX  H1Q   3297  17.380  13.796   4.151
    1HEX  H1R   3298  17.050  13.149   3.938
    1HEX  H1S   3299  17.054  13.069   4.092
    1HEX  H1T   3300  17.092  12.743   3.775
    1HEX  H1U   3301  16.991  12.800   3.645
    1HEX  H1V   3302  16.786  12.772   3.793
    1HEX  H1W   3303  16.890  12.706   3.919
    1HEX  H1X   3304  16.868  12.559   3.594
    1HEX  H1Y   3305  17.297  12.864   4.012
    1HEX  H1Z   3306  17.231  12.925   4.155
    1HEX  H20   3307   0.058  13.152   4.190
    1HEX  H21   3308   0.155  13.022   4.210
    1HEX  H22   3309   0.189  12.910   4.404
    1HEX  H23   3310   0.139  12.987   4.552
    1HEX  H24   3311   0.366  13.317   4.351
    1HEX  H25   3312   0.425  13.354   4.508
    1HEX  H26   3313   0.225  13.512   4.358
    1HEX  H27   3314   0.299  13.554   4.514
    1HEX  H29   3315  17.320  13.215   4.405
    1HEX  H2A   3316   0.045  13.258   4.428
    1HEX  H2B   3317   0.024  13.024   4.784
    1HEX  H2C   3318  17.363  13.144   4.862
    1HEX  H2D   3319   0.137  13.259   4.946
    1HEX  H2E   3320   0.229  13.124   4.881
    1HEX  H2G   3321  17.358  12.844   4.351
    1HEX  H2H   3322  17.250  12.982   4.355
    1HEX  H2I   3323  17.244  12.876   4.781
    1HEX  H2J   3324  17.090  12.800   4.745
    1HEX  H2K   3325  17.011  13.023   4.643
    1HEX  H2M   3326  17.161  13.096   4.695
    1HEX  H2N   3327  16.925  12.954   4.908
    1STR  S00   3328   0.450  12.939   3.677
    1STR  S0E   3329  17.253  13.785   4.189
    1STR  S0M   3330  16.879  12.556   3.727
    1STR  S0X   3331   0.149  13.639   4.465
    1STR  S14   3332   0.100  13.100   5.090
    1STR  S1B   3333  17.021  13.044   4.882
    1HEX  C01   3334   0.271  12.936   8.027
    1HEX  C02   3335   0.229  12.935   8.174
    1HEX  C03   3336   0.078  12.933   8.184
    1HEX  O04   3337   0.014  12.832   8.157
    1HEX  O05   3338   0.028  13.053   8.221
    1HEX  C06   3339  17.328  13.073   8.219
    1HEX  C07   3340  17.264  13.065   8.360
    1HEX  C08   3341  17.308  13.191   8.437
    1HEX  O09   3342  17.248  13.313   8.396
    1HEX  C0A   3343  17.177  13.384   8.484
    1HEX  O0B   3344  17.123  13.339   8.586
    1HEX  C0C   3345  17.175  13.532   8.451
    1HEX  C0D   3346  17.178  13.617   8.579
    1HEX  C0F   3347  17.109  13.067   8.348
    1HEX  O0G   3348  17.070  12.955   8.270
    1HEX  C0H   3349  16.996  12.975   8.159
    1HEX  O0I   3350  16.880  13.017   8.161
    1HEX  C0J   3351  17.078  12.957   8.029
    1HEX  C0K   3352  17.082  12.850   7.919
    1HEX  C0N   3353  17.301  12.930   8.431
    1HEX  O0O   3354  17.434  12.900   8.475
    1HEX  C0P   3355   0.068  12.982   8.566
    1HEX  C0Q   3356   0.036  12.978   8.719
    1HEX  C0R   3357   0.068  12.837   8.773
    1HEX  O0S   3358   0.208  12.809   8.765
    1HEX  C0T   3359   0.284  12.806   8.876
    1HEX  O0U   3360   0.245  12.821   8.992
    1HEX  C0V   3361   0.431  12.783   8.846
    1HEX  C0W   3362   0.513  12.913   8.857
    1HEX  C0Y   3363   0.128  13.084   8.784
    1HEX  O0Z   3364   0.104  13.086   8.923
    1HEX  C10   3365   0.191  13.141   9.005
    1HEX  O11   3366   0.295  13.199   8.972
    1HEX  C12   3367   0.147  13.126   9.149
    1HEX  C13   3368   0.256  13.169   9.249
    1HEX  C15   3369  17.329  13.020   8.753
    1HEX  O16   3370  17.291  12.996   8.888
    1HEX  C17   3371  17.216  12.889   8.920
    1HEX  O18   3372  17.185  12.797   8.844
    1HEX  C19   3373  17.166  12.896   9.063
    1HEX  C1A   3374  17.084  13.024   9.083
    1HEX  H1C   3375   0.473  12.932   7.898
    1HEX  H1D   3376   0.231  12.847   7.977
    1HEX  H1E   3377   0.224  13.021   7.976
    1HEX  H1F   3378   0.268  13.022   8.227
    1HEX  H1G   3379   0.267  12.846   8.225
    1HEX  H1H   3380  17.284  13.000   8.152
    1HEX  H1I   3381  17.307  13.169   8.172
    1HEX  H1J   3382  17.414  13.210   8.419
    1HEX  H1K   3383  17.296  13.176   8.543
    1HEX  H1M   3384  17.089  13.556   8.389
    1HEX  H1N   3385  17.264  13.553   8.392
    1HEX  H1O   3386  17.255  13.582   8.648
    1HEX  H1P   3387  17.083  13.608   8.633
    1HEX  H1Q   3388  17.386  13.806   8.519
    1HEX  H1R   3389  17.073  13.160   8.304
    1HEX  H1S   3390  17.061  13.060   8.446
    1HEX  H1T   3391  17.083  12.862   8.083
    1HEX  H1U   3392  16.995  13.002   7.974
    1HEX  H1V   3393  16.998  12.779   7.921
    1HEX  H1W   3394  17.177  12.795   7.917
    1HEX  H1Y   3395  17.283  12.851   8.357
    1HEX  H1Z   3396  17.228  12.902   8.506
    1HEX  H20   3397   0.082  13.082   8.530
    1HEX  H21   3398   0.169  12.942   8.556
    1HEX  H22   3399   0.013  12.761   8.717
    1HEX  H23   3400   0.034  12.826   8.876
    1HEX  H24   3401   0.440  12.741   8.746
    1HEX  H25   3402   0.469  12.709   8.915
    1HEX  H26   3403   0.470  12.992   8.796
    1HEX  H27   3404   0.615  12.897   8.824
    1HEX  H28   3405   0.438  13.069   9.008
    1HEX  H29   3406   0.110  13.184   8.745
    1HEX  H2A   3407   0.233  13.061   8.764
    1HEX  H2B   3408   0.121  13.021   9.165
    1HEX  H2C   3409   0.056  13.184   9.161
    1HEX  H2D   3410   0.287  13.272   9.227
    1HEX  H2E   3411   0.344  13.107   9.236
    1HEX  H2F   3412   0.064  13.264   9.423
    1HEX  H2G   3413  17.255  12.974   8.689
    1HEX  H2H   3414  17.317  13.127   8.742
    1HEX  H2I   3415  17.252  12.894   9.130
    1HEX  H2J   3416  17.107  12.807   9.084
    1HEX  H2K   3417  17.005  13.030   9.008
    1HEX  H2M   3418  17.146  13.112   9.070
    1HEX  H2N   3419  16.932  12.952   9.267
    1STR  S00   3420   0.452  12.937   8.030
    1STR  S0E   3421  17.262  13.777   8.562
    1STR  S0M   3422  17.231  12.933   7.853
    1STR  S0X   3423   0.562  13.019   8.996
    1STR  S14   3424   0.169  13.183   9.408
    1STR  S1B   3425  17.019  13.052   9.250
    1HEX  C01   3426   0.338  12.934  12.351
    1HEX  C02   3427   0.257  12.932  12.480
    1HEX  C03   3428   0.109  12.930  12.447
    1HEX  O04   3429   0.059  12.835  12.387
    1HEX  O05   3430   0.045  13.035  12.500
    1HEX  C06   3431  17.344  13.031  12.511
    1HEX  C07   3432  17.297  13.005  12.658
    1HEX  C08   3433  17.301  13.138  12.739
    1HEX  O09   3434  17.180  13.171  12.810
    1HEX  C0A   3435  17.105  13.095  12.899
    1HEX  O0B   3436  16.991  13.130  12.930
    1HEX  C0C   3437  17.169  12.975  12.971
    1HEX  C0D   3438  17.151  12.817  12.936
    1HEX  C0F   3439  17.146  12.971  12.635
    1HEX  O0G   3440  17.121  12.864  12.547
    1HEX  C0H   3441  17.020  12.873  12.460
    1HEX  O0I   3442  16.959  12.975  12.428
    1HEX  C0J   3443  16.981  12.738  12.406
    1HEX  C0K   3444  16.867  12.681  12.491
    1HEX  C0N   3445  17.386  12.890  12.726
    1HEX  O0O   3446  17.419  12.886  12.868
    1HEX  C0P   3447   0.091  12.951  12.933
    1HEX  C0Q   3448   0.097  12.932  13.091
    1HEX  C0R   3449   0.168  12.800  13.127
    1HEX  O0S   3450   0.310  12.808  13.120
    1HEX  C0T   3451   0.381  12.822  13.234
    1HEX  O0U   3452   0.335  12.840  13.347
    1HEX  C0V   3453   0.531  12.808  13.213
    1HEX  C0W   3454   0.600  12.944  13.189
    1HEX  C0Y   3455   0.166  13.057  13.152
    1HEX  O0Z   3456   0.143  13.061  13.291
    1HEX  C10   3457   0.211  13.141  13.371
    1HEX  O11   3458   0.304  13.214  13.338
    1HEX  C12   3459   0.158  13.132  13.513
    1HEX  C13   3460   0.263  13.173  13.617
    1HEX  C15   3461  17.396  12.921  13.157
    1HEX  O16   3462  17.379  12.896  13.297
    1HEX  C17   3463  17.255  12.863  13.339
    1HEX  O18   3464  17.168  12.810  13.269
    1HEX  C19   3465  17.220  12.910  13.479
    1HEX  C1A   3466  17.126  13.031  13.469
    1HEX  H1C   3467   0.510  12.932  12.270
    1HEX  H1D   3468   0.315  12.845  12.292
    1HEX  H1E   3469   0.307  13.020  12.290
    1HEX  H1F   3470   0.278  13.019  12.543
    1HEX  H1G   3471   0.278  12.843  12.539
    1HEX  H1H   3472  17.305  12.956  12.442
    1HEX  H1I   3473  17.302  13.123  12.470
    1HEX  H1J   3474  17.315  13.221  12.669
    1HEX  H1K   3475  17.389  13.148  12.801
    1HEX  H1M   3476  17.142  12.991  13.075
    1HEX  H1N   3477  17.270  13.010  12.963
    1HEX  H1O   3478  17.243  12.760  12.933
    1HEX  H1P   3479  17.091  12.771  13.015
    1HEX  H1R   3480  17.095  13.063  12.602
    1HEX  H1S   3481  17.092  12.940  12.722
    1HEX  H1T   3482  17.070  12.675  12.410
    1HEX  H1U   3483  16.952  12.749  12.302
    1HEX  H1V   3484  16.780  12.748  12.487
    1HEX  H1W   3485  16.896  12.676  12.596
    1HEX  H1X   3486  16.842  12.545  12.318
    1HEX  H1Y   3487   0.036  12.866  12.673
    1HEX  H1Z   3488  17.326  12.800  12.709
    1HEX  H20   3489   0.091  13.057  12.910
    1HEX  H21   3490   0.184  12.914  12.889
    1HEX  H22   3491   0.134  12.721  13.059
    1HEX  H23   3492   0.138  12.765  13.226
    1HEX  H24   3493   0.548  12.740  13.130
    1HEX  H25   3494   0.573  12.761  13.302
    1HEX  H26   3495   0.530  13.027  13.199
    1HEX  H27   3496   0.644  12.948  13.089
    1HEX  H29   3497   0.126  13.150  13.111
    1HEX  H2A   3498   0.273  13.059  13.130
    1HEX  H2B   3499   0.127  13.029  13.531
    1HEX  H2C   3500   0.069  13.194  13.518
    1HEX  H2D   3501   0.297  13.275  13.598
    1HEX  H2E   3502   0.350  13.109  13.608
    1HEX  H2F   3503   0.064  13.264  13.784
    1HEX  H2G   3504  17.343  12.842  13.106
    1HEX  H2H   3505  17.347  13.018  13.148
    1HEX  H2I   3506  17.310  12.933  13.537
    1HEX  H2J   3507  17.169  12.829  13.530
    1HEX  H2K   3508  17.041  13.009  13.405
    1HEX  H2M   3509  17.178  13.116  13.425
    1HEX  H2N   3510  16.924  12.971  13.622
    1STR  S00   3511   0.511  12.936  12.404
    1STR  S0E   3512  17.230  12.640  12.931
    1STR  S0M   3513  16.866  12.506  12.443
    1STR  S0X   3514   0.754  13.001  13.112
    1STR  S14   3515   0.168  13.182  13.772
    1STR  S1B   3516  17.006  13.074  13.597
    1HEX  C01   3517   4.636  17.290  16.750
    1HEX  C02   3518   4.569  17.295  16.887
    1HEX  C03   3519   4.418  17.299  16.870
    1HEX  O04   3520   4.356  17.200  16.831
    1HEX  O05   3521   4.365  17.419  16.902
    1HEX  C06   3522   4.224  17.434  16.912
    1HEX  C07   3523   4.179  17.425  17.060
    1HEX  C08   3524   4.225   0.113  17.132
    1HEX  O09   3525   4.157   0.233  17.097
    1HEX  C0A   3526   4.094   0.301  17.194
    1HEX  O0B   3527   4.046   0.253  17.297
    1HEX  C0C   3528   4.094   0.451  17.168
    1HEX  C0D   3529   4.098   0.531  17.299
    1HEX  C0F   3530   4.025  17.416  17.070
    1HEX  O0G   3531   3.980  17.294  17.012
    1HEX  C0H   3532   3.927  17.292  16.889
    1HEX  O0I   3533   3.894  17.390  16.823
    1HEX  C0J   3534   3.918  17.152  16.831
    1HEX  C0K   3535   3.799  17.075  16.890
    1HEX  C0N   3536   4.239  17.298  17.129
    1HEX  O0O   3537   4.378  17.299  17.171
    1HEX  C0P   3538   4.431  17.373  17.284
    1HEX  C0Q   3539   4.396  17.323  17.427
    1HEX  C0R   3540   4.447  17.176  17.433
    1HEX  O0S   3541   4.584  17.152  17.391
    1HEX  C0T   3542   4.689  17.165   0.037
    1HEX  O0U   3543   4.683  17.210   0.149
    1HEX  C0V   3544   4.826  17.117  17.432
    1HEX  C0W   3545   4.934  17.211   0.050
    1HEX  C0Y   3546   4.463  17.408   0.100
    1HEX  O0Z   3547   4.424  17.341   0.220
    1HEX  C10   3548   4.505  17.307   0.319
    1HEX  O11   3549   4.596  17.376   0.363
    1HEX  C12   3550   4.468  17.169   0.379
    1HEX  C13   3551   4.502  17.033   0.302
    1HEX  C15   3552   4.241  17.340   0.011
    1HEX  O16   3553   4.189  17.331   0.142
    1HEX  C17   3554   4.121  17.223   0.184
    1HEX  O18   3555   4.103  17.120   0.120
    1HEX  C19   3556   4.063  17.242   0.323
    1HEX  C1A   3557   3.999  17.381   0.340
    1HEX  H1C   3558   4.848  17.289  16.629
    1HEX  H1D   3559   4.603  17.201  16.697
    1HEX  H1E   3560   4.606  17.376  16.691
    1HEX  H1F   3561   4.601  17.382  16.944
    1HEX  H1G   3562   4.594  17.207  16.947
    1HEX  H1H   3563   4.174  17.359  16.850
    1HEX  H1I   3564   4.195   0.090  16.870
    1HEX  H1J   3565   4.330   0.131  17.108
    1HEX  H1K   3566   4.219   0.098  17.239
    1HEX  H1M   3567   4.009   0.479  17.106
    1HEX  H1N   3568   4.184   0.472  17.110
    1HEX  H1O   3569   4.175   0.492  17.366
    1HEX  H1P   3570   4.003   0.521  17.352
    1HEX  H1Q   3571   4.302   0.726  17.239
    1HEX  H1R   3572   3.977   0.063  17.024
    1HEX  H1S   3573   3.992  17.418  17.174
    1HEX  H1T   3574   4.012  17.100  16.852
    1HEX  H1U   3575   3.909  17.160  16.723
    1HEX  H1V   3576   3.706  17.131  16.873
    1HEX  H1W   3577   3.810  17.064  16.998
    1HEX  H1X   3578   3.787  16.919  16.673
    1HEX  H1Y   3579   4.234  17.218  17.055
    1HEX  H1Z   3580   4.170  17.256  17.200
    1HEX  H20   3581   4.421   0.041  17.277
    1HEX  H21   3582   4.539  17.361  17.272
    1HEX  H22   3583   4.384  17.115  17.368
    1HEX  H23   3584   4.428  17.135   0.091
    1HEX  H24   3585   4.831  17.110  17.323
    1HEX  H25   3586   4.839  17.017   0.033
    1HEX  H26   3587   4.915  17.316   0.029
    1HEX  H27   3588   5.035  17.185   0.019
    1HEX  H28   3589   4.878  17.344   0.249
    1HEX  H29   3590   4.426   0.071   0.100
    1HEX  H2A   3591   4.571  17.416   0.089
    1HEX  H2B   3592   4.360  17.174   0.392
    1HEX  H2C   3593   4.511  17.168   0.479
    1HEX  H2D   3594   4.469  16.950   0.364
    1HEX  H2E   3595   4.610  17.022   0.290
    1HEX  H2G   3596   4.184  17.270  17.392
    1HEX  H2H   3597   4.211  -0.000  17.421
    1HEX  H2I   3598   4.142  17.229   0.396
    1HEX  H2J   3599   3.990  17.163   0.341
    1HEX  H2K   3600   3.926  17.399   0.262
    1HEX  H2M   3601   4.075   0.019   0.332
    1HEX  H2N   3602   3.847  17.315   0.544
    1STR  S00   3603   4.817  17.292  16.760
    1STR  S0E   3604   4.181   0.692  17.282
    1STR  S0M   3605   3.800  16.915  16.806
    1STR  S0X   3606   4.994  17.297   0.200
    1STR  S14   3607   4.534  16.877   0.201
    1STR  S1B   3608   3.944  17.401   0.511
    1HEX  C01   3609   4.633  17.286   3.672
    1HEX  C02   3610   4.572  17.289   3.813
    1HEX  C03   3611   4.420  17.289   3.804
    1HEX  O04   3612   4.359  17.190   3.766
    1HEX  O05   3613   4.367  17.408   3.838
    1HEX  C06   3614   4.225  17.422   3.844
    1HEX  C07   3615   4.176  17.417   3.990
    1HEX  C08   3616   4.226   0.105   4.061
    1HEX  O09   3617   4.161   0.226   4.024
    1HEX  C0A   3618   4.098   0.296   4.119
    1HEX  O0B   3619   4.050   0.251   4.223
    1HEX  C0C   3620   4.096   0.446   4.088
    1HEX  C0D   3621   4.099   0.529   4.217
    1HEX  C0F   3622   4.021  17.416   3.993
    1HEX  O0G   3623   3.972  17.296   3.935
    1HEX  C0H   3624   3.926  17.295   3.810
    1HEX  O0I   3625   3.898  17.393   3.742
    1HEX  C0J   3626   3.917  17.154   3.752
    1HEX  C0K   3627   3.798  17.077   3.811
    1HEX  C0N   3628   4.222  17.285   4.062
    1HEX  O0O   3629   4.358  17.265   4.104
    1HEX  C0P   3630   4.427  17.347   4.200
    1HEX  C0Q   3631   4.392  17.340   4.352
    1HEX  C0R   3632   4.426  17.198   4.405
    1HEX  O0S   3633   4.566  17.172   4.398
    1HEX  C0T   3634   4.640  17.167   4.511
    1HEX  O0U   3635   4.599  17.180   4.626
    1HEX  C0V   3636   4.788  17.144   4.482
    1HEX  C0W   3637   4.870  17.272   4.497
    1HEX  C0Y   3638   4.484   0.005   4.420
    1HEX  O0Z   3639   4.460   0.005   4.559
    1HEX  C10   3640   4.548   0.060   4.641
    1HEX  O11   3641   4.652   0.117   4.608
    1HEX  C12   3642   4.505   0.043   4.786
    1HEX  C13   3643   4.614   0.088   4.885
    1HEX  C15   3644   4.245  17.380   4.385
    1HEX  O16   3645   4.207  17.358   4.520
    1HEX  C17   3646   4.135  17.251   4.555
    1HEX  O18   3647   4.105  17.157   4.481
    1HEX  C19   3648   4.089  17.258   4.699
    1HEX  C1A   3649   4.006  17.385   4.721
    1HEX  H1C   3650   4.848  17.290   3.550
    1HEX  H1D   3651   4.599  17.197   3.619
    1HEX  H1E   3652   4.599  17.373   3.615
    1HEX  H1F   3653   4.604  17.377   3.868
    1HEX  H1G   3654   4.602  17.201   3.870
    1HEX  H1H   3655   4.177  17.347   3.781
    1HEX  H1I   3656   4.198   0.078   3.799
    1HEX  H1J   3657   4.330   0.122   4.034
    1HEX  H1K   3658   4.223   0.091   4.168
    1HEX  H1M   3659   4.010   0.471   4.026
    1HEX  H1N   3660   4.185   0.467   4.030
    1HEX  H1O   3661   4.176   0.493   4.285
    1HEX  H1P   3662   4.004   0.520   4.270
    1HEX  H1Q   3663   4.303   0.727   4.160
    1HEX  H1R   3664   3.979   0.065   3.944
    1HEX  H1S   3665   3.984  17.422   4.096
    1HEX  H1T   3666   4.011  17.103   3.773
    1HEX  H1U   3667   3.909  17.162   3.644
    1HEX  H1V   3668   3.705  17.132   3.794
    1HEX  H1W   3669   3.809  17.066   3.918
    1HEX  H1X   3670   3.788  16.918   3.594
    1HEX  H1Y   3671   4.206  17.204   3.991
    1HEX  H1Z   3672   4.153  17.254   4.140
    1HEX  H20   3673   4.437   0.009   4.166
    1HEX  H21   3674   4.530  17.311   4.191
    1HEX  H22   3675   4.372  17.123   4.347
    1HEX  H23   3676   4.390  17.187   4.507
    1HEX  H24   3677   4.798  17.102   4.383
    1HEX  H25   3678   4.825  17.069   4.553
    1HEX  H26   3679   4.829  17.352   4.435
    1HEX  H27   3680   4.973  17.257   4.465
    1HEX  H28   3681   4.796  17.429   4.647
    1HEX  H29   3682   4.465   0.106   4.382
    1HEX  H2A   3683   4.589  17.424   4.400
    1HEX  H2B   3684   4.481  17.378   4.802
    1HEX  H2C   3685   4.413   0.101   4.799
    1HEX  H2D   3686   4.645   0.190   4.863
    1HEX  H2E   3687   4.703   0.026   4.873
    1HEX  H2F   3688   4.423   0.183   5.063
    1HEX  H2G   3689   4.172  17.332   4.322
    1HEX  H2H   3690   4.231   0.047   4.371
    1HEX  H2I   3691   4.176  17.256   4.764
    1HEX  H2J   3692   4.030  17.169   4.721
    1HEX  H2K   3693   3.925  17.391   4.648
    1HEX  H2M   3694   4.068   0.034   4.707
    1HEX  H2N   3695   3.852  17.311   4.907
    1STR  S00   3696   4.814  17.296   3.679
    1STR  S0E   3697   4.182   0.689   4.201
    1STR  S0M   3698   3.799  16.916   3.727
    1STR  S0X   3699   4.919  17.378   4.636
    1STR  S14   3700   4.529   0.103   5.045
    1STR  S1B   3701   3.939  17.411   4.887
    1HEX  C01   3702   4.633  17.286   8.032
    1HEX  C02   3703   4.572  17.289   8.173
    1HEX  C03   3704   4.420  17.289   8.164
    1HEX  O04   3705   4.359  17.190   8.126
    1HEX  O05   3706   4.367  17.408   8.198
    1HEX  C06   3707   4.225  17.422   8.204
    1HEX  C07   3708   4.176  17.417   8.350
    1HEX  C08   3709   4.226   0.105   8.421
    1HEX  O09   3710   4.161   0.226   8.384
    1HEX  C0A   3711   4.098   0.296   8.479
    1HEX  O0B   3712   4.050   0.251   8.582
    1HEX  C0C   3713   4.096   0.446   8.448
    1HEX  C0D   3714   4.098   0.529   8.577
    1HEX  C0F   3715   4.021  17.416   8.353
    1HEX  O0G   3716   3.972  17.296   8.295
    1HEX  C0H   3717   3.926  17.295   8.170
    1HEX  O0I   3718   3.898  17.393   8.102
    1HEX  C0J   3719   3.917  17.154   8.112
    1HEX  C0K   3720   3.798  17.077   8.171
    1HEX  C0N   3721   4.222  17.285   8.422
    1HEX  O0O   3722   4.358  17.265   8.464
    1HEX  C0P   3723   4.427  17.347   8.560
    1HEX  C0Q   3724   4.392  17.340   8.712
    1HEX  C0R   3725   4.426  17.198   8.765
    1HEX  O0S   3726   4.566  17.172   8.758
    1HEX  C0T   3727   4.640  17.167   8.871
    1HEX  O0U   3728   4.599  17.180   8.986
    1HEX  C0V   3729   4.788  17.144   8.842
    1HEX  C0W   3730   4.870  17.272   8.857
    1HEX  C0Y   3731   4.484   0.005   8.780
    1HEX  O0Z   3732   4.460   0.005   8.919
    1HEX  C10   3733   4.548   0.060   9.001
    1HEX  O11   3734   4.652   0.117   8.968
    1HEX  C12   3735   4.505   0.043   9.146
    1HEX  C13   3736   4.614   0.088   9.245
    1HEX  C15   3737   4.245  17.380   8.745
    1HEX  O16   3738   4.207  17.359   8.880
    1HEX  C17   3739   4.135  17.251   8.915
    1HEX  O18   3740   4.105  17.157   8.841
    1HEX  C19   3741   4.089  17.258   9.059
    1HEX  C1A   3742   4.006  17.385   9.081
    1HEX  H1C   3743   4.848  17.290   7.910
    1HEX  H1D   3744   4.599  17.198   7.979
    1HEX  H1E   3745   4.599  17.373   7.975
    1HEX  H1F   3746   4.604  17.377   8.228
    1HEX  H1G   3747   4.602  17.201   8.230
    1HEX  H1H   3748   4.177  17.347   8.141
    1HEX  H1I   3749   4.198   0.078   8.159
    1HEX  H1J   3750   4.330   0.122   8.394
    1HEX  H1K   3751   4.223   0.091   8.528
    1HEX  H1M   3752   4.010   0.471   8.386
    1HEX  H1N   3753   4.185   0.467   8.390
    1HEX  H1O   3754   4.176   0.493   8.645
    1HEX  H1P   3755   4.004   0.520   8.630
    1HEX  H1Q   3756   4.303   0.727   8.519
    1HEX  H1R   3757   3.979   0.065   8.304
    1HEX  H1S   3758   3.984  17.422   8.456
    1HEX  H1T   3759   4.011  17.103   8.133
    1HEX  H1U   3760   3.909  17.162   8.004
    1HEX  H1V   3761   3.706  17.132   8.154
    1HEX  H1W   3762   3.810  17.066   8.278
    1HEX  H1X   3763   3.788  16.918   7.954
    1HEX  H1Y   3764   4.206  17.204   8.351
    1HEX  H1Z   3765   4.153  17.254   8.500
    1HEX  H20   3766   4.437   0.009   8.526
    1HEX  H21   3767   4.530  17.311   8.551
    1HEX  H22   3768   4.372  17.123   8.707
    1HEX  H23   3769   4.390  17.187   8.867
    1HEX  H24   3770   4.798  17.102   8.742
    1HEX  H25   3771   4.825  17.069   8.913
    1HEX  H26   3772   4.828  17.352   8.795
    1HEX  H27   3773   4.973  17.257   8.825
    1HEX  H28   3774   4.796  17.429   9.007
    1HEX  H29   3775   4.465   0.106   8.742
    1HEX  H2A   3776   4.589  17.424   8.760
    1HEX  H2B   3777   4.481  17.378   9.162
    1HEX  H2C   3778   4.413   0.101   9.159
    1HEX  H2D   3779   4.645   0.190   9.223
    1HEX  H2E   3780   4.703   0.026   9.233
    1HEX  H2F   3781   4.423   0.183   9.423
    1HEX  H2G   3782   4.172  17.332   8.682
    1HEX  H2H   3783   4.231   0.047   8.731
    1HEX  H2I   3784   4.176  17.256   9.124
    1HEX  H2J   3785   4.030  17.169   9.081
    1HEX  H2K   3786   3.925  17.391   9.008
    1HEX  H2M   3787   4.068   0.034   9.067
    1HEX  H2N   3788   3.852  17.311   9.267
    1STR  S00   3789   4.814  17.296   8.039
    1STR  S0E   3790   4.182   0.689   8.561
    1STR  S0M   3791   3.799  16.916   8.087
    1STR  S0X   3792   4.919  17.378   8.996
    1STR  S14   3793   4.529   0.103   9.405
    1STR  S1B   3794   3.938  17.411   9.247
    1HEX  C01   3795   4.633  17.286  12.392
    1HEX  C02   3796   4.572  17.289  12.533
    1HEX  C03   3797   4.420  17.289  12.524
    1HEX  O04   3798   4.359  17.190  12.486
    1HEX  O05   3799   4.367  17.408  12.558
    1HEX  C06   3800   4.225  17.422  12.564
    1HEX  C07   3801   4.176  17.417  12.710
    1HEX  C08   3802   4.226   0.105  12.781
    1HEX  O09   3803   4.161   0.226  12.744
    1HEX  C0A   3804   4.098   0.296  12.839
    1HEX  O0B   3805   4.050   0.251  12.943
    1HEX  C0C   3806   4.096   0.446  12.808
    1HEX  C0D   3807   4.098   0.529  12.937
    1HEX  C0F   3808   4.021  17.416  12.713
    1HEX  O0G   3809   3.972  17.296  12.655
    1HEX  C0H   3810   3.926  17.295  12.530
    1HEX  O0I   3811   3.898  17.393  12.462
    1HEX  C0J   3812   3.917  17.154  12.472
    1HEX  C0K   3813   3.798  17.077  12.531
    1HEX  C0N   3814   4.222  17.285  12.782
    1HEX  O0O   3815   4.358  17.265  12.824
    1HEX  C0P   3816   4.427  17.347  12.920
    1HEX  C0Q   3817   4.392  17.340  13.072
    1HEX  C0R   3818   4.426  17.198  13.125
    1HEX  O0S   3819   4.566  17.172  13.118
    1HEX  C0T   3820   4.640  17.167  13.231
    1HEX  O0U   3821   4.599  17.180  13.346
    1HEX  C0V   3822   4.788  17.144  13.202
    1HEX  C0W   3823   4.870  17.272  13.217
    1HEX  C0Y   3824   4.484   0.005  13.140
    1HEX  O0Z   3825   4.460   0.005  13.279
    1HEX  C10   3826   4.548   0.060  13.361
    1HEX  O11   3827   4.652   0.117  13.328
    1HEX  C12   3828   4.505   0.043  13.506
    1HEX  C13   3829   4.614   0.088  13.605
    1HEX  C15   3830   4.245  17.380  13.105
    1HEX  O16   3831   4.207  17.359  13.240
    1HEX  C17   3832   4.135  17.251  13.275
    1HEX  O18   3833   4.105  17.157  13.201
    1HEX  C19   3834   4.089  17.258  13.419
    1HEX  C1A   3835   4.006  17.385  13.441
    1HEX  H1C   3836   4.848  17.290  12.270
    1HEX  H1D   3837   4.599  17.198  12.339
    1HEX  H1E   3838   4.599  17.373  12.335
    1HEX  H1F   3839   4.604  17.377  12.588
    1HEX  H1G   3840   4.602  17.201  12.590
    1HEX  H1H   3841   4.177  17.347  12.501
    1HEX  H1I   3842   4.198   0.078  12.519
    1HEX  H1J   3843   4.330   0.122  12.754
    1HEX  H1K   3844   4.223   0.091  12.888
    1HEX  H1M   3845   4.010   0.471  12.746
    1HEX  H1N   3846   4.185   0.467  12.750
    1HEX  H1O   3847   4.176   0.493  13.005
    1HEX  H1P   3848   4.004   0.520  12.990
    1HEX  H1Q   3849   4.303   0.728  12.880
    1HEX  H1R   3850   3.979   0.065  12.664
    1HEX  H1S   3851   3.984  17.422  12.816
    1HEX  H1T   3852   4.011  17.103  12.493
    1HEX  H1U   3853   3.909  17.162  12.364
    1HEX  H1V   3854   3.706  17.132  12.514
    1HEX  H1W   3855   3.809  17.066  12.638
    1HEX  H1X   3856   3.788  16.918  12.314
    1HEX  H1Y   3857   4.206  17.204  12.711
    1HEX  H1Z   3858   4.153  17.254  12.860
    1HEX  H20   3859   4.437   0.009  12.886
    1HEX  H21   3860   4.530  17.311  12.911
    1HEX  H22   3861   4.372  17.123  13.067
    1HEX  H23   3862   4.390  17.187  13.227
    1HEX  H24   3863   4.798  17.102  13.102
    1HEX  H25   3864   4.825  17.069  13.273
    1HEX  H26   3865   4.828  17.352  13.155
    1HEX  H27   3866   4.973  17.257  13.185
    1HEX  H28   3867   4.796  17.429  13.367
    1HEX  H29   3868   4.465   0.106  13.102
    1HEX  H2A   3869   4.589  17.424  13.120
    1HEX  H2B   3870   4.480  17.378  13.522
    1HEX  H2C   3871   4.413   0.101  13.519
    1HEX  H2D   3872   4.645   0.190  13.583
    1HEX  H2E   3873   4.703   0.026  13.593
    1HEX  H2F   3874   4.423   0.183  13.783
    1HEX  H2G   3875   4.172  17.332  13.042
    1HEX  H2H   3876   4.231   0.047  13.091
    1HEX  H2I   3877   4.176  17.256  13.484
    1HEX  H2J   3878   4.030  17.169  13.441
    1HEX  H2K   3879   3.925  17.391  13.368
    1HEX  H2M   3880   4.068   0.034  13.427
    1HEX  H2N   3881   3.852  17.311  13.627
    1STR  S00   3882   4.814  17.296  12.399
    1STR  S0E   3883   4.182   0.689  12.921
    1STR  S0M   3884   3.799  16.916  12.447
    1STR  S0X   3885   4.919  17.378  13.356
    1STR  S14   3886   4.529   0.103  13.765
    1STR  S1B   3887   3.939  17.411  13.607
    1HEX  C01   3888   4.630   4.215  16.754
    1HEX  C02   3889   4.572   4.211  16.896
    1HEX  C03   3890   4.421   4.198  16.891
    1HEX  O04   3891   4.368   4.098  16.841
    1HEX  O05   3892   4.358   4.304  16.942
    1HEX  C06   3893   4.215   4.307  16.947
    1HEX  C07   3894   4.163   4.301  17.093
    1HEX  C08   3895   4.191   4.437  17.161
    1HEX  O09   3896   4.130   4.543  17.090
    1HEX  C0A   3897   4.113   4.661  17.151
    1HEX  O0B   3898   4.109   4.679  17.272
    1HEX  C0C   3899   4.105   4.777  17.053
    1HEX  C0D   3900   4.158   4.738  16.913
    1HEX  C0F   3901   4.009   4.287  17.092
    1HEX  O0G   3902   3.970   4.170  17.021
    1HEX  C0H   3903   3.904   4.181  16.905
    1HEX  O0I   3904   3.858   4.284  16.856
    1HEX  C0J   3905   3.892   4.048  16.834
    1HEX  C0K   3906   3.780   3.965  16.896
    1HEX  C0N   3907   4.221   4.174  17.165
    1HEX  O0O   3908   4.361   4.165  17.197
    1HEX  C0P   3909   4.429   4.255  17.285
    1HEX  C0Q   3910   4.397   4.256  17.437
    1HEX  C0R   3911   4.428   4.115   0.054
    1HEX  O0S   3912   4.568   4.086   0.046
    1HEX  C0T   3913   4.645   4.085   0.157
    1HEX  O0U   3914   4.606   4.100   0.272
    1HEX  C0V   3915   4.792   4.063   0.126
    1HEX  C0W   3916   4.873   4.192   0.138
    1HEX  C0Y   3917   4.491   4.361   0.061
    1HEX  O0Z   3918   4.466   4.364   0.200
    1HEX  C10   3919   4.552   4.421   0.283
    1HEX  O11   3920   4.656   4.477   0.250
    1HEX  C12   3921   4.507   4.406   0.427
    1HEX  C13   3922   4.615   4.450   0.527
    1HEX  C15   3923   4.252   4.302   0.030
    1HEX  O16   3924   4.211   4.279   0.164
    1HEX  C17   3925   4.136   4.172   0.196
    1HEX  O18   3926   4.104   4.081   0.119
    1HEX  C19   3927   4.088   4.177   0.340
    1HEX  C1A   3928   4.006   4.304   0.363
    1HEX  H1C   3929   4.844   4.209  16.628
    1HEX  H1D   3930   4.601   4.125  16.699
    1HEX  H1E   3931   4.588   4.300  16.699
    1HEX  H1F   3932   4.599   4.301  16.952
    1HEX  H1G   3933   4.611   4.126  16.951
    1HEX  H1H   3934   4.174   4.224  16.890
    1HEX  H1I   3935   4.181   4.397  16.897
    1HEX  H1J   3936   4.295   4.463  17.158
    1HEX  H1K   3937   4.155   4.436  17.263
    1HEX  H1M   3938   4.001   4.810  17.047
    1HEX  H1N   3939   4.163   4.859  17.095
    1HEX  H1O   3940   4.258   4.696  16.918
    1HEX  H1P   3941   4.161   4.823  16.844
    1HEX  H1R   3942   3.961   4.376  17.052
    1HEX  H1S   3943   3.970   4.279  17.194
    1HEX  H1T   3944   3.988   3.998  16.840
    1HEX  H1U   3945   3.872   4.069  16.729
    1HEX  H1V   3946   3.685   4.020  16.892
    1HEX  H1W   3947   3.800   3.947  17.002
    1HEX  H1X   3948   3.772   3.827  16.667
    1HEX  H1Y   3949   4.207   4.092  17.095
    1HEX  H1Z   3950   4.159   4.140  17.248
    1HEX  H20   3951   4.437   4.355  17.244
    1HEX  H21   3952   4.533   4.222  17.276
    1HEX  H22   3953   4.373   4.039  17.440
    1HEX  H23   3954   4.394   4.107   0.158
    1HEX  H24   3955   4.801   4.021   0.025
    1HEX  H25   3956   4.831   3.989   0.195
    1HEX  H26   3957   4.830   4.272   0.077
    1HEX  H27   3958   4.976   4.177   0.105
    1HEX  H28   3959   4.799   4.349   0.287
    1HEX  H29   3960   4.474   4.461   0.021
    1HEX  H2A   3961   4.596   4.338   0.042
    1HEX  H2B   3962   4.481   4.301   0.443
    1HEX  H2C   3963   4.416   4.464   0.438
    1HEX  H2D   3964   4.647   4.552   0.505
    1HEX  H2E   3965   4.704   4.387   0.515
    1HEX  H2F   3966   4.424   4.544   0.702
    1HEX  H2G   3967   4.177   4.260  17.406
    1HEX  H2H   3968   4.244   4.410   0.017
    1HEX  H2I   3969   4.175   4.174   0.406
    1HEX  H2J   3970   4.029   4.088   0.360
    1HEX  H2K   3971   3.925   4.311   0.289
    1HEX  H2M   3972   4.068   4.393   0.350
    1HEX  H2N   3973   3.850   4.231   0.548
    1STR  S00   3974   4.811   4.212  16.758
    1STR  S0E   3975   4.176   4.651  16.755
    1STR  S0M   3976   3.788   3.813  16.799
    1STR  S0X   3977   4.923   4.298   0.277
    1STR  S14   3978   4.529   4.463   0.686
    1STR  S1B   3979   3.937   4.331   0.528
    1HEX  C01   3980   4.535   4.782   4.015
    1HEX  C02   3981   4.570   4.635   3.964
    1HEX  C03   3982   4.475   4.517   3.928
    1HEX  O04   3983   4.527   4.406   3.913
    1HEX  O05   3984   4.344   4.538   3.912
    1HEX  C06   3985   4.254   4.426   3.887
    1HEX  C07   3986   4.180   4.373   4.016
    1HEX  C08   3987   4.188   4.481   4.125
    1HEX  O09   3988   4.142   4.605   4.074
    1HEX  C0A   3989   4.079   4.689   4.154
    1HEX  O0B   3990   4.022   4.661   4.259
    1HEX  C0C   3991   4.093   4.833   4.105
    1HEX  C0D   3992   4.109   4.927   4.225
    1HEX  C0F   3993   4.026   4.359   3.992
    1HEX  O0G   3994   3.982   4.234   3.938
    1HEX  C0H   3995   3.915   4.232   3.823
    1HEX  O0I   3996   3.924   4.316   3.733
    1HEX  C0J   3997   3.817   4.116   3.814
    1HEX  C0K   3998   3.702   4.136   3.916
    1HEX  C0N   3999   4.228   4.230   4.062
    1HEX  O0O   4000   4.362   4.198   4.104
    1HEX  C0P   4001   4.440   4.275   4.197
    1HEX  C0Q   4002   4.415   4.266   4.351
    1HEX  C0R   4003   4.466   4.130   4.406
    1HEX  O0S   4004   4.608   4.114   4.389
    1HEX  C0T   4005   4.693   4.120   4.495
    1HEX  O0U   4006   4.661   4.141   4.612
    1HEX  C0V   4007   4.838   4.089   4.457
    1HEX  C0W   4008   4.933   4.211   4.459
    1HEX  C0Y   4009   4.496   4.380   4.415
    1HEX  O0Z   4010   4.470   4.381   4.554
    1HEX  C10   4011   4.555   4.434   4.639
    1HEX  O11   4012   4.659   4.494   4.610
    1HEX  C12   4013   4.509   4.412   4.782
    1HEX  C13   4014   4.616   4.453   4.885
    1HEX  C15   4015   4.265   4.287   4.389
    1HEX  O16   4016   4.231   4.261   4.525
    1HEX  C17   4017   4.148   4.161   4.557
    1HEX  O18   4018   4.111   4.070   4.483
    1HEX  C19   4019   4.096   4.174   4.699
    1HEX  C1A   4020   4.013   4.302   4.713
    1HEX  H1D   4021   4.628   4.838   4.028
    1HEX  H1E   4022   4.477   4.834   3.939
    1HEX  H1F   4023   4.633   4.591   4.041
    1HEX  H1G   4024   4.635   4.643   3.878
    1HEX  H1H   4025   4.302   4.344   3.834
    1HEX  H1I   4026   4.179   4.462   3.816
    1HEX  H1J   4027   4.289   4.500   4.159
    1HEX  H1K   4028   4.129   4.450   4.211
    1HEX  H1M   4029   4.007   4.859   4.043
    1HEX  H1N   4030   4.181   4.838   4.042
    1HEX  H1O   4031   4.187   4.889   4.291
    1HEX  H1P   4032   4.017   4.926   4.284
    1HEX  H1Q   4033   4.284   5.038   4.149
    1HEX  H1R   4034   3.986   4.444   3.937
    1HEX  H1S   4035   3.973   4.363   4.087
    1HEX  H1T   4036   3.869   4.022   3.829
    1HEX  H1U   4037   3.776   4.115   3.713
    1HEX  H1V   4038   3.609   4.088   3.886
    1HEX  H1W   4039   3.729   4.100   4.016
    1HEX  H1Y   4040   4.215   4.164   3.977
    1HEX  H1Z   4041   4.157   4.187   4.132
    1HEX  H20   4042   4.449   4.377   4.162
    1HEX  H21   4043   4.541   4.237   4.180
    1HEX  H22   4044   4.415   4.048   4.356
    1HEX  H23   4045   4.439   4.120   4.512
    1HEX  H24   4046   4.837   4.043   4.359
    1HEX  H25   4047   4.874   4.014   4.528
    1HEX  H26   4048   4.891   4.297   4.406
    1HEX  H27   4049   5.030   4.188   4.413
    1HEX  H29   4050   4.468   4.478   4.375
    1HEX  H2A   4051   4.602   4.368   4.396
    1HEX  H2B   4052   4.485   4.307   4.793
    1HEX  H2C   4053   4.417   4.469   4.795
    1HEX  H2D   4054   4.647   4.556   4.867
    1HEX  H2E   4055   4.705   4.391   4.871
    1HEX  H2F   4056   4.426   4.541   5.060
    1HEX  H2G   4057   4.199   4.229   4.325
    1HEX  H2H   4058   4.240   4.391   4.376
    1HEX  H2I   4059   4.180   4.174   4.768
    1HEX  H2J   4060   4.035   4.086   4.722
    1HEX  H2K   4061   3.933   4.305   4.639
    1HEX  H2M   4062   4.075   4.390   4.697
    1HEX  H2N   4063   3.854   4.233   4.905
    1STR  S00   4064   4.493   4.956   4.076
    1STR  S0E   4065   4.175   5.094   4.202
    1STR  S0M   4066   3.566   4.207   4.012
    1STR  S0X   4067   5.108   4.250   4.414
    1STR  S14   4068   4.530   4.459   5.045
    1STR  S1B   4069   3.944   4.329   4.879
    1HEX  C01   4070   4.634   4.207   8.032
    1HEX  C02   4071   4.569   4.211   8.171
    1HEX  C03   4072   4.418   4.215   8.158
    1HEX  O04   4073   4.355   4.117   8.116
    1HEX  O05   4074   4.366   4.333   8.194
    1HEX  C06   4075   4.224   4.350   8.198
    1HEX  C07   4076   4.173   4.341   8.344
    1HEX  C08   4077   4.225   4.465   8.421
    1HEX  O09   4078   4.165   4.588   8.383
    1HEX  C0A   4079   4.096   4.657   8.475
    1HEX  O0B   4080   4.040   4.610   8.573
    1HEX  C0C   4081   4.099   4.807   8.448
    1HEX  C0D   4082   4.101   4.886   8.579
    1HEX  C0F   4083   4.018   4.343   8.347
    1HEX  O0G   4084   3.967   4.222   8.291
    1HEX  C0H   4085   3.924   4.219   8.164
    1HEX  O0I   4086   3.900   4.316   8.093
    1HEX  C0J   4087   3.916   4.077   8.110
    1HEX  C0K   4088   3.798   4.000   8.171
    1HEX  C0N   4089   4.214   4.204   8.409
    1HEX  O0O   4090   4.347   4.177   8.457
    1HEX  C0P   4091   4.412   4.256   8.557
    1HEX  C0Q   4092   4.364   4.253   8.707
    1HEX  C0R   4093   4.433   4.134   8.779
    1HEX  O0S   4094   4.575   4.138   8.772
    1HEX  C0T   4095   4.647   4.090   8.875
    1HEX  O0U   4096   4.603   4.061   8.986
    1HEX  C0V   4097   4.794   4.072   8.841
    1HEX  C0W   4098   4.870   4.205   8.845
    1HEX  C0Y   4099   4.401   4.388   8.775
    1HEX  O0Z   4100   4.283   4.457   8.820
    1HEX  C10   4101   4.273   4.492   8.949
    1HEX  O11   4102   4.370   4.509   9.023
    1HEX  C12   4103   4.131   4.503   9.009
    1HEX  C13   4104   3.997   4.506   8.926
    1HEX  C15   4105   4.211   4.227   8.722
    1HEX  O16   4106   4.171   4.212   8.859
    1HEX  C17   4107   4.118   4.096   8.901
    1HEX  O18   4108   4.104   3.994   8.835
    1HEX  C19   4109   4.072   4.102   9.046
    1HEX  C1A   4110   3.938   4.176   9.057
    1HEX  H1C   4111   4.848   4.209   7.910
    1HEX  H1D   4112   4.600   4.118   7.978
    1HEX  H1E   4113   4.602   4.293   7.973
    1HEX  H1F   4114   4.602   4.298   8.227
    1HEX  H1G   4115   4.596   4.123   8.229
    1HEX  H1H   4116   4.175   4.278   8.133
    1HEX  H1I   4117   4.199   4.448   8.156
    1HEX  H1J   4118   4.329   4.481   8.396
    1HEX  H1K   4119   4.219   4.450   8.529
    1HEX  H1M   4120   4.015   4.836   8.385
    1HEX  H1N   4121   4.190   4.827   8.391
    1HEX  H1O   4122   4.178   4.847   8.646
    1HEX  H1P   4123   4.006   4.875   8.631
    1HEX  H1Q   4124   4.298   5.084   8.520
    1HEX  H1R   4125   3.977   4.432   8.297
    1HEX  H1S   4126   3.982   4.350   8.450
    1HEX  H1T   4127   4.011   4.027   8.131
    1HEX  H1U   4128   3.907   4.083   8.002
    1HEX  H1V   4129   3.705   4.054   8.155
    1HEX  H1W   4130   3.811   3.989   8.279
    1HEX  H1X   4131   3.787   3.840   7.954
    1HEX  H1Y   4132   4.200   4.128   8.332
    1HEX  H1Z   4133   4.138   4.173   8.479
    1HEX  H20   4134   4.428   4.357   8.522
    1HEX  H21   4135   4.515   4.220   8.555
    1HEX  H22   4136   4.399   4.040   8.736
    1HEX  H23   4137   4.400   4.132   8.883
    1HEX  H24   4138   4.801   4.025   8.743
    1HEX  H25   4139   4.837   4.002   8.913
    1HEX  H26   4140   4.822   4.278   8.780
    1HEX  H27   4141   4.973   4.192   8.811
    1HEX  H28   4142   4.786   4.331   9.046
    1HEX  H29   4143   4.457   4.456   8.710
    1HEX  H2A   4144   4.472   4.369   8.857
    1HEX  H2B   4145   4.136   4.585   9.080
    1HEX  H2C   4146   4.128   4.414   9.072
    1HEX  H2D   4147   3.994   4.595   8.864
    1HEX  H2E   4148   3.913   4.513   8.996
    1HEX  H2G   4149   4.186   4.137   8.669
    1HEX  H2H   4150   4.152   4.308   8.680
    1HEX  H2I   4151   4.151   4.153   9.103
    1HEX  H2J   4152   4.064   4.001   9.085
    1HEX  H2K   4153   3.857   4.113   9.019
    1HEX  H2M   4154   3.938   4.264   8.992
    1HEX  H2N   4155   3.874   4.174   9.280
    1STR  S00   4156   4.815   4.215   8.039
    1STR  S0E   4157   4.175   5.051   8.562
    1STR  S0M   4158   3.800   3.839   8.087
    1STR  S0X   4159   4.905   4.311   8.988
    1STR  S14   4160   3.837   4.508   8.828
    1STR  S1B   4161   3.912   4.278   9.205
    1HEX  C01   4162   4.469   4.783  12.676
    1HEX  C02   4163   4.527   4.639  12.648
    1HEX  C03   4164   4.446   4.513  12.613
    1HEX  O04   4165   4.506   4.407  12.597
    1HEX  O05   4166   4.313   4.524  12.602
    1HEX  C06   4167   4.231   4.406  12.593
    1HEX  C07   4168   4.174   4.359  12.731
    1HEX  C08   4169   4.182   4.475  12.831
    1HEX  O09   4170   4.125   4.595  12.782
    1HEX  C0A   4171   4.047   4.667  12.860
    1HEX  O0B   4172   3.976   4.624  12.951
    1HEX  C0C   4173   4.058   4.815  12.830
    1HEX  C0D   4174   4.080   4.896  12.959
    1HEX  C0F   4175   4.022   4.329  12.717
    1HEX  O0G   4176   3.999   4.209  12.645
    1HEX  C0H   4177   3.934   4.210  12.528
    1HEX  O0I   4178   3.889   4.309  12.471
    1HEX  C0J   4179   3.922   4.071  12.468
    1HEX  C0K   4180   3.801   3.997  12.526
    1HEX  C0N   4181   4.239   4.227  12.787
    1HEX  O0O   4182   4.377   4.219  12.828
    1HEX  C0P   4183   4.438   4.292  12.936
    1HEX  C0Q   4184   4.398   4.269  13.087
    1HEX  C0R   4185   4.427   4.122  13.126
    1HEX  O0S   4186   4.567   4.093  13.120
    1HEX  C0T   4187   4.640   4.080  13.232
    1HEX  O0U   4188   4.597   4.085  13.348
    1HEX  C0V   4189   4.788   4.059  13.204
    1HEX  C0W   4190   4.867   4.190  13.215
    1HEX  C0Y   4191   4.484   4.364  13.175
    1HEX  O0Z   4192   4.443   4.350  13.310
    1HEX  C10   4193   4.513   4.398  13.413
    1HEX  O11   4194   4.621   4.456  13.407
    1HEX  C12   4195   4.438   4.372  13.543
    1HEX  C13   4196   4.513   4.411  13.672
    1HEX  C15   4197   4.249   4.305  13.114
    1HEX  O16   4198   4.202   4.281  13.246
    1HEX  C17   4199   4.134   4.171  13.276
    1HEX  O18   4200   4.108   4.078  13.201
    1HEX  C19   4201   4.084   4.174  13.420
    1HEX  C1A   4202   4.002   4.302  13.445
    1HEX  H1D   4203   4.555   4.851  12.682
    1HEX  H1E   4204   4.410   4.817  12.591
    1HEX  H1F   4205   4.581   4.609  12.738
    1HEX  H1G   4206   4.602   4.645  12.570
    1HEX  H1H   4207   4.281   4.324  12.541
    1HEX  H1I   4208   4.148   4.432  12.526
    1HEX  H1J   4209   4.284   4.502  12.853
    1HEX  H1K   4210   4.134   4.446  12.924
    1HEX  H1M   4211   3.968   4.848  12.778
    1HEX  H1N   4212   4.142   4.831  12.763
    1HEX  H1O   4213   4.171   4.860  13.009
    1HEX  H1P   4214   3.999   4.875  13.029
    1HEX  H1Q   4215   4.279   5.047  12.969
    1HEX  H1R   4216   3.968   4.414  12.675
    1HEX  H1S   4217   3.976   4.315  12.816
    1HEX  H1T   4218   4.014   4.016  12.486
    1HEX  H1U   4219   3.912   4.082  12.360
    1HEX  H1V   4220   3.709   4.053  12.510
    1HEX  H1W   4221   3.812   3.983  12.634
    1HEX  H1X   4222   3.788   3.839  12.312
    1HEX  H1Y   4223   4.235   4.154  12.705
    1HEX  H1Z   4224   4.175   4.178  12.860
    1HEX  H20   4225   4.445   4.397  12.912
    1HEX  H21   4226   4.542   4.260  12.928
    1HEX  H22   4227   4.374   4.053  13.060
    1HEX  H23   4228   4.389   4.101  13.226
    1HEX  H24   4229   4.799   4.015  13.105
    1HEX  H25   4230   4.826   3.987  13.276
    1HEX  H26   4231   4.823   4.267  13.152
    1HEX  H27   4232   4.970   4.176  13.184
    1HEX  H28   4233   4.793   4.357  13.390
    1HEX  H29   4234   4.471   4.468  13.145
    1HEX  H2A   4235   4.591   4.343  13.165
    1HEX  H2B   4236   4.414   4.266  13.546
    1HEX  H2C   4237   4.344   4.427  13.538
    1HEX  H2D   4238   4.547   4.515  13.668
    1HEX  H2E   4239   4.602   4.349  13.685
    1HEX  H2G   4240   4.180   4.257  13.045
    1HEX  H2H   4241   4.238   4.413  13.101
    1HEX  H2I   4242   4.170   4.170  13.487
    1HEX  H2J   4243   4.024   4.085  13.439
    1HEX  H2K   4244   3.923   4.311  13.371
    1HEX  H2M   4245   4.065   4.390  13.434
    1HEX  H2N   4246   3.853   4.231  13.628
    1STR  S00   4247   4.400   4.955  12.709
    1STR  S0E   4248   4.217   4.965  13.055
    1STR  S0M   4249   3.801   3.834  12.445
    1STR  S0X   4250   4.910   4.309  13.345
    1STR  S14   4251   4.434   4.389  13.835
    1STR  S1B   4252   3.940   4.331  13.612
    1HEX  C01   4253   4.633   8.566  16.752
    1HEX  C02   4254   4.572   8.569  16.893
    1HEX  C03   4255   4.420   8.570  16.884
    1HEX  O04   4256   4.358   8.470  16.846
    1HEX  O05   4257   4.367   8.688  16.918
    1HEX  C06   4258   4.225   8.703  16.924
    1HEX  C07   4259   4.176   8.697  17.070
    1HEX  C08   4260   4.226   8.825  17.141
    1HEX  O09   4261   4.161   8.946  17.104
    1HEX  C0A   4262   4.098   9.017  17.199
    1HEX  O0B   4263   4.050   8.971  17.303
    1HEX  C0C   4264   4.096   9.166  17.168
    1HEX  C0D   4265   4.098   9.250  17.297
    1HEX  C0F   4266   4.021   8.697  17.073
    1HEX  O0G   4267   3.972   8.576  17.015
    1HEX  C0H   4268   3.926   8.575  16.890
    1HEX  O0I   4269   3.898   8.674  16.822
    1HEX  C0J   4270   3.917   8.435  16.832
    1HEX  C0K   4271   3.798   8.358  16.891
    1HEX  C0N   4272   4.222   8.565  17.143
    1HEX  O0O   4273   4.358   8.546  17.184
    1HEX  C0P   4274   4.427   8.627  17.280
    1HEX  C0Q   4275   4.392   8.621  17.432
    1HEX  C0R   4276   4.426   8.479   0.045
    1HEX  O0S   4277   4.566   8.452   0.038
    1HEX  C0T   4278   4.640   8.447   0.151
    1HEX  O0U   4279   4.599   8.460   0.266
    1HEX  C0V   4280   4.788   8.424   0.122
    1HEX  C0W   4281   4.870   8.552   0.137
    1HEX  C0Y   4282   4.484   8.725   0.060
    1HEX  O0Z   4283   4.460   8.725   0.199
    1HEX  C10   4284   4.548   8.780   0.282
    1HEX  O11   4285   4.652   8.837   0.248
    1HEX  C12   4286   4.505   8.764   0.426
    1HEX  C13   4287   4.614   8.808   0.525
    1HEX  C15   4288   4.245   8.661   0.025
    1HEX  O16   4289   4.207   8.639   0.160
    1HEX  C17   4290   4.135   8.531   0.195
    1HEX  O18   4291   4.105   8.438   0.121
    1HEX  C19   4292   4.089   8.538   0.339
    1HEX  C1A   4293   4.006   8.665   0.361
    1HEX  H1C   4294   4.848   8.570  16.630
    1HEX  H1D   4295   4.599   8.478  16.699
    1HEX  H1E   4296   4.599   8.653  16.695
    1HEX  H1F   4297   4.604   8.657  16.948
    1HEX  H1G   4298   4.602   8.482  16.950
    1HEX  H1H   4299   4.177   8.628  16.861
    1HEX  H1I   4300   4.198   8.798  16.879
    1HEX  H1J   4301   4.330   8.843  17.114
    1HEX  H1K   4302   4.223   8.812  17.248
    1HEX  H1M   4303   4.010   9.191  17.106
    1HEX  H1N   4304   4.185   9.187  17.110
    1HEX  H1O   4305   4.176   9.214  17.365
    1HEX  H1P   4306   4.004   9.240  17.350
    1HEX  H1Q   4307   4.303   9.447  17.239
    1HEX  H1R   4308   3.979   8.785  17.024
    1HEX  H1S   4309   3.984   8.702  17.176
    1HEX  H1T   4310   4.011   8.383  16.853
    1HEX  H1U   4311   3.909   8.443  16.724
    1HEX  H1V   4312   3.706   8.413  16.874
    1HEX  H1W   4313   3.810   8.346  16.998
    1HEX  H1X   4314   3.788   8.199  16.674
    1HEX  H1Y   4315   4.206   8.485  17.071
    1HEX  H1Z   4316   4.153   8.535  17.221
    1HEX  H20   4317   4.437   8.730  17.246
    1HEX  H21   4318   4.530   8.592  17.271
    1HEX  H22   4319   4.372   8.403  17.427
    1HEX  H23   4320   4.390   8.467   0.147
    1HEX  H24   4321   4.798   8.382   0.022
    1HEX  H25   4322   4.824   8.349   0.193
    1HEX  H26   4323   4.829   8.633   0.075
    1HEX  H27   4324   4.973   8.537   0.105
    1HEX  H28   4325   4.795   8.710   0.287
    1HEX  H29   4326   4.465   8.826   0.023
    1HEX  H2A   4327   4.589   8.704   0.040
    1HEX  H2B   4328   4.480   8.659   0.442
    1HEX  H2C   4329   4.414   8.821   0.439
    1HEX  H2D   4330   4.645   8.910   0.503
    1HEX  H2E   4331   4.702   8.745   0.513
    1HEX  H2F   4332   4.424   8.904   0.703
    1HEX  H2G   4333   4.172   8.613  17.402
    1HEX  H2H   4334   4.231   8.768   0.011
    1HEX  H2I   4335   4.176   8.537   0.404
    1HEX  H2J   4336   4.030   8.449   0.361
    1HEX  H2K   4337   3.925   8.671   0.288
    1HEX  H2M   4338   4.068   8.754   0.347
    1HEX  H2N   4339   3.852   8.592   0.547
    1STR  S00   4340   4.814   8.576  16.759
    1STR  S0E   4341   4.182   9.410  17.281
    1STR  S0M   4342   3.799   8.197  16.807
    1STR  S0X   4343   4.919   8.658   0.276
    1STR  S14   4344   4.529   8.823   0.685
    1STR  S1B   4345   3.939   8.692   0.527
    1HEX  C01   4346   4.634   8.567   3.673
    1HEX  C02   4347   4.573   8.571   3.813
    1HEX  C03   4348   4.421   8.573   3.804
    1HEX  O04   4349   4.359   8.475   3.764
    1HEX  O05   4350   4.369   8.691   3.841
    1HEX  C06   4351   4.228   8.706   3.849
    1HEX  C07   4352   4.180   8.698   3.996
    1HEX  C08   4353   4.226   8.827   4.067
    1HEX  O09   4354   4.159   8.947   4.028
    1HEX  C0A   4355   4.095   9.019   4.121
    1HEX  O0B   4356   4.046   8.974   4.224
    1HEX  C0C   4357   4.094   9.167   4.088
    1HEX  C0D   4358   4.098   9.252   4.217
    1HEX  C0F   4359   4.024   8.694   4.000
    1HEX  O0G   4360   3.978   8.573   3.940
    1HEX  C0H   4361   3.928   8.574   3.815
    1HEX  O0I   4362   3.898   8.674   3.750
    1HEX  C0J   4363   3.919   8.435   3.756
    1HEX  C0K   4364   3.800   8.358   3.813
    1HEX  C0N   4365   4.231   8.567   4.066
    1HEX  O0O   4366   4.369   8.550   4.104
    1HEX  C0P   4367   4.441   8.638   4.193
    1HEX  C0Q   4368   4.418   8.632   4.347
    1HEX  C0R   4369   4.482   8.501   4.401
    1HEX  O0S   4370   4.625   8.496   4.386
    1HEX  C0T   4371   4.707   8.495   4.495
    1HEX  O0U   4372   4.671   8.506   4.612
    1HEX  C0V   4373   4.854   8.469   4.461
    1HEX  C0W   4374   4.946   8.593   4.475
    1HEX  C0Y   4375   4.494   8.750   4.410
    1HEX  O0Z   4376   4.468   8.749   4.549
    1HEX  C10   4377   4.555   8.797   4.635
    1HEX  O11   4378   4.660   8.856   4.608
    1HEX  C12   4379   4.510   8.771   4.778
    1HEX  C13   4380   4.616   8.809   4.882
    1HEX  C15   4381   4.267   8.648   4.391
    1HEX  O16   4382   4.238   8.564   4.502
    1HEX  C17   4383   4.172   8.449   4.484
    1HEX  O18   4384   4.071   8.434   4.415
    1HEX  C19   4385   4.245   8.336   4.560
    1HEX  C1A   4386   4.192   8.204   4.619
    1HEX  H1C   4387   4.846   8.570   3.549
    1HEX  H1D   4388   4.599   8.478   3.620
    1HEX  H1E   4389   4.600   8.654   3.615
    1HEX  H1F   4390   4.606   8.658   3.868
    1HEX  H1G   4391   4.602   8.483   3.870
    1HEX  H1H   4392   4.178   8.632   3.786
    1HEX  H1I   4393   4.200   8.802   3.805
    1HEX  H1J   4394   4.328   8.849   4.038
    1HEX  H1K   4395   4.224   8.815   4.176
    1HEX  H1M   4396   4.009   9.193   4.026
    1HEX  H1N   4397   4.184   9.188   4.030
    1HEX  H1O   4398   4.175   9.216   4.285
    1HEX  H1P   4399   4.003   9.243   4.270
    1HEX  H1Q   4400   4.304   9.446   4.159
    1HEX  H1R   4401   3.981   8.782   3.954
    1HEX  H1S   4402   3.989   8.696   4.103
    1HEX  H1T   4403   4.013   8.383   3.775
    1HEX  H1U   4404   3.911   8.445   3.647
    1HEX  H1V   4405   3.708   8.413   3.797
    1HEX  H1W   4406   3.811   8.345   3.921
    1HEX  H1X   4407   3.787   8.201   3.592
    1HEX  H1Y   4408   4.215   8.486   3.994
    1HEX  H1Z   4409   4.164   8.533   4.145
    1HEX  H20   4410   4.445   8.739   4.158
    1HEX  H21   4411   4.544   8.607   4.177
    1HEX  H22   4412   4.439   8.414   4.351
    1HEX  H23   4413   4.458   8.488   4.507
    1HEX  H24   4414   4.858   8.428   4.360
    1HEX  H25   4415   4.889   8.391   4.528
    1HEX  H26   4416   4.901   8.682   4.430
    1HEX  H27   4417   5.044   8.577   4.429
    1HEX  H29   4418   4.462   8.847   4.369
    1HEX  H2A   4419   4.601   8.743   4.390
    1HEX  H2B   4420   4.486   8.665   4.786
    1HEX  H2C   4421   4.417   8.826   4.792
    1HEX  H2D   4422   4.647   8.912   4.867
    1HEX  H2E   4423   4.704   8.747   4.867
    1HEX  H2F   4424   4.426   8.904   5.058
    1HEX  H2G   4425   4.194   8.633   4.314
    1HEX  H2H   4426   4.247   8.751   4.423
    1HEX  H2I   4427   4.188   8.385   4.638
    1HEX  H2J   4428   4.221   8.285   4.466
    1HEX  H2K   4429   4.084   8.205   4.638
    1HEX  H2M   4430   4.242   8.181   4.713
    1STR  S00   4431   4.815   8.575   3.679
    1STR  S0E   4432   4.182   9.412   4.201
    1STR  S0M   4433   3.799   8.199   3.725
    1STR  S0X   4434   5.117   8.652   4.441
    1STR  S14   4435   4.529   8.821   5.041
    1STR  S1B   4436   4.289   8.054   4.583
    1HEX  C01   4437   4.633   8.567   8.032
    1HEX  C02   4438   4.572   8.569   8.173
    1HEX  C03   4439   4.420   8.570   8.164
    1HEX  O04   4440   4.358   8.470   8.126
    1HEX  O05   4441   4.367   8.688   8.198
    1HEX  C06   4442   4.225   8.703   8.204
    1HEX  C07   4443   4.176   8.697   8.350
    1HEX  C08   4444   4.226   8.825   8.421
    1HEX  O09   4445   4.161   8.946   8.384
    1HEX  C0A   4446   4.098   9.017   8.479
    1HEX  O0B   4447   4.050   8.971   8.583
    1HEX  C0C   4448   4.096   9.166   8.448
    1HEX  C0D   4449   4.098   9.250   8.577
    1HEX  C0F   4450   4.021   8.697   8.353
    1HEX  O0G   4451   3.972   8.576   8.295
    1HEX  C0H   4452   3.926   8.575   8.170
    1HEX  O0I   4453   3.898   8.674   8.102
    1HEX  C0J   4454   3.917   8.435   8.112
    1HEX  C0K   4455   3.798   8.358   8.171
    1HEX  C0N   4456   4.222   8.565   8.422
    1HEX  O0O   4457   4.358   8.546   8.464
    1HEX  C0P   4458   4.427   8.627   8.560
    1HEX  C0Q   4459   4.392   8.621   8.712
    1HEX  C0R   4460   4.426   8.479   8.765
    1HEX  O0S   4461   4.566   8.452   8.758
    1HEX  C0T   4462   4.640   8.447   8.871
    1HEX  O0U   4463   4.599   8.460   8.986
    1HEX  C0V   4464   4.788   8.424   8.842
    1HEX  C0W   4465   4.870   8.552   8.857
    1HEX  C0Y   4466   4.484   8.725   8.780
    1HEX  O0Z   4467   4.460   8.725   8.919
    1HEX  C10   4468   4.548   8.780   9.002
    1HEX  O11   4469   4.652   8.837   8.968
    1HEX  C12   4470   4.505   8.764   9.146
    1HEX  C13   4471   4.614   8.808   9.245
    1HEX  C15   4472   4.245   8.661   8.745
    1HEX  O16   4473   4.207   8.639   8.880
    1HEX  C17   4474   4.135   8.531   8.915
    1HEX  O18   4475   4.105   8.438   8.841
    1HEX  C19   4476   4.089   8.538   9.059
    1HEX  C1A   4477   4.006   8.665   9.081
    1HEX  H1C   4478   4.848   8.570   7.910
    1HEX  H1D   4479   4.599   8.478   7.979
    1HEX  H1E   4480   4.599   8.653   7.975
    1HEX  H1F   4481   4.604   8.657   8.228
    1HEX  H1G   4482   4.602   8.482   8.230
    1HEX  H1H   4483   4.177   8.628   8.141
    1HEX  H1I   4484   4.198   8.798   8.159
    1HEX  H1J   4485   4.330   8.843   8.394
    1HEX  H1K   4486   4.223   8.812   8.528
    1HEX  H1M   4487   4.010   9.191   8.386
    1HEX  H1N   4488   4.185   9.187   8.390
    1HEX  H1O   4489   4.176   9.214   8.645
    1HEX  H1P   4490   4.004   9.240   8.630
    1HEX  H1Q   4491   4.303   9.447   8.519
    1HEX  H1R   4492   3.979   8.785   8.304
    1HEX  H1S   4493   3.984   8.702   8.456
    1HEX  H1T   4494   4.011   8.383   8.133
    1HEX  H1U   4495   3.909   8.443   8.004
    1HEX  H1V   4496   3.706   8.413   8.154
    1HEX  H1W   4497   3.810   8.346   8.278
    1HEX  H1X   4498   3.788   8.199   7.954
    1HEX  H1Y   4499   4.206   8.485   8.351
    1HEX  H1Z   4500   4.153   8.535   8.501
    1HEX  H20   4501   4.437   8.730   8.526
    1HEX  H21   4502   4.530   8.592   8.551
    1HEX  H22   4503   4.372   8.403   8.707
    1HEX  H23   4504   4.390   8.467   8.867
    1HEX  H24   4505   4.798   8.382   8.742
    1HEX  H25   4506   4.824   8.349   8.913
    1HEX  H26   4507   4.829   8.633   8.795
    1HEX  H27   4508   4.973   8.537   8.825
    1HEX  H28   4509   4.796   8.710   9.007
    1HEX  H29   4510   4.465   8.826   8.743
    1HEX  H2A   4511   4.589   8.704   8.760
    1HEX  H2B   4512   4.480   8.659   9.162
    1HEX  H2C   4513   4.414   8.821   9.159
    1HEX  H2D   4514   4.645   8.910   9.223
    1HEX  H2E   4515   4.702   8.745   9.233
    1HEX  H2F   4516   4.424   8.904   9.423
    1HEX  H2G   4517   4.172   8.613   8.682
    1HEX  H2H   4518   4.231   8.768   8.731
    1HEX  H2I   4519   4.176   8.537   9.124
    1HEX  H2J   4520   4.030   8.449   9.081
    1HEX  H2K   4521   3.925   8.671   9.008
    1HEX  H2M   4522   4.068   8.754   9.067
    1HEX  H2N   4523   3.852   8.592   9.267
    1STR  S00   4524   4.814   8.576   8.039
    1STR  S0E   4525   4.182   9.410   8.561
    1STR  S0M   4526   3.799   8.197   8.087
    1STR  S0X   4527   4.919   8.658   8.996
    1STR  S14   4528   4.529   8.823   9.405
    1STR  S1B   4529   3.938   8.692   9.247
    1HEX  C01   4530   4.630   8.566  12.395
    1HEX  C02   4531   4.566   8.568  12.534
    1HEX  C03   4532   4.415   8.564  12.522
    1HEX  O04   4533   4.356   8.462  12.487
    1HEX  O05   4534   4.359   8.683  12.550
    1HEX  C06   4535   4.217   8.695  12.553
    1HEX  C07   4536   4.166   8.708  12.699
    1HEX  C08   4537   4.218   8.842  12.753
    1HEX  O09   4538   4.148   8.961  12.719
    1HEX  C0A   4539   4.095   9.035  12.819
    1HEX  O0B   4540   4.055   8.990  12.926
    1HEX  C0C   4541   4.098   9.184  12.792
    1HEX  C0D   4542   4.105   9.267  12.922
    1HEX  C0F   4543   4.010   8.707  12.701
    1HEX  O0G   4544   3.963   8.583  12.649
    1HEX  C0H   4545   3.918   8.574  12.523
    1HEX  O0I   4546   3.889   8.669  12.451
    1HEX  C0J   4547   3.915   8.431  12.471
    1HEX  C0K   4548   3.797   8.353  12.530
    1HEX  C0N   4549   4.210   8.590  12.792
    1HEX  O0O   4550   4.348   8.573  12.825
    1HEX  C0P   4551   4.418   8.656  12.919
    1HEX  C0Q   4552   4.387   8.651  13.072
    1HEX  C0R   4553   4.383   8.503  13.118
    1HEX  O0S   4554   4.501   8.432  13.079
    1HEX  C0T   4555   4.587   8.385  13.171
    1HEX  O0U   4556   4.585   8.408  13.292
    1HEX  C0V   4557   4.694   8.294  13.111
    1HEX  C0W   4558   4.666   8.147  13.144
    1HEX  C0Y   4559   4.505   8.722  13.141
    1HEX  O0Z   4560   4.491   8.708  13.281
    1HEX  C10   4561   4.567   8.778  13.362
    1HEX  O11   4562   4.660   8.852  13.330
    1HEX  C12   4563   4.522   8.761  13.506
    1HEX  C13   4564   4.626   8.810  13.606
    1HEX  C15   4565   4.254   8.727  13.111
    1HEX  O16   4566   4.245   8.795  13.237
    1HEX  C17   4567   4.135   8.872  13.261
    1HEX  O18   4568   4.029   8.862  13.199
    1HEX  C19   4569   4.147   8.972  13.377
    1HEX  C1A   4570   4.171   9.123  13.341
    1HEX  H1C   4571   4.847   8.571  12.269
    1HEX  H1D   4572   4.599   8.476  12.341
    1HEX  H1E   4573   4.597   8.652  12.337
    1HEX  H1F   4574   4.596   8.657  12.590
    1HEX  H1G   4575   4.597   8.481  12.592
    1HEX  H1H   4576   4.171   8.612  12.501
    1HEX  H1I   4577   4.189   8.784  12.497
    1HEX  H1J   4578   4.321   8.857  12.724
    1HEX  H1K   4579   4.219   8.833  12.859
    1HEX  H1M   4580   4.011   9.211  12.732
    1HEX  H1N   4581   4.186   9.203  12.731
    1HEX  H1O   4582   4.184   9.230  12.988
    1HEX  H1P   4583   4.012   9.256  12.979
    1HEX  H1Q   4584   4.290   9.420  12.865
    1HEX  H1R   4585   3.969   8.792  12.646
    1HEX  H1S   4586   3.973   8.719  12.803
    1HEX  H1T   4587   4.010   8.383  12.495
    1HEX  H1U   4588   3.909   8.435  12.363
    1HEX  H1V   4589   3.704   8.407  12.512
    1HEX  H1W   4590   3.808   8.344  12.638
    1HEX  H1X   4591   3.788   8.200  12.318
    1HEX  H1Y   4592   4.184   8.497  12.741
    1HEX  H1Z   4593   4.152   8.586  12.884
    1HEX  H20   4594   4.426   8.759  12.885
    1HEX  H21   4595   4.520   8.620  12.907
    1HEX  H22   4596   4.299   8.451  13.071
    1HEX  H23   4597   4.365   8.496  13.226
    1HEX  H24   4598   4.790   8.326  13.150
    1HEX  H25   4599   4.696   8.308  13.003
    1HEX  H26   4600   4.642   8.135  13.250
    1HEX  H27   4601   4.753   8.084  13.124
    1HEX  H29   4602   4.506   8.828  13.115
    1HEX  H2A   4603   4.601   8.681  13.112
    1HEX  H2B   4604   4.498   8.656  13.522
    1HEX  H2C   4605   4.428   8.816  13.514
    1HEX  H2D   4606   4.654   8.913  13.584
    1HEX  H2E   4607   4.717   8.751  13.596
    1HEX  H2F   4608   4.424   8.905  13.782
    1HEX  H2G   4609   4.166   8.665  13.095
    1HEX  H2H   4610   4.245   8.813  13.048
    1HEX  H2I   4611   4.225   8.936  13.444
    1HEX  H2J   4612   4.054   8.963  13.433
    1HEX  H2K   4613   4.090   9.159  13.275
    1HEX  H2M   4614   4.264   9.138  13.288
    1STR  S00   4615   4.811   8.577  12.398
    1STR  S0E   4616   4.159   9.436  12.887
    1STR  S0M   4617   3.800   8.190  12.451
    1STR  S0X   4618   4.553   8.009  13.105
    1STR  S14   4619   4.532   8.829  13.761
    1STR  S1B   4620   4.200   9.302  13.296
    1HEX  C01   4621   4.512  13.479  17.071
    1HEX  C02   4622   4.555  13.332  17.029
    1HEX  C03   4623   4.461  13.216  16.989
    1HEX  O04   4624   4.511  13.106  16.966
    1HEX  O05   4625   4.330  13.240  16.981
    1HEX  C06   4626   4.236  13.132  16.958
    1HEX  C07   4627   4.168  13.080  17.089
    1HEX  C08   4628   4.171  13.192  17.195
    1HEX  O09   4629   4.123  13.314  17.143
    1HEX  C0A   4630   4.072  13.403  17.227
    1HEX  O0B   4631   4.018  13.376  17.334
    1HEX  C0C   4632   4.092  13.546  17.180
    1HEX  C0D   4633   4.109  13.639  17.300
    1HEX  C0F   4634   4.015  13.056  17.067
    1HEX  O0G   4635   3.991  12.935  16.998
    1HEX  C0H   4636   3.936  12.934  16.876
    1HEX  O0I   4637   3.901  13.033  16.812
    1HEX  C0J   4638   3.922  12.793  16.821
    1HEX  C0K   4639   3.802  12.721  16.884
    1HEX  C0N   4640   4.224  12.942  17.140
    1HEX  O0O   4641   4.360  12.920  17.178
    1HEX  C0P   4642   4.429  12.997  17.277
    1HEX  C0Q   4643   4.396  12.984  17.429
    1HEX  C0R   4644   4.429  12.840   0.039
    1HEX  O0S   4645   4.569  12.814   0.034
    1HEX  C0T   4646   4.641  12.807   0.148
    1HEX  O0U   4647   4.598  12.818   0.263
    1HEX  C0V   4648   4.789  12.783   0.122
    1HEX  C0W   4649   4.871  12.912   0.137
    1HEX  C0Y   4650   4.487  13.087   0.060
    1HEX  O0Z   4651   4.463  13.084   0.199
    1HEX  C10   4652   4.549  13.140   0.282
    1HEX  O11   4653   4.653  13.198   0.250
    1HEX  C12   4654   4.505  13.124   0.426
    1HEX  C13   4655   4.613  13.168   0.525
    1HEX  C15   4656   4.249  13.021   0.024
    1HEX  O16   4657   4.211  12.998   0.159
    1HEX  C17   4658   4.137  12.892   0.193
    1HEX  O18   4659   4.105  12.799   0.118
    1HEX  C19   4660   4.090  12.898   0.337
    1HEX  C1A   4661   4.008  13.025   0.360
    1HEX  H1D   4662   4.600  13.543  17.083
    1HEX  H1E   4663   4.451  13.524  16.992
    1HEX  H1F   4664   4.611  13.290  17.113
    1HEX  H1G   4665   4.626  13.337  16.947
    1HEX  H1H   4666   4.281  13.049  16.902
    1HEX  H1I   4667   4.160  13.171  16.891
    1HEX  H1J   4668   4.272  13.214  17.228
    1HEX  H1K   4669   4.113  13.162  17.281
    1HEX  H1M   4670   4.009  13.576  17.117
    1HEX  H1N   4671   4.182  13.550  17.118
    1HEX  H1O   4672   4.192  13.604  17.363
    1HEX  H1P   4673   4.019  13.636  17.362
    1HEX  H1Q   4674   4.243  13.772  17.238
    1HEX  H1R   4675   3.968  13.143  17.020
    1HEX  H1S   4676   3.964  13.047  17.162
    1HEX  H1T   4677   4.015  12.739  16.841
    1HEX  H1U   4678   3.911  12.800  16.713
    1HEX  H1V   4679   3.711  12.778  16.869
    1HEX  H1W   4680   3.816  12.710  16.992
    1HEX  H1X   4681   3.787  12.559  16.674
    1HEX  H1Y   4682   4.214  12.872  17.057
    1HEX  H1Z   4683   4.157  12.896  17.213
    1HEX  H20   4684   4.439  13.100  17.244
    1HEX  H21   4685   4.532  12.960  17.265
    1HEX  H22   4686   4.376  12.766  17.418
    1HEX  H23   4687   4.391  12.826   0.140
    1HEX  H24   4688   4.800  12.741   0.022
    1HEX  H25   4689   4.824  12.709   0.192
    1HEX  H26   4690   4.829  12.993   0.076
    1HEX  H27   4691   4.974  12.897   0.105
    1HEX  H28   4692   4.796  13.071   0.287
    1HEX  H29   4693   4.468  13.188   0.024
    1HEX  H2A   4694   4.592  13.066   0.040
    1HEX  H2B   4695   4.480  13.019   0.442
    1HEX  H2C   4696   4.414  13.181   0.438
    1HEX  H2D   4697   4.645  13.271   0.504
    1HEX  H2E   4698   4.702  13.106   0.514
    1HEX  H2F   4699   4.424  13.264   0.702
    1HEX  H2G   4700   4.177  12.972  17.400
    1HEX  H2H   4701   4.236  13.128   0.011
    1HEX  H2I   4702   4.177  12.896   0.402
    1HEX  H2J   4703   4.031  12.809   0.359
    1HEX  H2K   4704   3.926  13.032   0.287
    1HEX  H2M   4705   4.069  13.114   0.346
    1HEX  H2N   4706   3.852  12.951   0.547
    1STR  S00   4707   4.461  13.653  17.120
    1STR  S0E   4708   4.127  13.819  17.288
    1STR  S0M   4709   3.802  12.557  16.807
    1STR  S0X   4710   4.920  13.019   0.275
    1STR  S14   4711   4.529  13.183   0.685
    1STR  S1B   4712   3.940  13.050   0.526
    1HEX  C01   4713   4.633  12.927   3.672
    1HEX  C02   4714   4.572  12.929   3.813
    1HEX  C03   4715   4.420  12.930   3.804
    1HEX  O04   4716   4.358  12.830   3.766
    1HEX  O05   4717   4.367  13.048   3.838
    1HEX  C06   4718   4.225  13.063   3.844
    1HEX  C07   4719   4.176  13.057   3.990
    1HEX  C08   4720   4.226  13.185   4.061
    1HEX  O09   4721   4.161  13.306   4.024
    1HEX  C0A   4722   4.098  13.377   4.119
    1HEX  O0B   4723   4.050  13.331   4.223
    1HEX  C0C   4724   4.096  13.526   4.088
    1HEX  C0D   4725   4.098  13.610   4.217
    1HEX  C0F   4726   4.021  13.057   3.993
    1HEX  O0G   4727   3.972  12.936   3.935
    1HEX  C0H   4728   3.926  12.935   3.810
    1HEX  O0I   4729   3.898  13.034   3.742
    1HEX  C0J   4730   3.917  12.795   3.752
    1HEX  C0K   4731   3.798  12.718   3.811
    1HEX  C0N   4732   4.222  12.925   4.062
    1HEX  O0O   4733   4.358  12.906   4.104
    1HEX  C0P   4734   4.427  12.987   4.200
    1HEX  C0Q   4735   4.392  12.981   4.352
    1HEX  C0R   4736   4.426  12.839   4.405
    1HEX  O0S   4737   4.566  12.812   4.398
    1HEX  C0T   4738   4.640  12.807   4.511
    1HEX  O0U   4739   4.599  12.820   4.626
    1HEX  C0V   4740   4.788  12.784   4.482
    1HEX  C0W   4741   4.870  12.913   4.497
    1HEX  C0Y   4742   4.484  13.085   4.420
    1HEX  O0Z   4743   4.460  13.085   4.559
    1HEX  C10   4744   4.548  13.140   4.641
    1HEX  O11   4745   4.652  13.198   4.608
    1HEX  C12   4746   4.505  13.124   4.786
    1HEX  C13   4747   4.614  13.168   4.885
    1HEX  C15   4748   4.245  13.021   4.385
    1HEX  O16   4749   4.207  12.999   4.520
    1HEX  C17   4750   4.135  12.892   4.555
    1HEX  O18   4751   4.105  12.798   4.481
    1HEX  C19   4752   4.089  12.898   4.699
    1HEX  C1A   4753   4.006  13.026   4.721
    1HEX  H1C   4754   4.848  12.930   3.550
    1HEX  H1D   4755   4.599  12.838   3.619
    1HEX  H1E   4756   4.599  13.013   3.615
    1HEX  H1F   4757   4.604  13.017   3.868
    1HEX  H1G   4758   4.602  12.842   3.870
    1HEX  H1H   4759   4.177  12.988   3.781
    1HEX  H1I   4760   4.198  13.158   3.799
    1HEX  H1J   4761   4.330  13.203   4.034
    1HEX  H1K   4762   4.223  13.172   4.168
    1HEX  H1M   4763   4.010  13.551   4.026
    1HEX  H1N   4764   4.185  13.547   4.030
    1HEX  H1O   4765   4.176  13.574   4.285
    1HEX  H1P   4766   4.004  13.600   4.270
    1HEX  H1Q   4767   4.303  13.808   4.160
    1HEX  H1R   4768   3.979  13.145   3.944
    1HEX  H1S   4769   3.984  13.063   4.096
    1HEX  H1T   4770   4.011  12.743   3.773
    1HEX  H1U   4771   3.909  12.803   3.644
    1HEX  H1V   4772   3.706  12.773   3.794
    1HEX  H1W   4773   3.810  12.706   3.918
    1HEX  H1X   4774   3.788  12.559   3.594
    1HEX  H1Y   4775   4.206  12.845   3.991
    1HEX  H1Z   4776   4.153  12.895   4.140
    1HEX  H20   4777   4.437  13.090   4.166
    1HEX  H21   4778   4.530  12.952   4.191
    1HEX  H22   4779   4.372  12.763   4.347
    1HEX  H23   4780   4.390  12.827   4.507
    1HEX  H24   4781   4.798  12.742   4.382
    1HEX  H25   4782   4.824  12.709   4.553
    1HEX  H26   4783   4.829  12.993   4.435
    1HEX  H27   4784   4.973  12.897   4.465
    1HEX  H28   4785   4.796  13.070   4.646
    1HEX  H29   4786   4.465  13.186   4.382
    1HEX  H2A   4787   4.589  13.065   4.400
    1HEX  H2B   4788   4.480  13.019   4.802
    1HEX  H2C   4789   4.414  13.182   4.799
    1HEX  H2D   4790   4.645  13.271   4.863
    1HEX  H2E   4791   4.702  13.106   4.873
    1HEX  H2F   4792   4.424  13.264   5.063
    1HEX  H2G   4793   4.172  12.973   4.322
    1HEX  H2H   4794   4.231  13.128   4.371
    1HEX  H2I   4795   4.176  12.897   4.764
    1HEX  H2J   4796   4.030  12.809   4.721
    1HEX  H2K   4797   3.926  13.032   4.648
    1HEX  H2M   4798   4.068  13.114   4.707
    1HEX  H2N   4799   3.852  12.952   4.907
    1STR  S00   4800   4.814  12.936   3.679
    1STR  S0E   4801   4.182  13.770   4.201
    1STR  S0M   4802   3.799  12.557   3.727
    1STR  S0X   4803   4.919  13.018   4.636
    1STR  S14   4804   4.529  13.183   5.045
    1STR  S1B   4805   3.938  13.052   4.887
    1HEX  C01   4806   4.633  12.927   8.032
    1HEX  C02   4807   4.572  12.929   8.173
    1HEX  C03   4808   4.420  12.930   8.164
    1HEX  O04   4809   4.358  12.830   8.126
    1HEX  O05   4810   4.367  13.048   8.198
    1HEX  C06   4811   4.225  13.063   8.204
    1HEX  C07   4812   4.176  13.057   8.350
    1HEX  C08   4813   4.226  13.185   8.421
    1HEX  O09   4814   4.161  13.306   8.384
    1HEX  C0A   4815   4.098  13.377   8.479
    1HEX  O0B   4816   4.050  13.331   8.582
    1HEX  C0C   4817   4.096  13.526   8.448
    1HEX  C0D   4818   4.098  13.610   8.577
    1HEX  C0F   4819   4.021  13.057   8.353
    1HEX  O0G   4820   3.972  12.936   8.295
    1HEX  C0H   4821   3.926  12.935   8.170
    1HEX  O0I   4822   3.898  13.034   8.102
    1HEX  C0J   4823   3.917  12.795   8.112
    1HEX  C0K   4824   3.798  12.718   8.171
    1HEX  C0N   4825   4.222  12.925   8.422
    1HEX  O0O   4826   4.358  12.906   8.464
    1HEX  C0P   4827   4.427  12.987   8.560
    1HEX  C0Q   4828   4.392  12.981   8.712
    1HEX  C0R   4829   4.426  12.839   8.765
    1HEX  O0S   4830   4.566  12.812   8.758
    1HEX  C0T   4831   4.640  12.807   8.871
    1HEX  O0U   4832   4.599  12.820   8.986
    1HEX  C0V   4833   4.788  12.784   8.842
    1HEX  C0W   4834   4.870  12.913   8.857
    1HEX  C0Y   4835   4.484  13.085   8.780
    1HEX  O0Z   4836   4.460  13.085   8.919
    1HEX  C10   4837   4.548  13.140   9.001
    1HEX  O11   4838   4.652  13.198   8.968
    1HEX  C12   4839   4.505  13.124   9.146
    1HEX  C13   4840   4.614  13.168   9.245
    1HEX  C15   4841   4.245  13.021   8.745
    1HEX  O16   4842   4.207  12.999   8.880
    1HEX  C17   4843   4.135  12.892   8.915
    1HEX  O18   4844   4.105  12.798   8.841
    1HEX  C19   4845   4.089  12.898   9.059
    1HEX  C1A   4846   4.006  13.026   9.081
    1HEX  H1C   4847   4.848  12.930   7.910
    1HEX  H1D   4848   4.599  12.838   7.979
    1HEX  H1E   4849   4.599  13.013   7.975
    1HEX  H1F   4850   4.604  13.017   8.228
    1HEX  H1G   4851   4.602  12.842   8.230
    1HEX  H1H   4852   4.177  12.988   8.141
    1HEX  H1I   4853   4.198  13.158   8.159
    1HEX  H1J   4854   4.330  13.203   8.394
    1HEX  H1K   4855   4.223  13.172   8.528
    1HEX  H1M   4856   4.010  13.551   8.386
    1HEX  H1N   4857   4.185  13.547   8.390
    1HEX  H1O   4858   4.176  13.574   8.645
    1HEX  H1P   4859   4.004  13.600   8.630
    1HEX  H1Q   4860   4.303  13.808   8.520
    1HEX  H1R   4861   3.979  13.145   8.304
    1HEX  H1S   4862   3.984  13.063   8.456
    1HEX  H1T   4863   4.011  12.743   8.133
    1HEX  H1U   4864   3.909  12.803   8.004
    1HEX  H1V   4865   3.706  12.773   8.154
    1HEX  H1W   4866   3.810  12.706   8.278
    1HEX  H1X   4867   3.788  12.559   7.954
    1HEX  H1Y   4868   4.206  12.845   8.351
    1HEX  H1Z   4869   4.153  12.895   8.500
    1HEX  H20   4870   4.437  13.090   8.526
    1HEX  H21   4871   4.530  12.952   8.551
    1HEX  H22   4872   4.372  12.763   8.707
    1HEX  H23   4873   4.390  12.827   8.867
    1HEX  H24   4874   4.798  12.742   8.742
    1HEX  H25   4875   4.824  12.709   8.913
    1HEX  H26   4876   4.829  12.993   8.795
    1HEX  H27   4877   4.973  12.897   8.825
    1HEX  H28   4878   4.796  13.070   9.006
    1HEX  H29   4879   4.465  13.186   8.742
    1HEX  H2A   4880   4.589  13.065   8.760
    1HEX  H2B   4881   4.480  13.019   9.162
    1HEX  H2C   4882   4.414  13.182   9.159
    1HEX  H2D   4883   4.645  13.271   9.223
    1HEX  H2E   4884   4.702  13.106   9.233
    1HEX  H2F   4885   4.424  13.264   9.423
    1HEX  H2G   4886   4.172  12.973   8.682
    1HEX  H2H   4887   4.231  13.128   8.731
    1HEX  H2I   4888   4.176  12.897   9.124
    1HEX  H2J   4889   4.030  12.809   9.081
    1HEX  H2K   4890   3.926  13.032   9.008
    1HEX  H2M   4891   4.068  13.114   9.067
    1HEX  H2N   4892   3.852  12.952   9.267
    1STR  S00   4893   4.814  12.936   8.039
    1STR  S0E   4894   4.182  13.770   8.561
    1STR  S0M   4895   3.799  12.557   8.087
    1STR  S0X   4896   4.919  13.018   8.996
    1STR  S14   4897   4.529  13.183   9.405
    1STR  S1B   4898   3.938  13.052   9.247
    1HEX  C01   4899   4.627  12.929  12.392
    1HEX  C02   4900   4.558  12.934  12.528
    1HEX  C03   4901   4.407  12.934  12.511
    1HEX  O04   4902   4.347  12.834  12.473
    1HEX  O05   4903   4.352  13.053  12.542
    1HEX  C06   4904   4.210  13.064  12.560
    1HEX  C07   4905   4.178  13.065  12.711
    1HEX  C08   4906   4.239  13.192  12.775
    1HEX  O09   4907   4.176  13.315  12.742
    1HEX  C0A   4908   4.109  13.383  12.837
    1HEX  O0B   4909   4.064  13.334  12.940
    1HEX  C0C   4910   4.100  13.532  12.808
    1HEX  C0D   4911   4.099  13.614  12.938
    1HEX  C0F   4912   4.025  13.072  12.735
    1HEX  O0G   4913   3.955  12.951  12.709
    1HEX  C0H   4914   3.870  12.943  12.606
    1HEX  O0I   4915   3.869  13.017  12.508
    1HEX  C0J   4916   3.766  12.833  12.624
    1HEX  C0K   4917   3.666  12.870  12.736
    1HEX  C0N   4918   4.232  12.934  12.778
    1HEX  O0O   4919   4.372  12.926  12.817
    1HEX  C0P   4920   4.434  13.000  12.924
    1HEX  C0Q   4921   4.401  12.965  13.072
    1HEX  C0R   4922   4.447  12.818  13.094
    1HEX  O0S   4923   4.587  12.807  13.065
    1HEX  C0T   4924   4.677  12.766  13.157
    1HEX  O0U   4925   4.652  12.726  13.270
    1HEX  C0V   4926   4.821  12.773  13.109
    1HEX  C0W   4927   4.892  12.898  13.164
    1HEX  C0Y   4928   4.483  13.057  13.168
    1HEX  O0Z   4929   4.438  13.030  13.301
    1HEX  C10   4930   4.515  12.970  13.391
    1HEX  O11   4931   4.635  12.989  13.405
    1HEX  C12   4932   4.433  12.881  13.487
    1HEX  C13   4933   4.410  12.732  13.443
    1HEX  C15   4934   4.250  12.991  13.102
    1HEX  O16   4935   4.203  12.965  13.234
    1HEX  C17   4936   4.121  12.862  13.259
    1HEX  O18   4937   4.094  12.770  13.182
    1HEX  C19   4938   4.056  12.872  13.396
    1HEX  C1A   4939   3.998  13.013  13.419
    1HEX  H1C   4940   4.846  12.930  12.271
    1HEX  H1D   4941   4.597  12.839  12.338
    1HEX  H1E   4942   4.597  13.014  12.331
    1HEX  H1F   4943   4.588  13.023  12.584
    1HEX  H1G   4944   4.585  12.848  12.589
    1HEX  H1H   4945   4.156  12.985  12.508
    1HEX  H1I   4946   4.177  13.157  12.514
    1HEX  H1J   4947   4.342  13.202  12.743
    1HEX  H1K   4948   4.239  13.181  12.883
    1HEX  H1M   4949   4.012  13.553  12.747
    1HEX  H1N   4950   4.187  13.558  12.749
    1HEX  H1O   4951   4.177  13.579  13.006
    1HEX  H1P   4952   4.004  13.600  12.990
    1HEX  H1Q   4953   4.303  13.805  12.881
    1HEX  H1R   4954   3.981  13.156  12.679
    1HEX  H1S   4955   4.004  13.096  12.839
    1HEX  H1T   4956   3.818  12.739  12.645
    1HEX  H1U   4957   3.715  12.821  12.529
    1HEX  H1V   4958   3.565  12.834  12.715
    1HEX  H1W   4959   3.696  12.832  12.833
    1HEX  H1Y   4960   4.222  12.856  12.703
    1HEX  H1Z   4961   4.163  12.893  12.850
    1HEX  H20   4962   4.434  13.108  12.909
    1HEX  H21   4963   4.540  12.979  12.908
    1HEX  H22   4964   4.391  12.750  13.030
    1HEX  H23   4965   4.423  12.786  13.195
    1HEX  H24   4966   4.823  12.769  13.001
    1HEX  H25   4967   4.871  12.684  13.147
    1HEX  H26   4968   4.845  12.989  13.127
    1HEX  H27   4969   4.997  12.899  13.135
    1HEX  H28   4970   4.822  13.013  13.361
    1HEX  H29   4971   4.464  13.162  13.147
    1HEX  H2A   4972   4.590  13.043  13.158
    1HEX  H2B   4973   4.338  12.933  13.499
    1HEX  H2C   4974   4.482  12.886  13.584
    1HEX  H2D   4975   4.335  12.682  13.504
    1HEX  H2E   4976   4.502  12.674  13.451
    1HEX  H2G   4977   4.186  12.936  13.037
    1HEX  H2H   4978   4.227  13.096  13.084
    1HEX  H2I   4979   4.131  12.849  13.471
    1HEX  H2J   4980   3.979  12.796  13.404
    1HEX  H2K   4981   3.925  13.036  13.341
    1HEX  H2M   4982   4.075  13.089  13.414
    1HEX  H2N   4983   3.852  12.952  13.617
    1STR  S00   4984   4.808  12.937  12.399
    1STR  S0E   4985   4.180  13.775  12.924
    1STR  S0M   4986   3.558  12.914  12.875
    1STR  S0X   4987   4.944  13.001  13.304
    1STR  S14   4988   4.380  12.557  13.385
    1STR  S1B   4989   3.954  13.035  13.593
    1HEX  C01   4990   9.135  17.227  16.843
    1HEX  C02   4991   9.083  17.153  16.967
    1HEX  C03   4992   8.935  17.139  16.950
    1HEX  O04   4993   8.881  17.030  16.932
    1HEX  O05   4994   8.878  17.259  16.946
    1HEX  C06   4995   8.741  17.269  16.917
    1HEX  C07   4996   8.662  17.300  17.044
    1HEX  C08   4997   8.707   0.009  17.093
    1HEX  O09   4998   8.641   0.137  17.079
    1HEX  C0A   4999   8.662   0.243  17.167
    1HEX  O0B   5000   8.724   0.238  17.273
    1HEX  C0C   5001   8.597   0.376  17.124
    1HEX  C0D   5002   8.549   0.468  17.239
    1HEX  C0F   5003   8.517  17.275  16.995
    1HEX  O0G   5004   8.472  17.154  16.935
    1HEX  C0H   5005   8.350  17.164  16.873
    1HEX  O0I   5006   8.279  17.264  16.869
    1HEX  C0J   5007   8.302  17.038  16.804
    1HEX  C0K   5008   8.164  16.998  16.860
    1HEX  C0N   5009   8.682  17.189  17.153
    1HEX  O0O   5010   8.807  17.178  17.220
    1HEX  C0P   5011   8.855  17.283  17.303
    1HEX  C0Q   5012   8.775  17.325  17.433
    1HEX  C0R   5013   8.782  17.200   0.089
    1HEX  O0S   5014   8.915  17.145   0.092
    1HEX  C0T   5015   9.003  17.168   0.192
    1HEX  O0U   5016   8.975  17.210   0.304
    1HEX  C0V   5017   9.148  17.138   0.152
    1HEX  C0W   5018   9.237  17.264   0.151
    1HEX  C0Y   5019   8.864  17.435   0.056
    1HEX  O0Z   5020   8.825   0.019   0.190
    1HEX  C10   5021   8.915   0.067   0.278
    1HEX  O11   5022   9.026   0.112   0.249
    1HEX  C12   5023   8.866   0.054   0.421
    1HEX  C13   5024   8.973   0.092   0.524
    1HEX  C15   5025   8.629  17.394  17.421
    1HEX  O16   5026   8.514  17.322  17.371
    1HEX  C17   5027   8.404  17.363  17.289
    1HEX  O18   5028   8.312  17.283  17.272
    1HEX  C19   5029   8.388   0.064  17.218
    1HEX  C1A   5030   8.388   0.091  17.055
    1HEX  H1C   5031   9.237  17.291  16.664
    1HEX  H1D   5032   9.099  17.174  16.754
    1HEX  H1E   5033   9.092  17.327  16.838
    1HEX  H1F   5034   9.103  17.209  17.058
    1HEX  H1G   5035   9.127  17.054  16.977
    1HEX  H1H   5036   8.704  17.180  16.866
    1HEX  H1I   5037   8.728  17.350  16.845
    1HEX  H1J   5038   8.805   0.030  17.051
    1HEX  H1K   5039   8.722   0.007  17.197
    1HEX  H1M   5040   8.518   0.362  17.051
    1HEX  H1N   5041   8.676   0.429  17.071
    1HEX  H1O   5042   8.614   0.467  17.327
    1HEX  H1P   5043   8.446   0.449  17.271
    1HEX  H1Q   5044   8.659   0.724  17.251
    1HEX  H1R   5045   8.508  17.338  16.910
    1HEX  H1S   5046   8.442  17.296  17.067
    1HEX  H1T   5047   8.375  16.959  16.818
    1HEX  H1U   5048   8.295  17.059  16.698
    1HEX  H1V   5049   8.091  17.077  16.841
    1HEX  H1W   5050   8.169  16.987  16.968
    1HEX  H1X   5051   8.111  16.901  16.672
    1HEX  H1Y   5052   8.669  17.093  17.103
    1HEX  H1Z   5053   8.603  17.185  17.225
    1HEX  H20   5054   8.895  17.366  17.245
    1HEX  H21   5055   8.952  17.241  17.332
    1HEX  H22   5056   8.716  17.122   0.052
    1HEX  H23   5057   8.748  17.224   0.190
    1HEX  H24   5058   9.148  17.091   0.054
    1HEX  H25   5059   9.189  17.065   0.222
    1HEX  H26   5060   9.196  17.342   0.087
    1HEX  H27   5061   9.337  17.241   0.115
    1HEX  H28   5062   9.178  17.427   0.295
    1HEX  H29   5063   8.859   0.089   0.000
    1HEX  H2A   5064   8.969  17.406   0.054
    1HEX  H2B   5065   8.835  17.391   0.437
    1HEX  H2C   5066   8.777   0.117   0.431
    1HEX  H2D   5067   9.011   0.193   0.505
    1HEX  H2E   5068   9.059   0.025   0.515
    1HEX  H2F   5069   8.783   0.187   0.699
    1HEX  H2G   5070   8.632   0.049  17.371
    1HEX  H2H   5071   8.601  17.424   0.082
    1HEX  H2I   5072   8.448   0.136  17.273
    1HEX  H2J   5073   8.286   0.088  17.250
    1HEX  H2K   5074   8.304   0.040  17.008
    1HEX  H2M   5075   8.376   0.196  17.033
    1STR  S00   5076   9.299  17.238  16.769
    1STR  S0E   5077   8.549   0.649  17.260
    1STR  S0M   5078   8.114  16.839  16.790
    1STR  S0X   5079   9.302  17.378   0.275
    1STR  S14   5080   8.885   0.104   0.683
    1STR  S1B   5081   8.438   0.122  16.867
    1HEX  C01   5082   8.993  17.286   3.672
    1HEX  C02   5083   8.932  17.289   3.813
    1HEX  C03   5084   8.780  17.289   3.804
    1HEX  O04   5085   8.719  17.190   3.766
    1HEX  O05   5086   8.727  17.408   3.838
    1HEX  C06   5087   8.585  17.422   3.844
    1HEX  C07   5088   8.536  17.417   3.990
    1HEX  C08   5089   8.586   0.105   4.061
    1HEX  O09   5090   8.521   0.226   4.024
    1HEX  C0A   5091   8.458   0.296   4.119
    1HEX  O0B   5092   8.410   0.251   4.222
    1HEX  C0C   5093   8.456   0.446   4.088
    1HEX  C0D   5094   8.459   0.529   4.217
    1HEX  C0F   5095   8.381  17.416   3.993
    1HEX  O0G   5096   8.332  17.296   3.935
    1HEX  C0H   5097   8.286  17.295   3.810
    1HEX  O0I   5098   8.258  17.393   3.742
    1HEX  C0J   5099   8.277  17.154   3.752
    1HEX  C0K   5100   8.158  17.077   3.811
    1HEX  C0N   5101   8.582  17.285   4.062
    1HEX  O0O   5102   8.718  17.265   4.104
    1HEX  C0P   5103   8.787  17.347   4.200
    1HEX  C0Q   5104   8.752  17.340   4.352
    1HEX  C0R   5105   8.786  17.198   4.405
    1HEX  O0S   5106   8.926  17.172   4.398
    1HEX  C0T   5107   9.000  17.167   4.511
    1HEX  O0U   5108   8.959  17.180   4.626
    1HEX  C0V   5109   9.148  17.144   4.482
    1HEX  C0W   5110   9.230  17.272   4.497
    1HEX  C0Y   5111   8.844   0.005   4.420
    1HEX  O0Z   5112   8.820   0.005   4.559
    1HEX  C10   5113   8.908   0.060   4.641
    1HEX  O11   5114   9.012   0.117   4.608
    1HEX  C12   5115   8.865   0.043   4.786
    1HEX  C13   5116   8.974   0.088   4.885
    1HEX  C15   5117   8.605  17.380   4.385
    1HEX  O16   5118   8.567  17.359   4.520
    1HEX  C17   5119   8.495  17.251   4.555
    1HEX  O18   5120   8.465  17.157   4.481
    1HEX  C19   5121   8.449  17.258   4.699
    1HEX  C1A   5122   8.366  17.385   4.721
    1HEX  H1C   5123   9.208  17.290   3.550
    1HEX  H1D   5124   8.959  17.198   3.619
    1HEX  H1E   5125   8.959  17.373   3.615
    1HEX  H1F   5126   8.964  17.377   3.868
    1HEX  H1G   5127   8.962  17.201   3.870
    1HEX  H1H   5128   8.537  17.347   3.781
    1HEX  H1I   5129   8.558   0.078   3.799
    1HEX  H1J   5130   8.690   0.122   4.034
    1HEX  H1K   5131   8.583   0.091   4.168
    1HEX  H1M   5132   8.370   0.471   4.026
    1HEX  H1N   5133   8.545   0.467   4.030
    1HEX  H1O   5134   8.536   0.493   4.285
    1HEX  H1P   5135   8.364   0.520   4.270
    1HEX  H1Q   5136   8.663   0.727   4.160
    1HEX  H1R   5137   8.339   0.065   3.944
    1HEX  H1S   5138   8.344  17.422   4.096
    1HEX  H1T   5139   8.371  17.103   3.773
    1HEX  H1U   5140   8.269  17.162   3.644
    1HEX  H1V   5141   8.066  17.132   3.794
    1HEX  H1W   5142   8.170  17.066   3.918
    1HEX  H1X   5143   8.148  16.918   3.594
    1HEX  H1Y   5144   8.566  17.204   3.991
    1HEX  H1Z   5145   8.513  17.254   4.140
    1HEX  H20   5146   8.797   0.009   4.166
    1HEX  H21   5147   8.890  17.311   4.191
    1HEX  H22   5148   8.732  17.123   4.347
    1HEX  H23   5149   8.750  17.187   4.507
    1HEX  H24   5150   9.158  17.102   4.382
    1HEX  H25   5151   9.185  17.069   4.553
    1HEX  H26   5152   9.189  17.352   4.435
    1HEX  H27   5153   9.333  17.257   4.465
    1HEX  H28   5154   9.156  17.429   4.647
    1HEX  H29   5155   8.825   0.106   4.382
    1HEX  H2A   5156   8.949  17.424   4.400
    1HEX  H2B   5157   8.841  17.378   4.802
    1HEX  H2C   5158   8.773   0.101   4.799
    1HEX  H2D   5159   9.005   0.190   4.863
    1HEX  H2E   5160   9.063   0.026   4.873
    1HEX  H2F   5161   8.783   0.183   5.063
    1HEX  H2G   5162   8.532  17.332   4.322
    1HEX  H2H   5163   8.591   0.047   4.371
    1HEX  H2I   5164   8.536  17.256   4.764
    1HEX  H2J   5165   8.390  17.169   4.721
    1HEX  H2K   5166   8.285  17.391   4.648
    1HEX  H2M   5167   8.428   0.034   4.707
    1HEX  H2N   5168   8.212  17.311   4.907
    1STR  S00   5169   9.174  17.296   3.679
    1STR  S0E   5170   8.542   0.689   4.201
    1STR  S0M   5171   8.159  16.916   3.727
    1STR  S0X   5172   9.279  17.378   4.636
    1STR  S14   5173   8.889   0.103   5.045
    1STR  S1B   5174   8.298  17.411   4.887
    1HEX  C01   5175   8.993  17.286   8.032
    1HEX  C02   5176   8.932  17.289   8.173
    1HEX  C03   5177   8.780  17.289   8.164
    1HEX  O04   5178   8.719  17.190   8.126
    1HEX  O05   5179   8.727  17.408   8.198
    1HEX  C06   5180   8.585  17.422   8.204
    1HEX  C07   5181   8.536  17.417   8.350
    1HEX  C08   5182   8.586   0.105   8.421
    1HEX  O09   5183   8.521   0.226   8.384
    1HEX  C0A   5184   8.458   0.296   8.479
    1HEX  O0B   5185   8.410   0.251   8.583
    1HEX  C0C   5186   8.456   0.446   8.448
    1HEX  C0D   5187   8.458   0.529   8.577
    1HEX  C0F   5188   8.381  17.416   8.353
    1HEX  O0G   5189   8.332  17.296   8.295
    1HEX  C0H   5190   8.286  17.295   8.170
    1HEX  O0I   5191   8.258  17.393   8.102
    1HEX  C0J   5192   8.277  17.154   8.112
    1HEX  C0K   5193   8.158  17.077   8.171
    1HEX  C0N   5194   8.582  17.285   8.422
    1HEX  O0O   5195   8.718  17.265   8.464
    1HEX  C0P   5196   8.787  17.347   8.560
    1HEX  C0Q   5197   8.752  17.340   8.712
    1HEX  C0R   5198   8.786  17.198   8.765
    1HEX  O0S   5199   8.926  17.172   8.758
    1HEX  C0T   5200   9.000  17.167   8.871
    1HEX  O0U   5201   8.959  17.180   8.986
    1HEX  C0V   5202   9.148  17.144   8.842
    1HEX  C0W   5203   9.230  17.272   8.857
    1HEX  C0Y   5204   8.844   0.005   8.780
    1HEX  O0Z   5205   8.820   0.005   8.919
    1HEX  C10   5206   8.908   0.060   9.001
    1HEX  O11   5207   9.012   0.117   8.968
    1HEX  C12   5208   8.865   0.043   9.146
    1HEX  C13   5209   8.974   0.088   9.245
    1HEX  C15   5210   8.605  17.380   8.745
    1HEX  O16   5211   8.567  17.359   8.880
    1HEX  C17   5212   8.495  17.251   8.915
    1HEX  O18   5213   8.465  17.157   8.841
    1HEX  C19   5214   8.449  17.258   9.059
    1HEX  C1A   5215   8.366  17.385   9.081
    1HEX  H1C   5216   9.208  17.290   7.910
    1HEX  H1D   5217   8.959  17.198   7.979
    1HEX  H1E   5218   8.959  17.373   7.975
    1HEX  H1F   5219   8.964  17.377   8.228
    1HEX  H1G   5220   8.962  17.201   8.230
    1HEX  H1H   5221   8.537  17.347   8.141
    1HEX  H1I   5222   8.558   0.078   8.159
    1HEX  H1J   5223   8.690   0.122   8.394
    1HEX  H1K   5224   8.583   0.091   8.528
    1HEX  H1M   5225   8.370   0.471   8.386
    1HEX  H1N   5226   8.545   0.467   8.390
    1HEX  H1O   5227   8.536   0.493   8.645
    1HEX  H1P   5228   8.364   0.520   8.630
    1HEX  H1Q   5229   8.663   0.727   8.520
    1HEX  H1R   5230   8.339   0.065   8.304
    1HEX  H1S   5231   8.344  17.422   8.456
    1HEX  H1T   5232   8.371  17.103   8.133
    1HEX  H1U   5233   8.269  17.162   8.004
    1HEX  H1V   5234   8.066  17.132   8.154
    1HEX  H1W   5235   8.170  17.066   8.278
    1HEX  H1X   5236   8.148  16.918   7.954
    1HEX  H1Y   5237   8.566  17.204   8.351
    1HEX  H1Z   5238   8.513  17.254   8.500
    1HEX  H20   5239   8.797   0.009   8.526
    1HEX  H21   5240   8.890  17.311   8.551
    1HEX  H22   5241   8.732  17.123   8.707
    1HEX  H23   5242   8.750  17.187   8.867
    1HEX  H24   5243   9.158  17.102   8.742
    1HEX  H25   5244   9.185  17.069   8.913
    1HEX  H26   5245   9.188  17.352   8.795
    1HEX  H27   5246   9.333  17.257   8.825
    1HEX  H28   5247   9.156  17.429   9.007
    1HEX  H29   5248   8.825   0.106   8.742
    1HEX  H2A   5249   8.949  17.424   8.760
    1HEX  H2B   5250   8.841  17.378   9.162
    1HEX  H2C   5251   8.773   0.101   9.159
    1HEX  H2D   5252   9.005   0.190   9.223
    1HEX  H2E   5253   9.063   0.026   9.233
    1HEX  H2F   5254   8.783   0.183   9.423
    1HEX  H2G   5255   8.532  17.332   8.682
    1HEX  H2H   5256   8.591   0.047   8.731
    1HEX  H2I   5257   8.536  17.256   9.124
    1HEX  H2J   5258   8.390  17.169   9.081
    1HEX  H2K   5259   8.285  17.391   9.008
    1HEX  H2M   5260   8.428   0.034   9.067
    1HEX  H2N   5261   8.212  17.311   9.267
    1STR  S00   5262   9.174  17.296   8.039
    1STR  S0E   5263   8.542   0.689   8.561
    1STR  S0M   5264   8.159  16.916   8.087
    1STR  S0X   5265   9.279  17.378   8.996
    1STR  S14   5266   8.889   0.103   9.405
    1STR  S1B   5267   8.299  17.411   9.247
    1HEX  C01   5268   8.949  17.297  12.397
    1HEX  C02   5269   8.879  17.306  12.534
    1HEX  C03   5270   8.727  17.289  12.529
    1HEX  O04   5271   8.675  17.187  12.485
    1HEX  O05   5272   8.660  17.393  12.584
    1HEX  C06   5273   8.529  17.380  12.644
    1HEX  C07   5274   8.543  17.395  12.801
    1HEX  C08   5275   8.598   0.104  12.808
    1HEX  O09   5276   8.513   0.210  12.765
    1HEX  C0A   5277   8.463   0.294  12.857
    1HEX  O0B   5278   8.430   0.261  12.971
    1HEX  C0C   5279   8.461   0.440  12.812
    1HEX  C0D   5280   8.463   0.536  12.932
    1HEX  C0F   5281   8.411  17.365  12.892
    1HEX  O0G   5282   8.429  17.325  13.037
    1HEX  C0H   5283   8.386  17.202  13.095
    1HEX  O0I   5284   8.311  17.131  13.028
    1HEX  C0J   5285   8.449  17.130  13.229
    1HEX  C0K   5286   8.493  17.155  13.389
    1HEX  C0N   5287   8.640  17.280  12.842
    1HEX  O0O   5288   8.780  17.301  12.836
    1HEX  C0P   5289   8.843  17.392  12.927
    1HEX  C0Q   5290   8.812  17.390  13.080
    1HEX  C0R   5291   8.843  17.247  13.132
    1HEX  O0S   5292   8.981  17.217  13.126
    1HEX  C0T   5293   9.043  17.175  13.236
    1HEX  O0U   5294   8.994  17.161  13.348
    1HEX  C0V   5295   9.188  17.146  13.209
    1HEX  C0W   5296   9.271  17.275  13.218
    1HEX  C0Y   5297   8.904   0.058  13.139
    1HEX  O0Z   5298   8.879   0.067  13.276
    1HEX  C10   5299   8.974   0.082  13.365
    1HEX  O11   5300   9.091   0.108  13.341
    1HEX  C12   5301   8.919   0.060  13.504
    1HEX  C13   5302   9.005   0.128  13.611
    1HEX  C15   5303   8.664  17.419  13.121
    1HEX  O16   5304   8.620   0.066  13.225
    1HEX  C17   5305   8.609   0.015  13.348
    1HEX  O18   5306   8.679  17.365  13.389
    1HEX  C19   5307   8.500   0.077  13.436
    1HEX  C1A   5308   8.365   0.095  13.364
    1HEX  H1C   5309   9.200  17.288  12.280
    1HEX  H1D   5310   8.924  17.204  12.346
    1HEX  H1E   5311   8.922  17.380  12.333
    1HEX  H1F   5312   8.905  17.399  12.584
    1HEX  H1G   5313   8.917  17.226  12.598
    1HEX  H1H   5314   8.481  17.288  12.612
    1HEX  H1I   5315   8.468   0.021  12.601
    1HEX  H1J   5316   8.685   0.115  12.743
    1HEX  H1K   5317   8.642   0.139  12.901
    1HEX  H1M   5318   8.376   0.459  12.747
    1HEX  H1N   5319   8.551   0.457  12.753
    1HEX  H1O   5320   8.541   0.508  13.003
    1HEX  H1P   5321   8.368   0.530  12.986
    1HEX  H1Q   5322   8.665   0.728  12.880
    1HEX  H1R   5323   8.351  17.290  12.841
    1HEX  H1S   5324   8.348   0.015  12.889
    1HEX  H1T   5325   8.528  17.069  13.186
    1HEX  H1U   5326   8.368  17.058  13.242
    1HEX  H1V   5327   8.417  17.211  13.443
    1HEX  H1W   5328   8.504  17.060  13.442
    1HEX  H1Y   5329   8.621  17.196  12.774
    1HEX  H1Z   5330   8.616  17.235  12.937
    1HEX  H20   5331   8.839   0.053  12.887
    1HEX  H21   5332   8.948  17.367  12.915
    1HEX  H22   5333   8.792  17.172  13.071
    1HEX  H23   5334   8.803  17.232  13.232
    1HEX  H24   5335   9.195  17.102  13.110
    1HEX  H25   5336   9.223  17.072  13.281
    1HEX  H26   5337   9.223  17.356  13.163
    1HEX  H27   5338   9.370  17.260  13.174
    1HEX  H28   5339   9.203  17.414  13.374
    1HEX  H29   5340   8.882   0.156  13.095
    1HEX  H2A   5341   9.008   0.036  13.118
    1HEX  H2B   5342   8.908  17.393  13.521
    1HEX  H2C   5343   8.819   0.101  13.504
    1HEX  H2D   5344   9.024   0.231  13.582
    1HEX  H2E   5345   9.102   0.078  13.614
    1HEX  H2F   5346   8.772   0.244  13.762
    1HEX  H2G   5347   8.621  17.323  13.145
    1HEX  H2H   5348   8.608   0.015  13.040
    1HEX  H2I   5349   8.536   0.169  13.480
    1HEX  H2J   5350   8.488   0.008  13.519
    1HEX  H2K   5351   8.336   0.006  13.309
    1HEX  H2M   5352   8.371   0.177  13.292
    1HEX  H2N   5353   8.209  17.385  13.561
    1STR  S00   5354   9.131  17.298  12.394
    1STR  S0E   5355   8.540   0.699  12.917
    1STR  S0M   5356   8.546  17.185  13.580
    1STR  S0X   5357   9.320  17.347  13.376
    1STR  S14   5358   8.889   0.183  13.740
    1STR  S1B   5359   8.231   0.046  13.477
    1HEX  C01   5360   8.993   4.206  16.752
    1HEX  C02   5361   8.932   4.209  16.893
    1HEX  C03   5362   8.780   4.209  16.884
    1HEX  O04   5363   8.718   4.110  16.846
    1HEX  O05   5364   8.727   4.328  16.918
    1HEX  C06   5365   8.586   4.342  16.924
    1HEX  C07   5366   8.536   4.337  17.070
    1HEX  C08   5367   8.586   4.465  17.141
    1HEX  O09   5368   8.521   4.586  17.104
    1HEX  C0A   5369   8.458   4.657  17.199
    1HEX  O0B   5370   8.410   4.611  17.302
    1HEX  C0C   5371   8.456   4.806  17.168
    1HEX  C0D   5372   8.458   4.889  17.297
    1HEX  C0F   5373   8.381   4.337  17.073
    1HEX  O0G   5374   8.332   4.216  17.015
    1HEX  C0H   5375   8.286   4.215  16.890
    1HEX  O0I   5376   8.258   4.314  16.822
    1HEX  C0J   5377   8.277   4.075  16.832
    1HEX  C0K   5378   8.158   3.998  16.891
    1HEX  C0N   5379   8.582   4.205  17.142
    1HEX  O0O   5380   8.718   4.185  17.184
    1HEX  C0P   5381   8.787   4.267  17.280
    1HEX  C0Q   5382   8.752   4.261  17.432
    1HEX  C0R   5383   8.786   4.119   0.045
    1HEX  O0S   5384   8.926   4.092   0.038
    1HEX  C0T   5385   9.000   4.087   0.151
    1HEX  O0U   5386   8.959   4.100   0.266
    1HEX  C0V   5387   9.148   4.064   0.122
    1HEX  C0W   5388   9.230   4.193   0.137
    1HEX  C0Y   5389   8.844   4.365   0.060
    1HEX  O0Z   5390   8.820   4.365   0.199
    1HEX  C10   5391   8.908   4.420   0.281
    1HEX  O11   5392   9.012   4.477   0.248
    1HEX  C12   5393   8.865   4.404   0.426
    1HEX  C13   5394   8.974   4.448   0.525
    1HEX  C15   5395   8.605   4.301   0.025
    1HEX  O16   5396   8.567   4.279   0.160
    1HEX  C17   5397   8.495   4.171   0.195
    1HEX  O18   5398   8.465   4.078   0.121
    1HEX  C19   5399   8.449   4.178   0.339
    1HEX  C1A   5400   8.366   4.305   0.361
    1HEX  H1C   5401   9.208   4.209  16.630
    1HEX  H1D   5402   8.959   4.117  16.699
    1HEX  H1E   5403   8.959   4.292  16.695
    1HEX  H1F   5404   8.964   4.296  16.948
    1HEX  H1G   5405   8.962   4.121  16.950
    1HEX  H1H   5406   8.537   4.268  16.861
    1HEX  H1I   5407   8.558   4.438  16.879
    1HEX  H1J   5408   8.690   4.482  17.114
    1HEX  H1K   5409   8.583   4.452  17.248
    1HEX  H1M   5410   8.370   4.831  17.106
    1HEX  H1N   5411   8.545   4.827  17.110
    1HEX  H1O   5412   8.536   4.853  17.365
    1HEX  H1P   5413   8.364   4.880  17.350
    1HEX  H1Q   5414   8.663   5.087  17.240
    1HEX  H1R   5415   8.339   4.425  17.024
    1HEX  H1S   5416   8.344   4.343  17.176
    1HEX  H1T   5417   8.371   4.023  16.853
    1HEX  H1U   5418   8.269   4.083  16.724
    1HEX  H1V   5419   8.066   4.053  16.874
    1HEX  H1W   5420   8.170   3.986  16.998
    1HEX  H1X   5421   8.148   3.839  16.674
    1HEX  H1Y   5422   8.566   4.124  17.071
    1HEX  H1Z   5423   8.513   4.175  17.220
    1HEX  H20   5424   8.797   4.369  17.246
    1HEX  H21   5425   8.890   4.231  17.271
    1HEX  H22   5426   8.732   4.043  17.427
    1HEX  H23   5427   8.750   4.107   0.147
    1HEX  H24   5428   9.158   4.022   0.022
    1HEX  H25   5429   9.185   3.989   0.193
    1HEX  H26   5430   9.189   4.273   0.075
    1HEX  H27   5431   9.333   4.177   0.105
    1HEX  H28   5432   9.156   4.350   0.286
    1HEX  H29   5433   8.825   4.466   0.022
    1HEX  H2A   5434   8.949   4.345   0.040
    1HEX  H2B   5435   8.840   4.299   0.442
    1HEX  H2C   5436   8.773   4.462   0.439
    1HEX  H2D   5437   9.005   4.551   0.503
    1HEX  H2E   5438   9.062   4.386   0.513
    1HEX  H2F   5439   8.784   4.544   0.703
    1HEX  H2G   5440   8.532   4.253  17.402
    1HEX  H2H   5441   8.591   4.408   0.011
    1HEX  H2I   5442   8.536   4.177   0.404
    1HEX  H2J   5443   8.390   4.089   0.361
    1HEX  H2K   5444   8.286   4.311   0.288
    1HEX  H2M   5445   8.428   4.394   0.348
    1HEX  H2N   5446   8.212   4.232   0.547
    1STR  S00   5447   9.173   4.215  16.759
    1STR  S0E   5448   8.542   5.049  17.281
    1STR  S0M   5449   8.159   3.837  16.807
    1STR  S0X   5450   9.279   4.298   0.276
    1STR  S14   5451   8.889   4.463   0.685
    1STR  S1B   5452   8.299   4.332   0.527
    1HEX  C01   5453   8.385   4.480   3.840
    1HEX  C02   5454   8.543   4.497   3.824
    1HEX  C03   5455   8.640   4.378   3.813
    1HEX  O04   5456   8.717   4.367   3.719
    1HEX  O05   5457   8.644   4.300   3.921
    1HEX  C06   5458   8.536   4.212   3.935
    1HEX  C07   5459   8.478   4.205   4.077
    1HEX  C08   5460   8.475   4.340   4.157
    1HEX  O09   5461   8.452   4.469   4.101
    1HEX  C0A   5462   8.457   4.576   4.186
    1HEX  O0B   5463   8.461   4.568   4.308
    1HEX  C0C   5464   8.465   4.711   4.115
    1HEX  C0D   5465   8.468   4.830   4.213
    1HEX  C0F   5466   8.331   4.153   4.067
    1HEX  O0G   5467   8.311   4.045   3.976
    1HEX  C0H   5468   8.271   4.066   3.847
    1HEX  O0I   5469   8.258   4.174   3.791
    1HEX  C0J   5470   8.245   3.939   3.770
    1HEX  C0K   5471   8.107   3.882   3.805
    1HEX  C0N   5472   8.563   4.098   4.154
    1HEX  O0O   5473   8.707   4.112   4.160
    1HEX  C0P   5474   8.779   4.223   4.219
    1HEX  C0Q   5475   8.771   4.244   4.374
    1HEX  C0R   5476   8.821   4.114   4.442
    1HEX  O0S   5477   8.962   4.096   4.420
    1HEX  C0T   5478   9.049   4.107   4.522
    1HEX  O0U   5479   9.020   4.128   4.640
    1HEX  C0V   5480   9.194   4.089   4.479
    1HEX  C0W   5481   9.276   4.220   4.487
    1HEX  C0Y   5482   8.861   4.363   4.415
    1HEX  O0Z   5483   8.836   4.385   4.553
    1HEX  C10   5484   8.927   4.428   4.637
    1HEX  O11   5485   9.038   4.473   4.607
    1HEX  C12   5486   8.877   4.415   4.780
    1HEX  C13   5487   8.981   4.456   4.884
    1HEX  C15   5488   8.628   4.281   4.424
    1HEX  O16   5489   8.597   4.252   4.560
    1HEX  C17   5490   8.509   4.156   4.588
    1HEX  O18   5491   8.472   4.066   4.513
    1HEX  C19   5492   8.448   4.174   4.726
    1HEX  C1A   5493   8.366   4.304   4.728
    1HEX  H1D   5494   8.341   4.440   3.748
    1HEX  H1E   5495   8.336   4.573   3.865
    1HEX  H1F   5496   8.583   4.549   3.910
    1HEX  H1G   5497   8.566   4.561   3.739
    1HEX  H1H   5498   8.563   4.113   3.898
    1HEX  H1I   5499   8.459   4.245   3.867
    1HEX  H1J   5500   8.573   4.358   4.195
    1HEX  H1K   5501   8.407   4.330   4.242
    1HEX  H1M   5502   8.382   4.722   4.045
    1HEX  H1N   5503   8.558   4.713   4.058
    1HEX  H1O   5504   8.544   4.816   4.290
    1HEX  H1P   5505   8.372   4.841   4.263
    1HEX  H1Q   5506   8.648   5.073   4.159
    1HEX  H1R   5507   8.264   4.235   4.042
    1HEX  H1S   5508   8.297   4.121   4.165
    1HEX  H1T   5509   8.326   3.869   3.788
    1HEX  H1U   5510   8.248   3.967   3.664
    1HEX  H1V   5511   8.028   3.954   3.784
    1HEX  H1W   5512   8.102   3.861   3.912
    1HEX  H1X   5513   8.123   3.813   3.574
    1HEX  H1Y   5514   8.550   4.003   4.101
    1HEX  H1Z   5515   8.522   4.072   4.252
    1HEX  H20   5516   8.766   4.315   4.161
    1HEX  H21   5517   8.883   4.200   4.196
    1HEX  H22   5518   8.768   4.028   4.401
    1HEX  H23   5519   8.798   4.115   4.548
    1HEX  H24   5520   9.195   4.049   4.377
    1HEX  H25   5521   9.238   4.013   4.543
    1HEX  H26   5522   9.229   4.301   4.432
    1HEX  H27   5523   9.377   4.207   4.448
    1HEX  H29   5524   8.836   4.455   4.361
    1HEX  H2A   5525   8.967   4.344   4.396
    1HEX  H2B   5526   8.848   4.311   4.794
    1HEX  H2C   5527   8.786   4.475   4.788
    1HEX  H2D   5528   9.015   4.558   4.865
    1HEX  H2E   5529   9.069   4.392   4.874
    1HEX  H2F   5530   8.785   4.541   5.060
    1HEX  H2G   5531   8.552   4.233   4.366
    1HEX  H2H   5532   8.611   4.388   4.411
    1HEX  H2I   5533   8.528   4.176   4.799
    1HEX  H2J   5534   8.385   4.088   4.748
    1HEX  H2K   5535   8.292   4.303   4.648
    1HEX  H2M   5536   8.430   4.390   4.710
    1HEX  H2N   5537   8.209   4.233   4.908
    1STR  S00   5538   8.209   4.460   3.908
    1STR  S0E   5539   8.546   4.992   4.187
    1STR  S0M   5540   8.098   3.745   3.687
    1STR  S0X   5541   9.439   4.286   4.440
    1STR  S14   5542   8.891   4.461   5.042
    1STR  S1B   5543   8.294   4.334   4.891
    1HEX  C01   5544   9.037   4.301   7.920
    1HEX  C02   5545   8.987   4.310   8.065
    1HEX  C03   5546   8.855   4.384   8.083
    1HEX  O04   5547   8.797   4.440   7.990
    1HEX  O05   5548   8.810   4.374   8.210
    1HEX  C06   5549   8.681   4.421   8.242
    1HEX  C07   5550   8.604   4.343   8.354
    1HEX  C08   5551   8.527   4.452   8.439
    1HEX  O09   5552   8.482   4.576   8.385
    1HEX  C0A   5553   8.430   4.665   8.475
    1HEX  O0B   5554   8.379   4.633   8.583
    1HEX  C0C   5555   8.449   4.812   8.440
    1HEX  C0D   5556   8.461   4.899   8.567
    1HEX  C0F   5557   8.525   4.227   8.285
    1HEX  O0G   5558   8.610   4.109   8.268
    1HEX  C0H   5559   8.736   4.107   8.206
    1HEX  O0I   5560   8.745   4.122   8.085
    1HEX  C0J   5561   8.857   4.047   8.291
    1HEX  C0K   5562   9.005   4.111   8.324
    1HEX  C0N   5563   8.676   4.263   8.468
    1HEX  O0O   5564   8.808   4.294   8.497
    1HEX  C0P   5565   8.829   4.370   8.613
    1HEX  C0Q   5566   8.775   4.320   8.752
    1HEX  C0R   5567   8.800   4.168   8.773
    1HEX  O0S   5568   8.938   4.133   8.761
    1HEX  C0T   5569   9.010   4.102   8.870
    1HEX  O0U   5570   8.969   4.097   8.986
    1HEX  C0V   5571   9.155   4.073   8.837
    1HEX  C0W   5572   9.240   4.200   8.846
    1HEX  C0Y   5573   8.865   4.403   8.844
    1HEX  O0Z   5574   8.837   4.380   8.980
    1HEX  C10   5575   8.921   4.431   9.067
    1HEX  O11   5576   9.023   4.494   9.040
    1HEX  C12   5577   8.876   4.403   9.208
    1HEX  C13   5578   8.983   4.448   9.309
    1HEX  C15   5579   8.626   4.358   8.786
    1HEX  O16   5580   8.582   4.317   8.916
    1HEX  C17   5581   8.514   4.202   8.933
    1HEX  O18   5582   8.495   4.115   8.847
    1HEX  C19   5583   8.452   4.190   9.072
    1HEX  C1A   5584   8.357   4.308   9.096
    1HEX  H1C   5585   9.231   4.202   7.825
    1HEX  H1D   5586   8.989   4.217   7.870
    1HEX  H1E   5587   9.011   4.391   7.864
    1HEX  H1F   5588   9.058   4.357   8.132
    1HEX  H1G   5589   8.971   4.209   8.099
    1HEX  H1H   5590   8.619   4.416   8.152
    1HEX  H1I   5591   8.688   4.528   8.261
    1HEX  H1J   5592   8.603   4.492   8.506
    1HEX  H1K   5593   8.452   4.409   8.505
    1HEX  H1M   5594   8.368   4.848   8.377
    1HEX  H1N   5595   8.541   4.822   8.382
    1HEX  H1O   5596   8.534   4.858   8.636
    1HEX  H1P   5597   8.366   4.903   8.621
    1HEX  H1Q   5598   8.668   5.089   8.518
    1HEX  H1R   5599   8.476   4.257   8.192
    1HEX  H1S   5600   8.442   4.199   8.350
    1HEX  H1T   5601   8.877   3.957   8.233
    1HEX  H1U   5602   8.814   4.007   8.382
    1HEX  H1V   5603   9.086   4.042   8.302
    1HEX  H1W   5604   9.012   4.139   8.429
    1HEX  H1Y   5605   8.682   4.156   8.461
    1HEX  H1Z   5606   8.611   4.256   8.552
    1HEX  H20   5607   8.804   4.474   8.594
    1HEX  H21   5608   8.938   4.368   8.614
    1HEX  H22   5609   8.743   4.108   8.703
    1HEX  H23   5610   8.763   4.137   8.871
    1HEX  H24   5611   9.160   4.029   8.737
    1HEX  H25   5612   9.192   3.998   8.907
    1HEX  H26   5613   9.198   4.278   8.782
    1HEX  H27   5614   9.342   4.180   8.811
    1HEX  H28   5615   9.166   4.353   9.023
    1HEX  H29   5616   8.853   4.509   8.825
    1HEX  H2A   5617   8.970   4.380   8.826
    1HEX  H2B   5618   8.856   4.296   9.217
    1HEX  H2C   5619   8.782   4.456   9.220
    1HEX  H2D   5620   9.009   4.552   9.291
    1HEX  H2E   5621   9.075   4.391   9.290
    1HEX  H2F   5622   8.788   4.549   9.432
    1HEX  H2G   5623   8.548   4.320   8.721
    1HEX  H2H   5624   8.614   4.466   8.781
    1HEX  H2I   5625   8.533   4.190   9.145
    1HEX  H2J   5626   8.400   4.095   9.081
    1HEX  H2K   5627   8.281   4.311   9.017
    1HEX  H2M   5628   8.411   4.402   9.092
    1HEX  H2N   5629   8.211   4.229   9.271
    1STR  S00   5630   9.197   4.220   7.953
    1STR  S0E   5631   8.544   5.060   8.560
    1STR  S0M   5632   9.182   4.188   8.360
    1STR  S0X   5633   9.284   4.298   8.991
    1STR  S14   5634   8.887   4.464   9.462
    1STR  S1B   5635   8.291   4.336   9.262
    1HEX  C01   5636   8.993   4.206  12.392
    1HEX  C02   5637   8.932   4.209  12.533
    1HEX  C03   5638   8.780   4.209  12.524
    1HEX  O04   5639   8.718   4.110  12.486
    1HEX  O05   5640   8.727   4.328  12.557
    1HEX  C06   5641   8.586   4.342  12.564
    1HEX  C07   5642   8.536   4.337  12.710
    1HEX  C08   5643   8.586   4.465  12.781
    1HEX  O09   5644   8.522   4.586  12.744
    1HEX  C0A   5645   8.458   4.657  12.838
    1HEX  O0B   5646   8.410   4.611  12.942
    1HEX  C0C   5647   8.456   4.806  12.808
    1HEX  C0D   5648   8.459   4.889  12.937
    1HEX  C0F   5649   8.381   4.337  12.713
    1HEX  O0G   5650   8.332   4.216  12.655
    1HEX  C0H   5651   8.286   4.215  12.530
    1HEX  O0I   5652   8.258   4.314  12.462
    1HEX  C0J   5653   8.277   4.075  12.472
    1HEX  C0K   5654   8.158   3.998  12.531
    1HEX  C0N   5655   8.582   4.205  12.782
    1HEX  O0O   5656   8.718   4.185  12.824
    1HEX  C0P   5657   8.787   4.267  12.920
    1HEX  C0Q   5658   8.752   4.261  13.072
    1HEX  C0R   5659   8.786   4.119  13.125
    1HEX  O0S   5660   8.926   4.092  13.118
    1HEX  C0T   5661   9.000   4.087  13.231
    1HEX  O0U   5662   8.959   4.100  13.346
    1HEX  C0V   5663   9.148   4.064  13.202
    1HEX  C0W   5664   9.230   4.193  13.217
    1HEX  C0Y   5665   8.844   4.365  13.140
    1HEX  O0Z   5666   8.820   4.365  13.279
    1HEX  C10   5667   8.908   4.420  13.361
    1HEX  O11   5668   9.012   4.478  13.328
    1HEX  C12   5669   8.865   4.404  13.506
    1HEX  C13   5670   8.974   4.448  13.605
    1HEX  C15   5671   8.605   4.301  13.105
    1HEX  O16   5672   8.567   4.279  13.240
    1HEX  C17   5673   8.495   4.171  13.275
    1HEX  O18   5674   8.465   4.078  13.201
    1HEX  C19   5675   8.449   4.178  13.419
    1HEX  C1A   5676   8.366   4.305  13.442
    1HEX  H1C   5677   9.208   4.209  12.270
    1HEX  H1D   5678   8.959   4.117  12.339
    1HEX  H1E   5679   8.959   4.292  12.335
    1HEX  H1F   5680   8.964   4.296  12.588
    1HEX  H1G   5681   8.962   4.121  12.590
    1HEX  H1H   5682   8.537   4.268  12.501
    1HEX  H1I   5683   8.558   4.438  12.519
    1HEX  H1J   5684   8.690   4.482  12.754
    1HEX  H1K   5685   8.583   4.452  12.888
    1HEX  H1M   5686   8.370   4.831  12.746
    1HEX  H1N   5687   8.545   4.827  12.750
    1HEX  H1O   5688   8.536   4.853  13.005
    1HEX  H1P   5689   8.364   4.880  12.990
    1HEX  H1Q   5690   8.663   5.087  12.880
    1HEX  H1R   5691   8.339   4.425  12.664
    1HEX  H1S   5692   8.344   4.343  12.816
    1HEX  H1T   5693   8.371   4.023  12.493
    1HEX  H1U   5694   8.269   4.083  12.364
    1HEX  H1V   5695   8.066   4.053  12.514
    1HEX  H1W   5696   8.170   3.986  12.638
    1HEX  H1X   5697   8.148   3.839  12.314
    1HEX  H1Y   5698   8.566   4.124  12.711
    1HEX  H1Z   5699   8.513   4.175  12.860
    1HEX  H20   5700   8.797   4.369  12.886
    1HEX  H21   5701   8.890   4.231  12.911
    1HEX  H22   5702   8.732   4.043  13.067
    1HEX  H23   5703   8.750   4.107  13.227
    1HEX  H24   5704   9.158   4.022  13.103
    1HEX  H25   5705   9.185   3.989  13.273
    1HEX  H26   5706   9.189   4.273  13.155
    1HEX  H27   5707   9.333   4.177  13.185
    1HEX  H28   5708   9.155   4.350  13.366
    1HEX  H29   5709   8.825   4.466  13.102
    1HEX  H2A   5710   8.949   4.345  13.120
    1HEX  H2B   5711   8.840   4.299  13.522
    1HEX  H2C   5712   8.773   4.461  13.519
    1HEX  H2D   5713   9.005   4.551  13.583
    1HEX  H2E   5714   9.062   4.386  13.593
    1HEX  H2F   5715   8.784   4.544  13.783
    1HEX  H2G   5716   8.532   4.253  13.042
    1HEX  H2H   5717   8.591   4.408  13.091
    1HEX  H2I   5718   8.536   4.177  13.484
    1HEX  H2J   5719   8.390   4.089  13.441
    1HEX  H2K   5720   8.286   4.311  13.368
    1HEX  H2M   5721   8.428   4.394  13.428
    1HEX  H2N   5722   8.212   4.232  13.627
    1STR  S00   5723   9.173   4.215  12.399
    1STR  S0E   5724   8.542   5.050  12.921
    1STR  S0M   5725   8.159   3.837  12.447
    1STR  S0X   5726   9.279   4.298  13.356
    1STR  S14   5727   8.889   4.463  13.765
    1STR  S1B   5728   8.298   4.332  13.607
    1HEX  C01   5729   8.993   8.566  16.752
    1HEX  C02   5730   8.932   8.569  16.893
    1HEX  C03   5731   8.780   8.570  16.884
    1HEX  O04   5732   8.718   8.470  16.846
    1HEX  O05   5733   8.727   8.688  16.918
    1HEX  C06   5734   8.585   8.703  16.924
    1HEX  C07   5735   8.536   8.697  17.070
    1HEX  C08   5736   8.586   8.825  17.141
    1HEX  O09   5737   8.521   8.946  17.104
    1HEX  C0A   5738   8.458   9.017  17.199
    1HEX  O0B   5739   8.410   8.971  17.303
    1HEX  C0C   5740   8.456   9.166  17.168
    1HEX  C0D   5741   8.458   9.250  17.297
    1HEX  C0F   5742   8.381   8.697  17.073
    1HEX  O0G   5743   8.332   8.576  17.015
    1HEX  C0H   5744   8.286   8.575  16.890
    1HEX  O0I   5745   8.258   8.674  16.822
    1HEX  C0J   5746   8.277   8.435  16.832
    1HEX  C0K   5747   8.158   8.358  16.891
    1HEX  C0N   5748   8.582   8.565  17.143
    1HEX  O0O   5749   8.718   8.546  17.184
    1HEX  C0P   5750   8.787   8.627  17.280
    1HEX  C0Q   5751   8.752   8.621  17.432
    1HEX  C0R   5752   8.786   8.479   0.045
    1HEX  O0S   5753   8.926   8.452   0.038
    1HEX  C0T   5754   9.000   8.447   0.151
    1HEX  O0U   5755   8.959   8.460   0.266
    1HEX  C0V   5756   9.148   8.424   0.122
    1HEX  C0W   5757   9.230   8.552   0.137
    1HEX  C0Y   5758   8.844   8.725   0.060
    1HEX  O0Z   5759   8.820   8.725   0.199
    1HEX  C10   5760   8.908   8.780   0.282
    1HEX  O11   5761   9.012   8.837   0.248
    1HEX  C12   5762   8.865   8.764   0.426
    1HEX  C13   5763   8.974   8.808   0.525
    1HEX  C15   5764   8.605   8.661   0.025
    1HEX  O16   5765   8.567   8.639   0.160
    1HEX  C17   5766   8.495   8.531   0.195
    1HEX  O18   5767   8.465   8.438   0.121
    1HEX  C19   5768   8.449   8.538   0.339
    1HEX  C1A   5769   8.366   8.665   0.361
    1HEX  H1C   5770   9.208   8.570  16.630
    1HEX  H1D   5771   8.959   8.478  16.699
    1HEX  H1E   5772   8.959   8.653  16.695
    1HEX  H1F   5773   8.964   8.657  16.948
    1HEX  H1G   5774   8.962   8.482  16.950
    1HEX  H1H   5775   8.537   8.628  16.861
    1HEX  H1I   5776   8.558   8.798  16.879
    1HEX  H1J   5777   8.690   8.843  17.114
    1HEX  H1K   5778   8.583   8.812  17.248
    1HEX  H1M   5779   8.370   9.191  17.106
    1HEX  H1N   5780   8.545   9.187  17.110
    1HEX  H1O   5781   8.536   9.214  17.365
    1HEX  H1P   5782   8.364   9.240  17.350
    1HEX  H1Q   5783   8.663   9.447  17.239
    1HEX  H1R   5784   8.339   8.785  17.024
    1HEX  H1S   5785   8.344   8.702  17.176
    1HEX  H1T   5786   8.371   8.383  16.853
    1HEX  H1U   5787   8.269   8.443  16.724
    1HEX  H1V   5788   8.066   8.413  16.874
    1HEX  H1W   5789   8.170   8.346  16.998
    1HEX  H1X   5790   8.148   8.199  16.674
    1HEX  H1Y   5791   8.566   8.485  17.071
    1HEX  H1Z   5792   8.513   8.535  17.221
    1HEX  H20   5793   8.797   8.730  17.246
    1HEX  H21   5794   8.890   8.592  17.271
    1HEX  H22   5795   8.732   8.403  17.427
    1HEX  H23   5796   8.750   8.467   0.147
    1HEX  H24   5797   9.158   8.382   0.022
    1HEX  H25   5798   9.184   8.349   0.193
    1HEX  H26   5799   9.189   8.633   0.075
    1HEX  H27   5800   9.333   8.537   0.105
    1HEX  H28   5801   9.155   8.710   0.287
    1HEX  H29   5802   8.825   8.826   0.023
    1HEX  H2A   5803   8.949   8.704   0.040
    1HEX  H2B   5804   8.840   8.659   0.442
    1HEX  H2C   5805   8.774   8.821   0.439
    1HEX  H2D   5806   9.005   8.910   0.503
    1HEX  H2E   5807   9.062   8.745   0.513
    1HEX  H2F   5808   8.784   8.904   0.703
    1HEX  H2G   5809   8.532   8.613  17.402
    1HEX  H2H   5810   8.591   8.768   0.011
    1HEX  H2I   5811   8.536   8.537   0.404
    1HEX  H2J   5812   8.390   8.449   0.361
    1HEX  H2K   5813   8.286   8.671   0.288
    1HEX  H2M   5814   8.428   8.754   0.347
    1HEX  H2N   5815   8.212   8.592   0.547
    1STR  S00   5816   9.173   8.576  16.759
    1STR  S0E   5817   8.542   9.410  17.281
    1STR  S0M   5818   8.159   8.197  16.807
    1STR  S0X   5819   9.279   8.658   0.276
    1STR  S14   5820   8.889   8.823   0.685
    1STR  S1B   5821   8.298   8.692   0.527
    1HEX  C01   5822   8.361   8.917   3.867
    1HEX  C02   5823   8.518   8.913   3.840
    1HEX  C03   5824   8.588   8.780   3.814
    1HEX  O04   5825   8.637   8.752   3.705
    1HEX  O05   5826   8.598   8.704   3.922
    1HEX  C06   5827   8.488   8.619   3.943
    1HEX  C07   5828   8.448   8.605   4.091
    1HEX  C08   5829   8.464   8.735   4.175
    1HEX  O09   5830   8.449   8.866   4.124
    1HEX  C0A   5831   8.468   8.970   4.209
    1HEX  O0B   5832   8.479   8.960   4.331
    1HEX  C0C   5833   8.480   9.106   4.140
    1HEX  C0D   5834   8.477   9.223   4.240
    1HEX  C0F   5835   8.297   8.568   4.093
    1HEX  O0G   5836   8.270   8.466   3.996
    1HEX  C0H   5837   8.200   8.496   3.884
    1HEX  O0I   5838   8.134   8.597   3.864
    1HEX  C0J   5839   8.216   8.391   3.776
    1HEX  C0K   5840   8.112   8.279   3.794
    1HEX  C0N   5841   8.529   8.485   4.154
    1HEX  O0O   5842   8.673   8.487   4.154
    1HEX  C0P   5843   8.757   8.585   4.219
    1HEX  C0Q   5844   8.753   8.599   4.376
    1HEX  C0R   5845   8.792   8.462   4.437
    1HEX  O0S   5846   8.932   8.436   4.420
    1HEX  C0T   5847   9.015   8.441   4.527
    1HEX  O0U   5848   8.982   8.460   4.644
    1HEX  C0V   5849   9.160   8.421   4.488
    1HEX  C0W   5850   9.240   8.552   4.499
    1HEX  C0Y   5851   8.854   8.709   4.419
    1HEX  O0Z   5852   8.834   8.724   4.558
    1HEX  C10   5853   8.923   8.779   4.637
    1HEX  O11   5854   9.030   8.830   4.603
    1HEX  C12   5855   8.877   8.771   4.782
    1HEX  C13   5856   8.983   8.814   4.883
    1HEX  C15   5857   8.615   8.645   4.431
    1HEX  O16   5858   8.586   8.617   4.566
    1HEX  C17   5859   8.500   8.519   4.596
    1HEX  O18   5860   8.463   8.429   4.521
    1HEX  C19   5861   8.442   8.535   4.734
    1HEX  C1A   5862   8.358   8.664   4.738
    1HEX  H1D   5863   8.307   8.872   3.784
    1HEX  H1E   5864   8.325   9.018   3.881
    1HEX  H1F   5865   8.572   8.952   3.925
    1HEX  H1G   5866   8.544   8.977   3.756
    1HEX  H1H   5867   8.508   8.522   3.897
    1HEX  H1I   5868   8.403   8.658   3.887
    1HEX  H1J   5869   8.566   8.743   4.207
    1HEX  H1K   5870   8.401   8.729   4.264
    1HEX  H1M   5871   8.399   9.118   4.068
    1HEX  H1N   5872   8.574   9.108   4.086
    1HEX  H1O   5873   8.552   9.210   4.318
    1HEX  H1P   5874   8.380   9.230   4.288
    1HEX  H1Q   5875   8.658   9.439   4.152
    1HEX  H1R   5876   8.237   8.658   4.074
    1HEX  H1S   5877   8.266   8.533   4.191
    1HEX  H1T   5878   8.318   8.352   3.782
    1HEX  H1U   5879   8.205   8.439   3.679
    1HEX  H1V   5880   8.012   8.319   3.780
    1HEX  H1W   5881   8.117   8.240   3.896
    1HEX  H1X   5882   8.162   8.195   3.573
    1HEX  H1Y   5883   8.506   8.397   4.093
    1HEX  H1Z   5884   8.490   8.454   4.250
    1HEX  H20   5885   8.753   8.680   4.166
    1HEX  H21   5886   8.858   8.552   4.194
    1HEX  H22   5887   8.735   8.382   4.391
    1HEX  H23   5888   8.766   8.458   4.543
    1HEX  H24   5889   9.164   8.381   4.387
    1HEX  H25   5890   9.203   8.346   4.554
    1HEX  H26   5891   9.194   8.631   4.440
    1HEX  H27   5892   9.342   8.538   4.462
    1HEX  H28   5893   9.170   8.704   4.647
    1HEX  H29   5894   8.834   8.804   4.370
    1HEX  H2A   5895   8.957   8.682   4.396
    1HEX  H2B   5896   8.848   8.667   4.800
    1HEX  H2C   5897   8.786   8.831   4.789
    1HEX  H2D   5898   9.018   8.915   4.860
    1HEX  H2E   5899   9.071   8.749   4.874
    1HEX  H2F   5900   8.785   8.902   5.060
    1HEX  H2G   5901   8.534   8.605   4.375
    1HEX  H2H   5902   8.606   8.754   4.421
    1HEX  H2I   5903   8.523   8.539   4.807
    1HEX  H2J   5904   8.380   8.448   4.757
    1HEX  H2K   5905   8.285   8.664   4.657
    1HEX  H2M   5906   8.422   8.751   4.721
    1HEX  H2N   5907   8.205   8.593   4.908
    1STR  S00   5908   8.197   8.929   3.960
    1STR  S0E   5909   8.543   9.386   4.192
    1STR  S0M   5910   8.170   8.139   3.694
    1STR  S0X   5911   9.295   8.654   4.638
    1STR  S14   5912   8.892   8.825   5.039
    1STR  S1B   5913   8.284   8.700   4.899
    1HEX  C01   5914   8.993   8.566   8.032
    1HEX  C02   5915   8.932   8.569   8.173
    1HEX  C03   5916   8.780   8.570   8.164
    1HEX  O04   5917   8.718   8.470   8.126
    1HEX  O05   5918   8.727   8.688   8.198
    1HEX  C06   5919   8.585   8.703   8.204
    1HEX  C07   5920   8.536   8.697   8.350
    1HEX  C08   5921   8.586   8.825   8.421
    1HEX  O09   5922   8.521   8.946   8.384
    1HEX  C0A   5923   8.458   9.017   8.479
    1HEX  O0B   5924   8.410   8.971   8.583
    1HEX  C0C   5925   8.456   9.166   8.448
    1HEX  C0D   5926   8.458   9.250   8.577
    1HEX  C0F   5927   8.381   8.697   8.353
    1HEX  O0G   5928   8.332   8.576   8.295
    1HEX  C0H   5929   8.286   8.575   8.170
    1HEX  O0I   5930   8.258   8.674   8.102
    1HEX  C0J   5931   8.277   8.435   8.112
    1HEX  C0K   5932   8.158   8.358   8.171
    1HEX  C0N   5933   8.582   8.565   8.422
    1HEX  O0O   5934   8.718   8.546   8.464
    1HEX  C0P   5935   8.787   8.627   8.560
    1HEX  C0Q   5936   8.752   8.621   8.712
    1HEX  C0R   5937   8.786   8.479   8.765
    1HEX  O0S   5938   8.926   8.452   8.758
    1HEX  C0T   5939   9.000   8.447   8.871
    1HEX  O0U   5940   8.959   8.460   8.986
    1HEX  C0V   5941   9.148   8.424   8.842
    1HEX  C0W   5942   9.230   8.552   8.857
    1HEX  C0Y   5943   8.844   8.725   8.780
    1HEX  O0Z   5944   8.820   8.725   8.919
    1HEX  C10   5945   8.908   8.780   9.002
    1HEX  O11   5946   9.012   8.837   8.968
    1HEX  C12   5947   8.865   8.764   9.146
    1HEX  C13   5948   8.974   8.808   9.245
    1HEX  C15   5949   8.605   8.661   8.745
    1HEX  O16   5950   8.567   8.639   8.880
    1HEX  C17   5951   8.495   8.531   8.915
    1HEX  O18   5952   8.465   8.438   8.841
    1HEX  C19   5953   8.449   8.538   9.059
    1HEX  C1A   5954   8.366   8.665   9.081
    1HEX  H1C   5955   9.208   8.570   7.910
    1HEX  H1D   5956   8.959   8.478   7.979
    1HEX  H1E   5957   8.959   8.653   7.975
    1HEX  H1F   5958   8.964   8.657   8.228
    1HEX  H1G   5959   8.962   8.482   8.230
    1HEX  H1H   5960   8.537   8.628   8.141
    1HEX  H1I   5961   8.558   8.798   8.159
    1HEX  H1J   5962   8.690   8.843   8.394
    1HEX  H1K   5963   8.583   8.812   8.528
    1HEX  H1M   5964   8.370   9.191   8.386
    1HEX  H1N   5965   8.545   9.187   8.390
    1HEX  H1O   5966   8.536   9.214   8.645
    1HEX  H1P   5967   8.364   9.240   8.630
    1HEX  H1Q   5968   8.663   9.447   8.519
    1HEX  H1R   5969   8.339   8.785   8.304
    1HEX  H1S   5970   8.344   8.702   8.456
    1HEX  H1T   5971   8.371   8.383   8.133
    1HEX  H1U   5972   8.269   8.443   8.004
    1HEX  H1V   5973   8.066   8.413   8.154
    1HEX  H1W   5974   8.170   8.346   8.278
    1HEX  H1X   5975   8.148   8.199   7.954
    1HEX  H1Y   5976   8.566   8.485   8.351
    1HEX  H1Z   5977   8.513   8.535   8.501
    1HEX  H20   5978   8.797   8.730   8.526
    1HEX  H21   5979   8.890   8.592   8.551
    1HEX  H22   5980   8.732   8.403   8.707
    1HEX  H23   5981   8.750   8.467   8.867
    1HEX  H24   5982   9.158   8.382   8.742
    1HEX  H25   5983   9.184   8.349   8.913
    1HEX  H26   5984   9.189   8.633   8.795
    1HEX  H27   5985   9.333   8.537   8.825
    1HEX  H28   5986   9.156   8.710   9.007
    1HEX  H29   5987   8.825   8.826   8.743
    1HEX  H2A   5988   8.949   8.704   8.760
    1HEX  H2B   5989   8.840   8.659   9.162
    1HEX  H2C   5990   8.774   8.821   9.159
    1HEX  H2D   5991   9.005   8.910   9.223
    1HEX  H2E   5992   9.062   8.745   9.233
    1HEX  H2F   5993   8.784   8.904   9.423
    1HEX  H2G   5994   8.532   8.613   8.682
    1HEX  H2H   5995   8.591   8.768   8.731
    1HEX  H2I   5996   8.536   8.537   9.124
    1HEX  H2J   5997   8.390   8.449   9.081
    1HEX  H2K   5998   8.285   8.671   9.008
    1HEX  H2M   5999   8.428   8.754   9.067
    1HEX  H2N   6000   8.212   8.592   9.267
    1STR  S00   6001   9.174   8.576   8.039
    1STR  S0E   6002   8.542   9.410   8.561
    1STR  S0M   6003   8.159   8.197   8.087
    1STR  S0X   6004   9.279   8.658   8.996
    1STR  S14   6005   8.889   8.823   9.405
    1STR  S1B   6006   8.299   8.692   9.247
    1HEX  C01   6007   8.993   8.566  12.392
    1HEX  C02   6008   8.932   8.569  12.533
    1HEX  C03   6009   8.780   8.570  12.524
    1HEX  O04   6010   8.718   8.470  12.486
    1HEX  O05   6011   8.727   8.688  12.558
    1HEX  C06   6012   8.585   8.703  12.564
    1HEX  C07   6013   8.536   8.697  12.710
    1HEX  C08   6014   8.586   8.825  12.781
    1HEX  O09   6015   8.521   8.946  12.744
    1HEX  C0A   6016   8.458   9.017  12.839
    1HEX  O0B   6017   8.410   8.971  12.943
    1HEX  C0C   6018   8.456   9.166  12.808
    1HEX  C0D   6019   8.458   9.250  12.937
    1HEX  C0F   6020   8.381   8.697  12.713
    1HEX  O0G   6021   8.332   8.576  12.655
    1HEX  C0H   6022   8.286   8.575  12.530
    1HEX  O0I   6023   8.258   8.674  12.462
    1HEX  C0J   6024   8.277   8.435  12.472
    1HEX  C0K   6025   8.158   8.358  12.531
    1HEX  C0N   6026   8.582   8.565  12.782
    1HEX  O0O   6027   8.718   8.546  12.824
    1HEX  C0P   6028   8.787   8.627  12.920
    1HEX  C0Q   6029   8.752   8.621  13.072
    1HEX  C0R   6030   8.786   8.479  13.125
    1HEX  O0S   6031   8.926   8.452  13.118
    1HEX  C0T   6032   9.000   8.447  13.231
    1HEX  O0U   6033   8.959   8.460  13.346
    1HEX  C0V   6034   9.148   8.424  13.202
    1HEX  C0W   6035   9.230   8.552  13.217
    1HEX  C0Y   6036   8.844   8.725  13.140
    1HEX  O0Z   6037   8.820   8.725  13.279
    1HEX  C10   6038   8.908   8.780  13.362
    1HEX  O11   6039   9.012   8.837  13.328
    1HEX  C12   6040   8.865   8.764  13.506
    1HEX  C13   6041   8.974   8.808  13.605
    1HEX  C15   6042   8.605   8.661  13.105
    1HEX  O16   6043   8.567   8.639  13.240
    1HEX  C17   6044   8.495   8.531  13.275
    1HEX  O18   6045   8.465   8.438  13.201
    1HEX  C19   6046   8.449   8.538  13.419
    1HEX  C1A   6047   8.366   8.665  13.441
    1HEX  H1C   6048   9.208   8.570  12.270
    1HEX  H1D   6049   8.959   8.478  12.339
    1HEX  H1E   6050   8.959   8.653  12.335
    1HEX  H1F   6051   8.964   8.657  12.588
    1HEX  H1G   6052   8.962   8.482  12.590
    1HEX  H1H   6053   8.537   8.628  12.501
    1HEX  H1I   6054   8.558   8.798  12.519
    1HEX  H1J   6055   8.690   8.843  12.754
    1HEX  H1K   6056   8.583   8.812  12.888
    1HEX  H1M   6057   8.370   9.191  12.746
    1HEX  H1N   6058   8.545   9.187  12.750
    1HEX  H1O   6059   8.536   9.214  13.005
    1HEX  H1P   6060   8.364   9.240  12.990
    1HEX  H1Q   6061   8.663   9.447  12.879
    1HEX  H1R   6062   8.339   8.785  12.664
    1HEX  H1S   6063   8.344   8.702  12.816
    1HEX  H1T   6064   8.371   8.383  12.493
    1HEX  H1U   6065   8.269   8.443  12.364
    1HEX  H1V   6066   8.066   8.413  12.514
    1HEX  H1W   6067   8.170   8.346  12.638
    1HEX  H1X   6068   8.148   8.199  12.314
    1HEX  H1Y   6069   8.566   8.485  12.711
    1HEX  H1Z   6070   8.513   8.535  12.861
    1HEX  H20   6071   8.797   8.730  12.886
    1HEX  H21   6072   8.890   8.592  12.911
    1HEX  H22   6073   8.732   8.403  13.067
    1HEX  H23   6074   8.750   8.467  13.227
    1HEX  H24   6075   9.158   8.382  13.102
    1HEX  H25   6076   9.184   8.349  13.273
    1HEX  H26   6077   9.189   8.633  13.155
    1HEX  H27   6078   9.333   8.537  13.185
    1HEX  H28   6079   9.155   8.710  13.367
    1HEX  H29   6080   8.825   8.826  13.103
    1HEX  H2A   6081   8.949   8.704  13.120
    1HEX  H2B   6082   8.840   8.659  13.522
    1HEX  H2C   6083   8.774   8.821  13.519
    1HEX  H2D   6084   9.005   8.910  13.583
    1HEX  H2E   6085   9.062   8.745  13.593
    1HEX  H2F   6086   8.784   8.904  13.783
    1HEX  H2G   6087   8.532   8.613  13.042
    1HEX  H2H   6088   8.591   8.768  13.091
    1HEX  H2I   6089   8.536   8.537  13.484
    1HEX  H2J   6090   8.390   8.449  13.441
    1HEX  H2K   6091   8.286   8.671  13.368
    1HEX  H2M   6092   8.428   8.754  13.427
    1HEX  H2N   6093   8.212   8.592  13.627
    1STR  S00   6094   9.173   8.576  12.399
    1STR  S0E   6095   8.542   9.410  12.921
    1STR  S0M   6096   8.159   8.197  12.447
    1STR  S0X   6097   9.279   8.658  13.356
    1STR  S14   6098   8.889   8.823  13.765
    1STR  S1B   6099   8.298   8.692  13.607
    1HEX  C01   6100   8.993  12.927  16.752
    1HEX  C02   6101   8.932  12.929  16.893
    1HEX  C03   6102   8.780  12.930  16.884
    1HEX  O04   6103   8.718  12.830  16.846
    1HEX  O05   6104   8.727  13.048  16.918
    1HEX  C06   6105   8.585  13.063  16.924
    1HEX  C07   6106   8.536  13.057  17.070
    1HEX  C08   6107   8.586  13.185  17.141
    1HEX  O09   6108   8.521  13.306  17.104
    1HEX  C0A   6109   8.458  13.377  17.199
    1HEX  O0B   6110   8.410  13.331  17.302
    1HEX  C0C   6111   8.456  13.526  17.168
    1HEX  C0D   6112   8.458  13.610  17.297
    1HEX  C0F   6113   8.381  13.057  17.073
    1HEX  O0G   6114   8.332  12.936  17.015
    1HEX  C0H   6115   8.286  12.935  16.890
    1HEX  O0I   6116   8.258  13.034  16.822
    1HEX  C0J   6117   8.277  12.795  16.832
    1HEX  C0K   6118   8.158  12.718  16.891
    1HEX  C0N   6119   8.582  12.925  17.142
    1HEX  O0O   6120   8.718  12.906  17.184
    1HEX  C0P   6121   8.787  12.987  17.280
    1HEX  C0Q   6122   8.752  12.981  17.432
    1HEX  C0R   6123   8.786  12.839   0.045
    1HEX  O0S   6124   8.926  12.812   0.038
    1HEX  C0T   6125   9.000  12.807   0.151
    1HEX  O0U   6126   8.959  12.820   0.266
    1HEX  C0V   6127   9.148  12.784   0.122
    1HEX  C0W   6128   9.230  12.913   0.137
    1HEX  C0Y   6129   8.844  13.085   0.060
    1HEX  O0Z   6130   8.820  13.085   0.199
    1HEX  C10   6131   8.908  13.140   0.281
    1HEX  O11   6132   9.012  13.198   0.248
    1HEX  C12   6133   8.865  13.124   0.426
    1HEX  C13   6134   8.974  13.168   0.525
    1HEX  C15   6135   8.605  13.021   0.025
    1HEX  O16   6136   8.567  12.999   0.160
    1HEX  C17   6137   8.495  12.892   0.195
    1HEX  O18   6138   8.465  12.798   0.121
    1HEX  C19   6139   8.449  12.898   0.339
    1HEX  C1A   6140   8.366  13.026   0.361
    1HEX  H1C   6141   9.208  12.930  16.630
    1HEX  H1D   6142   8.959  12.838  16.699
    1HEX  H1E   6143   8.959  13.013  16.695
    1HEX  H1F   6144   8.964  13.017  16.948
    1HEX  H1G   6145   8.962  12.842  16.950
    1HEX  H1H   6146   8.537  12.988  16.861
    1HEX  H1I   6147   8.558  13.158  16.879
    1HEX  H1J   6148   8.690  13.203  17.114
    1HEX  H1K   6149   8.583  13.172  17.248
    1HEX  H1M   6150   8.370  13.551  17.106
    1HEX  H1N   6151   8.545  13.547  17.110
    1HEX  H1O   6152   8.536  13.574  17.365
    1HEX  H1P   6153   8.364  13.600  17.350
    1HEX  H1Q   6154   8.663  13.808  17.240
    1HEX  H1R   6155   8.339  13.145  17.024
    1HEX  H1S   6156   8.344  13.063  17.176
    1HEX  H1T   6157   8.371  12.743  16.853
    1HEX  H1U   6158   8.269  12.803  16.724
    1HEX  H1V   6159   8.066  12.773  16.874
    1HEX  H1W   6160   8.170  12.706  16.998
    1HEX  H1X   6161   8.148  12.559  16.674
    1HEX  H1Y   6162   8.566  12.845  17.071
    1HEX  H1Z   6163   8.513  12.895  17.221
    1HEX  H20   6164   8.797  13.090  17.246
    1HEX  H21   6165   8.890  12.952  17.271
    1HEX  H22   6166   8.732  12.763  17.427
    1HEX  H23   6167   8.750  12.827   0.147
    1HEX  H24   6168   9.158  12.742   0.022
    1HEX  H25   6169   9.185  12.709   0.193
    1HEX  H26   6170   9.189  12.993   0.075
    1HEX  H27   6171   9.333  12.897   0.105
    1HEX  H28   6172   9.156  13.070   0.286
    1HEX  H29   6173   8.825  13.186   0.022
    1HEX  H2A   6174   8.949  13.065   0.040
    1HEX  H2B   6175   8.840  13.019   0.442
    1HEX  H2C   6176   8.774  13.182   0.439
    1HEX  H2D   6177   9.005  13.271   0.503
    1HEX  H2E   6178   9.062  13.106   0.513
    1HEX  H2F   6179   8.784  13.264   0.703
    1HEX  H2G   6180   8.532  12.973  17.402
    1HEX  H2H   6181   8.591  13.128   0.011
    1HEX  H2I   6182   8.536  12.897   0.404
    1HEX  H2J   6183   8.390  12.809   0.361
    1HEX  H2K   6184   8.286  13.032   0.288
    1HEX  H2M   6185   8.428  13.114   0.347
    1HEX  H2N   6186   8.212  12.952   0.547
    1STR  S00   6187   9.174  12.936  16.759
    1STR  S0E   6188   8.542  13.770  17.281
    1STR  S0M   6189   8.159  12.557  16.807
    1STR  S0X   6190   9.279  13.018   0.276
    1STR  S14   6191   8.889  13.183   0.685
    1STR  S1B   6192   8.298  13.052   0.527
    1HEX  C01   6193   8.993  12.927   3.672
    1HEX  C02   6194   8.932  12.929   3.813
    1HEX  C03   6195   8.780  12.930   3.804
    1HEX  O04   6196   8.718  12.830   3.766
    1HEX  O05   6197   8.727  13.048   3.838
    1HEX  C06   6198   8.585  13.063   3.844
    1HEX  C07   6199   8.536  13.057   3.990
    1HEX  C08   6200   8.586  13.185   4.061
    1HEX  O09   6201   8.521  13.306   4.024
    1HEX  C0A   6202   8.458  13.377   4.119
    1HEX  O0B   6203   8.410  13.331   4.223
    1HEX  C0C   6204   8.456  13.526   4.088
    1HEX  C0D   6205   8.458  13.610   4.217
    1HEX  C0F   6206   8.381  13.057   3.993
    1HEX  O0G   6207   8.332  12.936   3.935
    1HEX  C0H   6208   8.286  12.935   3.810
    1HEX  O0I   6209   8.258  13.034   3.742
    1HEX  C0J   6210   8.277  12.795   3.752
    1HEX  C0K   6211   8.158  12.718   3.811
    1HEX  C0N   6212   8.582  12.925   4.062
    1HEX  O0O   6213   8.718  12.906   4.104
    1HEX  C0P   6214   8.787  12.987   4.200
    1HEX  C0Q   6215   8.752  12.981   4.352
    1HEX  C0R   6216   8.786  12.839   4.405
    1HEX  O0S   6217   8.926  12.812   4.398
    1HEX  C0T   6218   9.000  12.807   4.511
    1HEX  O0U   6219   8.959  12.820   4.626
    1HEX  C0V   6220   9.148  12.784   4.482
    1HEX  C0W   6221   9.230  12.913   4.497
    1HEX  C0Y   6222   8.844  13.085   4.420
    1HEX  O0Z   6223   8.820  13.085   4.559
    1HEX  C10   6224   8.908  13.140   4.641
    1HEX  O11   6225   9.012  13.198   4.608
    1HEX  C12   6226   8.865  13.124   4.786
    1HEX  C13   6227   8.974  13.168   4.885
    1HEX  C15   6228   8.605  13.021   4.385
    1HEX  O16   6229   8.567  12.999   4.520
    1HEX  C17   6230   8.495  12.892   4.555
    1HEX  O18   6231   8.465  12.798   4.481
    1HEX  C19   6232   8.449  12.898   4.699
    1HEX  C1A   6233   8.366  13.026   4.721
    1HEX  H1C   6234   9.208  12.930   3.550
    1HEX  H1D   6235   8.959  12.838   3.619
    1HEX  H1E   6236   8.959  13.013   3.615
    1HEX  H1F   6237   8.964  13.017   3.868
    1HEX  H1G   6238   8.962  12.842   3.870
    1HEX  H1H   6239   8.537  12.988   3.781
    1HEX  H1I   6240   8.558  13.158   3.799
    1HEX  H1J   6241   8.690  13.203   4.034
    1HEX  H1K   6242   8.583  13.172   4.168
    1HEX  H1M   6243   8.370  13.551   4.026
    1HEX  H1N   6244   8.545  13.547   4.030
    1HEX  H1O   6245   8.536  13.574   4.285
    1HEX  H1P   6246   8.364  13.600   4.270
    1HEX  H1Q   6247   8.663  13.808   4.160
    1HEX  H1R   6248   8.339  13.145   3.944
    1HEX  H1S   6249   8.344  13.063   4.096
    1HEX  H1T   6250   8.371  12.743   3.773
    1HEX  H1U   6251   8.269  12.803   3.644
    1HEX  H1V   6252   8.066  12.773   3.794
    1HEX  H1W   6253   8.170  12.706   3.918
    1HEX  H1X   6254   8.148  12.559   3.594
    1HEX  H1Y   6255   8.566  12.845   3.991
    1HEX  H1Z   6256   8.513  12.895   4.140
    1HEX  H20   6257   8.797  13.090   4.166
    1HEX  H21   6258   8.890  12.952   4.191
    1HEX  H22   6259   8.732  12.763   4.347
    1HEX  H23   6260   8.750  12.827   4.507
    1HEX  H24   6261   9.158  12.742   4.382
    1HEX  H25   6262   9.185  12.709   4.553
    1HEX  H26   6263   9.189  12.993   4.435
    1HEX  H27   6264   9.333  12.897   4.465
    1HEX  H28   6265   9.156  13.070   4.646
    1HEX  H29   6266   8.825  13.186   4.382
    1HEX  H2A   6267   8.949  13.065   4.400
    1HEX  H2B   6268   8.840  13.019   4.802
    1HEX  H2C   6269   8.774  13.182   4.799
    1HEX  H2D   6270   9.005  13.271   4.863
    1HEX  H2E   6271   9.062  13.106   4.873
    1HEX  H2F   6272   8.784  13.264   5.063
    1HEX  H2G   6273   8.532  12.973   4.322
    1HEX  H2H   6274   8.591  13.128   4.371
    1HEX  H2I   6275   8.536  12.897   4.764
    1HEX  H2J   6276   8.390  12.809   4.721
    1HEX  H2K   6277   8.286  13.032   4.648
    1HEX  H2M   6278   8.428  13.114   4.707
    1HEX  H2N   6279   8.212  12.952   4.907
    1STR  S00   6280   9.174  12.936   3.679
    1STR  S0E   6281   8.542  13.770   4.201
    1STR  S0M   6282   8.159  12.557   3.727
    1STR  S0X   6283   9.279  13.018   4.636
    1STR  S14   6284   8.889  13.183   5.045
    1STR  S1B   6285   8.299  13.052   4.887
    1HEX  C01   6286   8.935  13.075   8.943
    1HEX  C02   6287   8.973  13.088   8.777
    1HEX  C03   6288   8.910  13.028   8.638
    1HEX  O04   6289   8.943  12.916   8.601
    1HEX  O05   6290   8.828  13.113   8.548
    1HEX  C06   6291   8.753  13.068   8.422
    1HEX  C07   6292   8.588  13.061   8.414
    1HEX  C08   6293   8.532  13.175   8.502
    1HEX  O09   6294   8.515  13.301   8.437
    1HEX  C0A   6295   8.437  13.392   8.498
    1HEX  O0B   6296   8.355  13.368   8.587
    1HEX  C0C   6297   8.463  13.534   8.451
    1HEX  C0D   6298   8.472  13.627   8.573
    1HEX  C0F   6299   8.512  13.079   8.275
    1HEX  O0G   6300   8.476  12.959   8.203
    1HEX  C0H   6301   8.351  12.947   8.146
    1HEX  O0I   6302   8.268  13.037   8.134
    1HEX  C0J   6303   8.317  12.807   8.095
    1HEX  C0K   6304   8.190  12.748   8.161
    1HEX  C0N   6305   8.529  12.923   8.460
    1HEX  O0O   6306   8.511  12.904   8.598
    1HEX  C0P   6307   8.630  12.911   8.673
    1HEX  C0Q   6308   8.620  12.966   8.816
    1HEX  C0R   6309   8.706  12.863   8.899
    1HEX  O0S   6310   8.836  12.831   8.846
    1HEX  C0T   6311   8.918  12.743   8.910
    1HEX  O0U   6312   8.889  12.685   9.014
    1HEX  C0V   6313   9.055  12.720   8.845
    1HEX  C0W   6314   9.169  12.802   8.910
    1HEX  C0Y   6315   8.657  13.123   8.825
    1HEX  O0Z   6316   8.685  13.194   8.946
    1HEX  C10   6317   8.761  13.311   8.943
    1HEX  O11   6318   8.817  13.357   8.843
    1HEX  C12   6319   8.777  13.382   9.077
    1HEX  C13   6320   8.922  13.404   9.127
    1HEX  C15   6321   8.469  12.959   8.845
    1HEX  O16   6322   8.449  12.966   8.982
    1HEX  C17   6323   8.420  12.855   9.048
    1HEX  O18   6324   8.414  12.741   9.002
    1HEX  C19   6325   8.391  12.886   9.192
    1HEX  C1A   6326   8.325  13.025   9.201
    1HEX  H1D   6327   8.966  12.981   8.987
    1HEX  H1E   6328   8.990  13.150   8.998
    1HEX  H1F   6329   8.983  13.194   8.754
    1HEX  H1G   6330   9.075  13.053   8.767
    1HEX  H1H   6331   8.793  12.973   8.387
    1HEX  H1I   6332   8.783  13.139   8.344
    1HEX  H1J   6333   8.603  13.199   8.580
    1HEX  H1K   6334   8.440  13.144   8.551
    1HEX  H1M   6335   8.384  13.566   8.384
    1HEX  H1N   6336   8.556  13.536   8.396
    1HEX  H1O   6337   8.543  13.586   8.646
    1HEX  H1P   6338   8.376  13.633   8.624
    1HEX  H1Q   6339   8.670  13.804   8.513
    1HEX  H1R   6340   8.557  13.153   8.209
    1HEX  H1S   6341   8.416  13.124   8.300
    1HEX  H1T   6342   8.401  12.740   8.111
    1HEX  H1U   6343   8.300  12.813   7.987
    1HEX  H1V   6344   8.102  12.810   8.141
    1HEX  H1W   6345   8.200  12.740   8.269
    1HEX  H1X   6346   8.142  12.559   7.964
    1HEX  H1Y   6347   8.580  12.838   8.413
    1HEX  H1Z   6348   8.424  12.913   8.428
    1HEX  H20   6349   8.673  12.993   8.629
    1HEX  H21   6350   8.698  12.828   8.653
    1HEX  H22   6351   8.653  12.768   8.899
    1HEX  H23   6352   8.712  12.892   9.003
    1HEX  H24   6353   9.051  12.735   8.737
    1HEX  H25   6354   9.079  12.615   8.859
    1HEX  H26   6355   9.185  12.895   8.856
    1HEX  H27   6356   9.265  12.749   8.902
    1HEX  H28   6357   9.188  13.029   9.058
    1HEX  H29   6358   8.575  13.182   8.785
    1HEX  H2A   6359   8.736  13.149   8.757
    1HEX  H2B   6360   8.721  13.321   9.147
    1HEX  H2C   6361   8.727  13.478   9.071
    1HEX  H2D   6362   8.979  13.471   9.063
    1HEX  H2E   6363   8.981  13.313   9.139
    1HEX  H2F   6364   8.919  13.303   9.381
    1HEX  H2G   6365   8.422  12.869   8.804
    1HEX  H2H   6366   8.416  13.041   8.797
    1HEX  H2I   6367   8.485  12.883   9.246
    1HEX  H2J   6368   8.326  12.806   9.228
    1HEX  H2K   6369   8.251  13.036   9.122
    1HEX  H2M   6370   8.400  13.102   9.182
    1HEX  H2N   6371   8.199  12.972   9.271
    1STR  S00   6372   8.885  13.061   9.140
    1STR  S0E   6373   8.544  13.792   8.555
    1STR  S0M   6374   8.163  12.582   8.094
    1STR  S0X   6375   9.258  12.930   9.002
    1STR  S14   6376   8.975  13.396   9.301
    1STR  S1B   6377   8.231  13.077   9.346
    1HEX  C01   6378   8.972  12.936  12.365
    1HEX  C02   6379   8.931  12.932  12.513
    1HEX  C03   6380   8.779  12.927  12.524
    1HEX  O04   6381   8.717  12.824  12.498
    1HEX  O05   6382   8.727  13.045  12.559
    1HEX  C06   6383   8.586  13.061  12.565
    1HEX  C07   6384   8.535  13.057  12.711
    1HEX  C08   6385   8.585  13.185  12.781
    1HEX  O09   6386   8.520  13.306  12.745
    1HEX  C0A   6387   8.458  13.377  12.839
    1HEX  O0B   6388   8.411  13.332  12.944
    1HEX  C0C   6389   8.456  13.526  12.808
    1HEX  C0D   6390   8.459  13.610  12.937
    1HEX  C0F   6391   8.380  13.058  12.713
    1HEX  O0G   6392   8.331  12.937  12.654
    1HEX  C0H   6393   8.285  12.936  12.529
    1HEX  O0I   6394   8.256  13.035  12.462
    1HEX  C0J   6395   8.278  12.796  12.471
    1HEX  C0K   6396   8.160  12.718  12.529
    1HEX  C0N   6397   8.580  12.925  12.784
    1HEX  O0O   6398   8.716  12.904  12.826
    1HEX  C0P   6399   8.785  12.987  12.920
    1HEX  C0Q   6400   8.752  12.981  13.072
    1HEX  C0R   6401   8.785  12.839  13.126
    1HEX  O0S   6402   8.926  12.813  13.119
    1HEX  C0T   6403   9.000  12.808  13.232
    1HEX  O0U   6404   8.959  12.820  13.347
    1HEX  C0V   6405   9.148  12.784  13.203
    1HEX  C0W   6406   9.230  12.913  13.217
    1HEX  C0Y   6407   8.843  13.086  13.140
    1HEX  O0Z   6408   8.820  13.086  13.279
    1HEX  C10   6409   8.908  13.140  13.361
    1HEX  O11   6410   9.013  13.196  13.328
    1HEX  C12   6411   8.865  13.124  13.506
    1HEX  C13   6412   8.974  13.169  13.605
    1HEX  C15   6413   8.605  13.021  13.106
    1HEX  O16   6414   8.567  12.999  13.241
    1HEX  C17   6415   8.495  12.892  13.276
    1HEX  O18   6416   8.466  12.798  13.202
    1HEX  C19   6417   8.448  12.899  13.420
    1HEX  C1A   6418   8.366  13.026  13.442
    1HEX  H1D   6419   8.901  12.883  12.301
    1HEX  H1E   6420   8.977  13.039  12.328
    1HEX  H1F   6421   8.968  13.019  12.566
    1HEX  H1G   6422   8.970  12.843  12.562
    1HEX  H1H   6423   8.538  12.987  12.502
    1HEX  H1I   6424   8.561  13.157  12.519
    1HEX  H1J   6425   8.689  13.203  12.753
    1HEX  H1K   6426   8.583  13.172  12.888
    1HEX  H1M   6427   8.371  13.551  12.746
    1HEX  H1N   6428   8.546  13.547  12.750
    1HEX  H1O   6429   8.537  13.574  13.005
    1HEX  H1P   6430   8.364  13.601  12.990
    1HEX  H1Q   6431   8.663  13.806  12.879
    1HEX  H1R   6432   8.340  13.146  12.662
    1HEX  H1S   6433   8.343  13.064  12.815
    1HEX  H1T   6434   8.372  12.745  12.492
    1HEX  H1U   6435   8.270  12.804  12.363
    1HEX  H1V   6436   8.067  12.772  12.512
    1HEX  H1W   6437   8.171  12.706  12.637
    1HEX  H1X   6438   8.148  12.561  12.314
    1HEX  H1Y   6439   8.563  12.844  12.713
    1HEX  H1Z   6440   8.510  12.896  12.862
    1HEX  H20   6441   8.795  13.089  12.886
    1HEX  H21   6442   8.888  12.951  12.911
    1HEX  H22   6443   8.732  12.764  13.068
    1HEX  H23   6444   8.750  12.828  13.228
    1HEX  H24   6445   9.158  12.742  13.103
    1HEX  H25   6446   9.184  12.709  13.273
    1HEX  H26   6447   9.188  12.993  13.156
    1HEX  H27   6448   9.333  12.897  13.185
    1HEX  H28   6449   9.157  13.070  13.367
    1HEX  H29   6450   8.825  13.187  13.102
    1HEX  H2A   6451   8.949  13.065  13.119
    1HEX  H2B   6452   8.840  13.019  13.522
    1HEX  H2C   6453   8.774  13.182  13.518
    1HEX  H2D   6454   9.005  13.271  13.583
    1HEX  H2E   6455   9.062  13.106  13.593
    1HEX  H2F   6456   8.784  13.264  13.783
    1HEX  H2G   6457   8.532  12.973  13.044
    1HEX  H2H   6458   8.591  13.128  13.092
    1HEX  H2I   6459   8.536  12.897  13.485
    1HEX  H2J   6460   8.390  12.810  13.442
    1HEX  H2K   6461   8.285  13.032  13.368
    1HEX  H2M   6462   8.428  13.114  13.428
    1HEX  H2N   6463   8.212  12.952  13.627
    1STR  S00   6464   8.906  13.048  12.237
    1STR  S0E   6465   8.540  13.772  12.921
    1STR  S0M   6466   8.160  12.556  12.447
    1STR  S0X   6467   9.280  13.018  13.356
    1STR  S14   6468   8.889  13.183  13.765
    1STR  S1B   6469   8.299  13.052  13.608
    1HEX  C01   6470  13.353  17.286  16.752
    1HEX  C02   6471  13.292  17.289  16.893
    1HEX  C03   6472  13.140  17.289  16.884
    1HEX  O04   6473  13.079  17.190  16.846
    1HEX  O05   6474  13.087  17.408  16.918
    1HEX  C06   6475  12.945  17.422  16.924
    1HEX  C07   6476  12.896  17.417  17.070
    1HEX  C08   6477  12.946   0.105  17.141
    1HEX  O09   6478  12.881   0.226  17.104
    1HEX  C0A   6479  12.818   0.296  17.199
    1HEX  O0B   6480  12.770   0.251  17.302
    1HEX  C0C   6481  12.816   0.446  17.168
    1HEX  C0D   6482  12.819   0.529  17.297
    1HEX  C0F   6483  12.741  17.416  17.073
    1HEX  O0G   6484  12.692  17.296  17.015
    1HEX  C0H   6485  12.646  17.295  16.890
    1HEX  O0I   6486  12.618  17.393  16.822
    1HEX  C0J   6487  12.637  17.154  16.832
    1HEX  C0K   6488  12.518  17.077  16.891
    1HEX  C0N   6489  12.942  17.285  17.142
    1HEX  O0O   6490  13.078  17.265  17.184
    1HEX  C0P   6491  13.147  17.347  17.280
    1HEX  C0Q   6492  13.112  17.340  17.432
    1HEX  C0R   6493  13.146  17.198   0.045
    1HEX  O0S   6494  13.286  17.172   0.038
    1HEX  C0T   6495  13.360  17.167   0.151
    1HEX  O0U   6496  13.319  17.180   0.266
    1HEX  C0V   6497  13.508  17.144   0.122
    1HEX  C0W   6498  13.590  17.272   0.137
    1HEX  C0Y   6499  13.204   0.005   0.060
    1HEX  O0Z   6500  13.180   0.005   0.199
    1HEX  C10   6501  13.268   0.060   0.281
    1HEX  O11   6502  13.372   0.117   0.248
    1HEX  C12   6503  13.225   0.043   0.426
    1HEX  C13   6504  13.334   0.088   0.525
    1HEX  C15   6505  12.965  17.380   0.025
    1HEX  O16   6506  12.927  17.359   0.160
    1HEX  C17   6507  12.855  17.251   0.195
    1HEX  O18   6508  12.825  17.157   0.121
    1HEX  C19   6509  12.809  17.258   0.339
    1HEX  C1A   6510  12.726  17.385   0.361
    1HEX  H1C   6511  13.568  17.290  16.630
    1HEX  H1D   6512  13.319  17.198  16.699
    1HEX  H1E   6513  13.319  17.373  16.695
    1HEX  H1F   6514  13.324  17.377  16.948
    1HEX  H1G   6515  13.322  17.201  16.950
    1HEX  H1H   6516  12.897  17.347  16.861
    1HEX  H1I   6517  12.918   0.078  16.879
    1HEX  H1J   6518  13.050   0.122  17.114
    1HEX  H1K   6519  12.943   0.091  17.248
    1HEX  H1M   6520  12.730   0.471  17.106
    1HEX  H1N   6521  12.905   0.467  17.110
    1HEX  H1O   6522  12.896   0.493  17.365
    1HEX  H1P   6523  12.724   0.520  17.350
    1HEX  H1Q   6524  13.023   0.727  17.239
    1HEX  H1R   6525  12.699   0.065  17.024
    1HEX  H1S   6526  12.704  17.422  17.176
    1HEX  H1T   6527  12.731  17.103  16.853
    1HEX  H1U   6528  12.629  17.162  16.724
    1HEX  H1V   6529  12.426  17.132  16.874
    1HEX  H1W   6530  12.529  17.066  16.998
    1HEX  H1X   6531  12.508  16.918  16.674
    1HEX  H1Y   6532  12.926  17.204  17.071
    1HEX  H1Z   6533  12.873  17.254  17.220
    1HEX  H20   6534  13.157   0.009  17.246
    1HEX  H21   6535  13.250  17.311  17.271
    1HEX  H22   6536  13.092  17.123  17.427
    1HEX  H23   6537  13.110  17.187   0.147
    1HEX  H24   6538  13.518  17.102   0.022
    1HEX  H25   6539  13.545  17.069   0.193
    1HEX  H26   6540  13.548  17.352   0.075
    1HEX  H27   6541  13.693  17.257   0.105
    1HEX  H28   6542  13.516  17.429   0.287
    1HEX  H29   6543  13.185   0.106   0.022
    1HEX  H2A   6544  13.309  17.424   0.040
    1HEX  H2B   6545  13.201  17.378   0.442
    1HEX  H2C   6546  13.133   0.101   0.439
    1HEX  H2D   6547  13.365   0.190   0.503
    1HEX  H2E   6548  13.423   0.026   0.513
    1HEX  H2F   6549  13.143   0.183   0.703
    1HEX  H2G   6550  12.892  17.332  17.402
    1HEX  H2H   6551  12.951   0.047   0.011
    1HEX  H2I   6552  12.896  17.256   0.404
    1HEX  H2J   6553  12.750  17.169   0.361
    1HEX  H2K   6554  12.645  17.391   0.288
    1HEX  H2M   6555  12.788   0.034   0.347
    1HEX  H2N   6556  12.572  17.311   0.547
    1STR  S00   6557  13.534  17.296  16.759
    1STR  S0E   6558  12.902   0.689  17.281
    1STR  S0M   6559  12.519  16.916  16.807
    1STR  S0X   6560  13.639  17.378   0.276
    1STR  S14   6561  13.249   0.103   0.685
    1STR  S1B   6562  12.659  17.411   0.527
    1HEX  C01   6563  13.353  17.286   3.673
    1HEX  C02   6564  13.294  17.287   3.814
    1HEX  C03   6565  13.143  17.282   3.808
    1HEX  O04   6566  13.084  17.179   3.775
    1HEX  O05   6567  13.086  17.400   3.838
    1HEX  C06   6568  12.944  17.411   3.841
    1HEX  C07   6569  12.892  17.421   3.987
    1HEX  C08   6570  12.940   0.116   4.042
    1HEX  O09   6571  12.874   0.234   3.997
    1HEX  C0A   6572  12.811   0.311   4.088
    1HEX  O0B   6573  12.759   0.271   4.192
    1HEX  C0C   6574  12.817   0.459   4.054
    1HEX  C0D   6575  12.827   0.545   4.182
    1HEX  C0F   6576  12.737  17.418   3.987
    1HEX  O0G   6577  12.691  17.295   3.931
    1HEX  C0H   6578  12.644  17.291   3.805
    1HEX  O0I   6579  12.616  17.389   3.735
    1HEX  C0J   6580  12.636  17.150   3.750
    1HEX  C0K   6581  12.517  17.074   3.809
    1HEX  C0N   6582  12.936  17.300   4.078
    1HEX  O0O   6583  13.074  17.279   4.114
    1HEX  C0P   6584  13.146  17.363   4.204
    1HEX  C0Q   6585  13.118  17.362   4.359
    1HEX  C0R   6586  13.142  17.219   4.414
    1HEX  O0S   6587  13.280  17.182   4.404
    1HEX  C0T   6588  13.356  17.168   4.515
    1HEX  O0U   6589  13.317  17.175   4.631
    1HEX  C0V   6590  13.502  17.142   4.483
    1HEX  C0W   6591  13.588  17.268   4.498
    1HEX  C0Y   6592  13.222   0.018   4.421
    1HEX  O0Z   6593  13.208   0.006   4.561
    1HEX  C10   6594  13.290   0.067   4.643
    1HEX  O11   6595  13.391   0.130   4.612
    1HEX  C12   6596  13.244   0.048   4.786
    1HEX  C13   6597  13.348   0.092   4.889
    1HEX  C15   6598  12.975  17.415   4.396
    1HEX  O16   6599  12.959   0.062   4.509
    1HEX  C17   6600  12.844   0.135   4.519
    1HEX  O18   6601  12.741   0.109   4.458
    1HEX  C19   6602  12.850   0.252   4.618
    1HEX  C1A   6603  12.876   0.395   4.556
    1HEX  H1C   6604  13.568  17.290   3.549
    1HEX  H1D   6605  13.319  17.198   3.619
    1HEX  H1E   6606  13.317  17.373   3.617
    1HEX  H1F   6607  13.325  17.376   3.869
    1HEX  H1G   6608  13.328  17.200   3.871
    1HEX  H1H   6609  12.898  17.330   3.786
    1HEX  H1I   6610  12.917   0.062   3.787
    1HEX  H1J   6611  13.045   0.131   4.022
    1HEX  H1K   6612  12.929   0.114   4.147
    1HEX  H1M   6613  12.730   0.486   3.995
    1HEX  H1N   6614  12.905   0.474   3.992
    1HEX  H1O   6615  12.909   0.511   4.245
    1HEX  H1P   6616  12.737   0.534   4.242
    1HEX  H1Q   6617  13.025   0.700   4.122
    1HEX  H1R   6618  12.695   0.065   3.934
    1HEX  H1S   6619  12.698  17.426   4.088
    1HEX  H1T   6620  12.730  17.099   3.771
    1HEX  H1U   6621  12.628  17.157   3.641
    1HEX  H1V   6622  12.424  17.130   3.792
    1HEX  H1W   6623  12.528  17.064   3.917
    1HEX  H1X   6624  12.507  16.918   3.594
    1HEX  H1Y   6625  12.910  17.209   4.024
    1HEX  H1Z   6626  12.876  17.295   4.168
    1HEX  H20   6627  13.152   0.025   4.167
    1HEX  H21   6628  13.249  17.327   4.192
    1HEX  H22   6629  13.083  17.146   4.358
    1HEX  H23   6630  13.106  17.212   4.517
    1HEX  H24   6631  13.510  17.102   4.382
    1HEX  H25   6632  13.539  17.065   4.551
    1HEX  H26   6633  13.550  17.350   4.437
    1HEX  H27   6634  13.691  17.250   4.467
    1HEX  H28   6635  13.525  17.430   4.649
    1HEX  H29   6636  13.205   0.121   4.391
    1HEX  H2A   6637  13.324  17.432   4.392
    1HEX  H2B   6638  13.218  17.383   4.800
    1HEX  H2C   6639  13.151   0.105   4.795
    1HEX  H2D   6640  13.381   0.194   4.868
    1HEX  H2E   6641  13.437   0.029   4.880
    1HEX  H2F   6642  13.144   0.186   5.062
    1HEX  H2G   6643  12.899  17.337   4.394
    1HEX  H2H   6644  12.948   0.044   4.320
    1HEX  H2I   6645  12.923   0.229   4.696
    1HEX  H2J   6646  12.753   0.252   4.668
    1HEX  H2K   6647  12.794   0.464   4.578
    1HEX  H2M   6648  12.967   0.438   4.596
    1STR  S00   6649  13.534  17.295   3.679
    1STR  S0E   6650  12.893   0.709   4.143
    1STR  S0M   6651  12.519  16.912   3.727
    1STR  S0X   6652  13.644  17.370   4.637
    1STR  S14   6653  13.251   0.110   5.042
    1STR  S1B   6654  12.879   0.580   4.532
    1HEX  C01   6655  13.355  17.287   8.032
    1HEX  C02   6656  13.290  17.292   8.170
    1HEX  C03   6657  13.139  17.296   8.155
    1HEX  O04   6658  13.076  17.199   8.114
    1HEX  O05   6659  13.087  17.415   8.190
    1HEX  C06   6660  12.945  17.431   8.199
    1HEX  C07   6661  12.899  17.421   8.347
    1HEX  C08   6662  12.945   0.108   8.420
    1HEX  O09   6663  12.880   0.228   8.384
    1HEX  C0A   6664  12.816   0.299   8.478
    1HEX  O0B   6665  12.767   0.253   8.581
    1HEX  C0C   6666  12.815   0.448   8.449
    1HEX  C0D   6667  12.819   0.531   8.578
    1HEX  C0F   6668  12.744  17.414   8.353
    1HEX  O0G   6669  12.699  17.293   8.294
    1HEX  C0H   6670  12.648  17.292   8.170
    1HEX  O0I   6671  12.616  17.391   8.105
    1HEX  C0J   6672  12.638  17.152   8.112
    1HEX  C0K   6673  12.519  17.076   8.170
    1HEX  C0N   6674  12.955  17.291   8.415
    1HEX  O0O   6675  13.094  17.287   8.457
    1HEX  C0P   6676  13.152  17.362   8.566
    1HEX  C0Q   6677  13.120  17.321   8.713
    1HEX  C0R   6678  13.167  17.174   8.730
    1HEX  O0S   6679  13.308  17.167   8.701
    1HEX  C0T   6680  13.397  17.119   8.791
    1HEX  O0U   6681  13.371  17.070   8.900
    1HEX  C0V   6682  13.541  17.133   8.746
    1HEX  C0W   6683  13.607  17.258   8.805
    1HEX  C0Y   6684  13.201  17.410   8.813
    1HEX  O0Z   6685  13.157  17.375   8.944
    1HEX  C10   6686  13.235  17.309   9.030
    1HEX  O11   6687  13.355  17.327   9.043
    1HEX  C12   6688  13.153  17.216   9.121
    1HEX  C13   6689  13.129  17.068   9.072
    1HEX  C15   6690  12.969  17.346   8.743
    1HEX  O16   6691  12.922  17.320   8.874
    1HEX  C17   6692  12.838  17.219   8.899
    1HEX  O18   6693  12.810  17.128   8.822
    1HEX  C19   6694  12.774  17.230   9.037
    1HEX  C1A   6695  12.721  17.372   9.061
    1HEX  H1C   6696  13.568  17.290   7.909
    1HEX  H1D   6697  13.322  17.198   7.979
    1HEX  H1E   6698  13.323  17.373   7.972
    1HEX  H1F   6699  13.323  17.380   8.226
    1HEX  H1G   6700  13.316  17.205   8.229
    1HEX  H1H   6701  12.896  17.357   8.136
    1HEX  H1I   6702  12.917   0.087   8.157
    1HEX  H1J   6703  13.050   0.125   8.397
    1HEX  H1K   6704  12.938   0.092   8.528
    1HEX  H1M   6705  12.730   0.474   8.387
    1HEX  H1N   6706  12.905   0.469   8.390
    1HEX  H1O   6707  12.896   0.493   8.646
    1HEX  H1P   6708  12.724   0.521   8.632
    1HEX  H1Q   6709  13.022   0.727   8.519
    1HEX  H1R   6710  12.698   0.062   8.307
    1HEX  H1S   6711  12.710  17.416   8.457
    1HEX  H1T   6712  12.732  17.100   8.132
    1HEX  H1U   6713  12.630  17.161   8.004
    1HEX  H1V   6714  12.427  17.132   8.154
    1HEX  H1W   6715  12.530  17.064   8.278
    1HEX  H1X   6716  12.506  16.918   7.952
    1HEX  H1Y   6717  12.948  17.212   8.340
    1HEX  H1Z   6718  12.886  17.250   8.487
    1HEX  H20   6719  13.145   0.029   8.554
    1HEX  H21   6720  13.259  17.347   8.550
    1HEX  H22   6721  13.113  17.108   8.662
    1HEX  H23   6722  13.143  17.138   8.829
    1HEX  H24   6723  13.546  17.131   8.638
    1HEX  H25   6724  13.594  17.044   8.783
    1HEX  H26   6725  13.559  17.349   8.768
    1HEX  H27   6726  13.713  17.263   8.778
    1HEX  H28   6727  13.539  17.369   9.001
    1HEX  H29   6728  13.181   0.076   8.796
    1HEX  H2A   6729  13.309  17.398   8.801
    1HEX  H2B   6730  13.059  17.267   9.136
    1HEX  H2C   6731  13.203  17.217   9.218
    1HEX  H2D   6732  13.055  17.016   9.134
    1HEX  H2E   6733  13.221  17.009   9.078
    1HEX  H2G   6734  12.904  17.293   8.676
    1HEX  H2H   6735  12.947   0.012   8.727
    1HEX  H2I   6736  12.847  17.203   9.112
    1HEX  H2J   6737  12.693  17.157   9.043
    1HEX  H2K   6738  12.649  17.400   8.984
    1HEX  H2M   6739  12.801   0.006   9.057
    1HEX  H2N   6740  12.569  17.317   9.264
    1STR  S00   6741  13.536  17.298   8.039
    1STR  S0E   6742  12.901   0.691   8.562
    1STR  S0M   6743  12.517  16.916   8.085
    1STR  S0X   6744  13.660  17.366   8.941
    1STR  S14   6745  13.098  16.893   9.010
    1STR  S1B   6746  12.675  17.394   9.235
    1HEX  C01   6747  13.415  17.294  12.354
    1HEX  C02   6748  13.339  17.289  12.486
    1HEX  C03   6749  13.191  17.283  12.459
    1HEX  O04   6750  13.142  17.186  12.401
    1HEX  O05   6751  13.126  17.387  12.513
    1HEX  C06   6752  12.985  17.379  12.526
    1HEX  C07   6753  12.941  17.354  12.674
    1HEX  C08   6754  12.946   0.048  12.752
    1HEX  O09   6755  12.844   0.075  12.851
    1HEX  C0A   6756  12.762  17.426  12.920
    1HEX  O0B   6757  12.644   0.011  12.940
    1HEX  C0C   6758  12.828  17.309  12.995
    1HEX  C0D   6759  12.828  17.150  12.964
    1HEX  C0F   6760  12.790  17.318  12.655
    1HEX  O0G   6761  12.762  17.216  12.562
    1HEX  C0H   6762  12.664  17.232  12.473
    1HEX  O0I   6763  12.609  17.338  12.443
    1HEX  C0J   6764  12.622  17.101  12.412
    1HEX  C0K   6765  12.505  17.043  12.493
    1HEX  C0N   6766  13.033  17.242  12.742
    1HEX  O0O   6767  13.080  17.239  12.882
    1HEX  C0P   6768  13.177  17.323  12.950
    1HEX  C0Q   6769  13.189  17.297  13.109
    1HEX  C0R   6770  13.247  17.156  13.135
    1HEX  O0S   6771  13.389  17.154  13.133
    1HEX  C0T   6772  13.456  17.151  13.250
    1HEX  O0U   6773  13.407  17.153  13.363
    1HEX  C0V   6774  13.606  17.147  13.229
    1HEX  C0W   6775  13.664  17.288  13.219
    1HEX  C0Y   6776  13.272  17.412  13.170
    1HEX  O0Z   6777  13.260  17.408  13.310
    1HEX  C10   6778  13.299   0.069  13.385
    1HEX  O11   6779  13.369   0.163  13.348
    1HEX  C12   6780  13.243   0.060  13.526
    1HEX  C13   6781  13.347   0.099  13.632
    1HEX  C15   6782  13.052  17.298  13.183
    1HEX  O16   6783  13.033  17.275  13.323
    1HEX  C17   6784  12.912  17.226  13.363
    1HEX  O18   6785  12.837  17.157  13.295
    1HEX  C19   6786  12.864  17.277  13.497
    1HEX  C1A   6787  12.765  17.392  13.474
    1HEX  H1C   6788  13.586  17.292  12.272
    1HEX  H1D   6789  13.391  17.205  12.295
    1HEX  H1E   6790  13.380  17.380  12.296
    1HEX  H1F   6791  13.360  17.376  12.548
    1HEX  H1G   6792  13.365  17.200  12.544
    1HEX  H1H   6793  12.947  17.303  12.459
    1HEX  H1I   6794  12.940   0.030  12.485
    1HEX  H1J   6795  12.934   0.130  12.681
    1HEX  H1K   6796  13.046   0.069  12.788
    1HEX  H1M   6797  12.799  17.326  13.099
    1HEX  H1N   6798  12.926  17.351  12.984
    1HEX  H1O   6799  12.926  17.103  12.971
    1HEX  H1P   6800  12.767  17.099  13.038
    1HEX  H1R   6801  12.734  17.410  12.632
    1HEX  H1S   6802  12.741  17.277  12.742
    1HEX  H1T   6803  12.709  17.035  12.414
    1HEX  H1U   6804  12.595  17.118  12.308
    1HEX  H1V   6805  12.420  17.111  12.489
    1HEX  H1W   6806  12.532  17.033  12.598
    1HEX  H1X   6807  12.482  16.906  12.312
    1HEX  H1Y   6808  13.114  17.208  12.679
    1HEX  H1Z   6809  12.969  17.154  12.736
    1HEX  H20   6810  13.152  17.427  12.938
    1HEX  H21   6811  13.275  17.310  12.904
    1HEX  H22   6812  13.209  17.086  13.061
    1HEX  H23   6813  13.210  17.117  13.230
    1HEX  H24   6814  13.625  17.089  13.139
    1HEX  H25   6815  13.650  17.093  13.313
    1HEX  H26   6816  13.603  17.351  13.155
    1HEX  H27   6817  13.764  17.285  13.176
    1HEX  H28   6818  13.539  17.419  13.383
    1HEX  H29   6819  13.234   0.069  13.136
    1HEX  H2A   6820  13.377  17.409  13.141
    1HEX  H2B   6821  13.209  17.398  13.542
    1HEX  H2C   6822  13.156   0.125  13.530
    1HEX  H2D   6823  13.383   0.200  13.614
    1HEX  H2E   6824  13.434   0.034  13.623
    1HEX  H2F   6825  13.145   0.186  13.787
    1HEX  H2G   6826  12.999  17.216  13.137
    1HEX  H2H   6827  13.004  17.394  13.168
    1HEX  H2I   6828  12.947  17.307  13.561
    1HEX  H2J   6829  12.813  17.195  13.547
    1HEX  H2K   6830  12.685  17.361  13.405
    1HEX  H2M   6831  12.815   0.037  13.428
    1HEX  H2N   6832  12.563  17.333  13.622
    1STR  S00   6833  13.588  17.292  12.406
    1STR  S0E   6834  12.929  16.984  12.982
    1STR  S0M   6835  12.500  16.870  12.440
    1STR  S0X   6836  13.670  17.408  13.356
    1STR  S14   6837  13.248   0.101  13.784
    1STR  S1B   6838  12.640  17.439  13.597
    1HEX  C01   6839  13.332   3.988  16.885
    1HEX  C02   6840  13.226   3.987  17.000
    1HEX  C03   6841  13.084   4.048  16.983
    1HEX  O04   6842  12.988   3.972  16.970
    1HEX  O05   6843  13.075   4.185  16.985
    1HEX  C06   6844  12.952   4.255  16.951
    1HEX  C07   6845  12.868   4.314  17.070
    1HEX  C08   6846  12.915   4.455  17.115
    1HEX  O09   6847  12.844   4.574  17.081
    1HEX  C0A   6848  12.800   4.653  17.182
    1HEX  O0B   6849  12.755   4.612  17.289
    1HEX  C0C   6850  12.820   4.802  17.156
    1HEX  C0D   6851  12.826   4.882  17.287
    1HEX  C0F   6852  12.718   4.331  17.035
    1HEX  O0G   6853  12.666   4.209  16.987
    1HEX  C0H   6854  12.632   4.198  16.858
    1HEX  O0I   6855  12.612   4.291  16.780
    1HEX  C0J   6856  12.627   4.054  16.813
    1HEX  C0K   6857  12.511   3.981  16.879
    1HEX  C0N   6858  12.877   4.213  17.188
    1HEX  O0O   6859  13.008   4.185  17.238
    1HEX  C0P   6860  13.097   4.288  17.284
    1HEX  C0Q   6861  13.126   4.282  17.435
    1HEX  C0R   6862  13.211   4.152   0.011
    1HEX  O0S   6863  13.296   4.126  17.335
    1HEX  C0T   6864  13.405   4.203  17.302
    1HEX  O0U   6865  13.473   4.260  17.387
    1HEX  C0V   6866  13.447   4.211  17.152
    1HEX  C0W   6867  13.360   4.285  17.038
    1HEX  C0Y   6868  13.205   4.411   0.040
    1HEX  O0Z   6869  13.164   4.475   0.161
    1HEX  C10   6870  13.242   4.577   0.209
    1HEX  O11   6871  13.354   4.604   0.167
    1HEX  C12   6872  13.179   4.660   0.320
    1HEX  C13   6873  13.181   4.813   0.289
    1HEX  C15   6874  12.984   4.285   0.061
    1HEX  O16   6875  12.969   4.248   0.197
    1HEX  C17   6876  12.872   4.159   0.229
    1HEX  O18   6877  12.824   4.074   0.154
    1HEX  C19   6878  12.815   4.179   0.368
    1HEX  C1A   6879  12.729   4.306   0.372
    1HEX  H1C   6880  13.490   4.125  16.667
    1HEX  H1D   6881  13.297   3.953  16.787
    1HEX  H1E   6882  13.393   4.076  16.873
    1HEX  H1F   6883  13.267   4.028  17.092
    1HEX  H1G   6884  13.209   3.882  17.022
    1HEX  H1H   6885  12.889   4.186  16.896
    1HEX  H1I   6886  12.975   4.334  16.880
    1HEX  H1J   6887  13.018   4.472  17.083
    1HEX  H1K   6888  12.909   4.453  17.224
    1HEX  H1M   6889  12.740   4.838  17.091
    1HEX  H1N   6890  12.914   4.813  17.102
    1HEX  H1O   6891  12.903   4.843  17.354
    1HEX  H1P   6892  12.732   4.876  17.341
    1HEX  H1Q   6893  13.018   5.076  17.246
    1HEX  H1R   6894  12.704   4.413  16.964
    1HEX  H1S   6895  12.662   4.361  17.124
    1HEX  H1T   6896  12.723   4.007  16.838
    1HEX  H1U   6897  12.619   4.055  16.704
    1HEX  H1V   6898  12.418   4.037  16.866
    1HEX  H1W   6899  12.528   3.973  16.987
    1HEX  H1X   6900  12.501   3.844  16.669
    1HEX  H1Y   6901  12.840   4.117  17.152
    1HEX  H1Z   6902  12.807   4.240  17.267
    1HEX  H20   6903  13.086   4.390  17.258
    1HEX  H21   6904  13.182   4.272  17.219
    1HEX  H22   6905  13.141   4.068   0.020
    1HEX  H23   6906  13.267   4.152   0.105
    1HEX  H24   6907  13.472   4.109  17.122
    1HEX  H25   6908  13.543   4.261  17.155
    1HEX  H26   6909  13.326   4.382  17.072
    1HEX  H27   6910  13.419   4.302  16.948
    1HEX  H29   6911  13.199   4.490  17.405
    1HEX  H2A   6912  13.311   4.390   0.049
    1HEX  H2B   6913  13.235   4.638   0.411
    1HEX  H2C   6914  13.077   4.625   0.338
    1HEX  H2D   6915  13.279   4.845   0.254
    1HEX  H2E   6916  13.158   4.873   0.378
    1HEX  H2G   6917  12.916   4.225   0.004
    1HEX  H2H   6918  12.943   4.386   0.050
    1HEX  H2I   6919  12.897   4.184   0.439
    1HEX  H2J   6920  12.755   4.091   0.392
    1HEX  H2K   6921  12.651   4.302   0.295
    1HEX  H2M   6922  12.789   4.394   0.352
    1HEX  H2N   6923  12.573   4.232   0.547
    1STR  S00   6924  13.458   4.035  16.762
    1STR  S0E   6925  12.891   5.051  17.281
    1STR  S0M   6926  12.518   3.818  16.799
    1STR  S0X   6927  13.294   4.325  16.863
    1STR  S14   6928  13.181   4.992   0.249
    1STR  S1B   6929  12.656   4.336   0.535
    1HEX  C01   6930  13.348   4.207   3.672
    1HEX  C02   6931  13.282   4.209   3.810
    1HEX  C03   6932  13.131   4.203   3.797
    1HEX  O04   6933  13.075   4.102   3.754
    1HEX  O05   6934  13.070   4.317   3.837
    1HEX  C06   6935  12.929   4.319   3.852
    1HEX  C07   6936  12.888   4.309   4.001
    1HEX  C08   6937  12.915   4.448   4.066
    1HEX  O09   6938  12.803   4.537   4.067
    1HEX  C0A   6939  12.740   4.564   4.184
    1HEX  O0B   6940  12.765   4.511   4.292
    1HEX  C0C   6941  12.630   4.668   4.175
    1HEX  C0D   6942  12.505   4.624   4.254
    1HEX  C0F   6943  12.736   4.276   4.012
    1HEX  O0G   6944  12.714   4.138   3.987
    1HEX  C0H   6945  12.680   4.094   3.865
    1HEX  O0I   6946  12.633   4.164   3.775
    1HEX  C0J   6947  12.711   3.946   3.842
    1HEX  C0K   6948  12.726   3.860   3.970
    1HEX  C0N   6949  12.962   4.189   4.072
    1HEX  O0O   6950  13.102   4.194   4.100
    1HEX  C0P   6951  13.159   4.280   4.198
    1HEX  C0Q   6952  13.122   4.265   4.350
    1HEX  C0R   6953  13.153   4.120   4.397
    1HEX  O0S   6954  13.293   4.093   4.394
    1HEX  C0T   6955  13.364   4.085   4.508
    1HEX  O0U   6956  13.321   4.096   4.623
    1HEX  C0V   6957  13.512   4.063   4.483
    1HEX  C0W   6958  13.593   4.192   4.497
    1HEX  C0Y   6959  13.214   4.366   4.423
    1HEX  O0Z   6960  13.188   4.362   4.561
    1HEX  C10   6961  13.271   4.421   4.645
    1HEX  O11   6962  13.373   4.483   4.614
    1HEX  C12   6963  13.226   4.403   4.789
    1HEX  C13   6964  13.333   4.447   4.889
    1HEX  C15   6965  12.976   4.305   4.386
    1HEX  O16   6966  12.936   4.278   4.520
    1HEX  C17   6967  12.858   4.173   4.549
    1HEX  O18   6968  12.828   4.082   4.472
    1HEX  C19   6969  12.806   4.180   4.691
    1HEX  C1A   6970  12.721   4.307   4.709
    1HEX  H1C   6971  13.567   4.210   3.549
    1HEX  H1D   6972  13.319   4.117   3.618
    1HEX  H1E   6973  13.314   4.292   3.613
    1HEX  H1F   6974  13.311   4.299   3.866
    1HEX  H1G   6975  13.314   4.124   3.870
    1HEX  H1H   6976  12.883   4.241   3.791
    1HEX  H1I   6977  12.891   4.412   3.808
    1HEX  H1J   6978  12.998   4.498   4.015
    1HEX  H1K   6979  12.951   4.436   4.167
    1HEX  H1M   6980  12.606   4.686   4.070
    1HEX  H1N   6981  12.671   4.761   4.215
    1HEX  H1O   6982  12.529   4.585   4.353
    1HEX  H1P   6983  12.435   4.707   4.269
    1HEX  H1R   6984  12.676   4.341   3.947
    1HEX  H1S   6985  12.701   4.296   4.113
    1HEX  H1T   6986  12.805   3.943   3.787
    1HEX  H1U   6987  12.634   3.906   3.776
    1HEX  H1V   6988  12.704   3.755   3.952
    1HEX  H1W   6989  12.661   3.895   4.051
    1HEX  H1Y   6990  12.955   4.105   4.003
    1HEX  H1Z   6991  12.907   4.150   4.157
    1HEX  H20   6992  13.154   4.383   4.165
    1HEX  H21   6993  13.265   4.257   4.190
    1HEX  H22   6994  13.101   4.048   4.335
    1HEX  H23   6995  13.114   4.104   4.498
    1HEX  H24   6996  13.524   4.019   4.384
    1HEX  H25   6997  13.548   3.989   4.555
    1HEX  H26   6998  13.551   4.272   4.436
    1HEX  H27   6999  13.697   4.177   4.465
    1HEX  H28   7000  13.515   4.350   4.647
    1HEX  H29   7001  13.196   4.468   4.388
    1HEX  H2A   7002  13.319   4.345   4.404
    1HEX  H2B   7003  13.201   4.298   4.803
    1HEX  H2C   7004  13.134   4.461   4.800
    1HEX  H2D   7005  13.364   4.550   4.869
    1HEX  H2E   7006  13.422   4.386   4.877
    1HEX  H2F   7007  13.143   4.544   5.061
    1HEX  H2G   7008  12.900   4.266   4.320
    1HEX  H2H   7009  12.968   4.413   4.379
    1HEX  H2I   7010  12.891   4.180   4.759
    1HEX  H2J   7011  12.747   4.091   4.712
    1HEX  H2K   7012  12.642   4.311   4.634
    1HEX  H2M   7013  12.782   4.396   4.695
    1HEX  H2N   7014  12.579   4.234   4.897
    1STR  S00   7015  13.529   4.217   3.678
    1STR  S0E   7016  12.363   4.527   4.314
    1STR  S0M   7017  12.785   3.708   4.052
    1STR  S0X   7018  13.639   4.299   4.636
    1STR  S14   7019  13.249   4.463   5.049
    1STR  S1B   7020  12.668   4.333   4.881
    1HEX  C01   7021  13.354   4.206   8.031
    1HEX  C02   7022  13.292   4.209   8.171
    1HEX  C03   7023  13.140   4.210   8.161
    1HEX  O04   7024  13.078   4.111   8.121
    1HEX  O05   7025  13.086   4.328   8.198
    1HEX  C06   7026  12.945   4.342   8.205
    1HEX  C07   7027  12.896   4.336   8.352
    1HEX  C08   7028  12.940   4.467   8.423
    1HEX  O09   7029  12.846   4.575   8.419
    1HEX  C0A   7030  12.770   4.600   8.528
    1HEX  O0B   7031  12.769   4.532   8.631
    1HEX  C0C   7032  12.683   4.724   8.516
    1HEX  C0D   7033  12.551   4.709   8.595
    1HEX  C0F   7034  12.741   4.329   8.354
    1HEX  O0G   7035  12.697   4.209   8.293
    1HEX  C0H   7036  12.645   4.211   8.169
    1HEX  O0I   7037  12.613   4.311   8.105
    1HEX  C0J   7038  12.635   4.071   8.110
    1HEX  C0K   7039  12.517   3.995   8.170
    1HEX  C0N   7040  12.946   4.205   8.422
    1HEX  O0O   7041  13.083   4.187   8.461
    1HEX  C0P   7042  13.151   4.269   8.556
    1HEX  C0Q   7043  13.116   4.261   8.709
    1HEX  C0R   7044  13.149   4.119   8.761
    1HEX  O0S   7045  13.289   4.093   8.756
    1HEX  C0T   7046  13.362   4.087   8.870
    1HEX  O0U   7047  13.320   4.099   8.984
    1HEX  C0V   7048  13.509   4.064   8.842
    1HEX  C0W   7049  13.591   4.193   8.857
    1HEX  C0Y   7050  13.206   4.366   8.778
    1HEX  O0Z   7051  13.182   4.364   8.917
    1HEX  C10   7052  13.268   4.420   9.000
    1HEX  O11   7053  13.372   4.479   8.968
    1HEX  C12   7054  13.225   4.403   9.145
    1HEX  C13   7055  13.333   4.448   9.244
    1HEX  C15   7056  12.969   4.301   8.744
    1HEX  O16   7057  12.931   4.278   8.879
    1HEX  C17   7058  12.857   4.172   8.912
    1HEX  O18   7059  12.829   4.077   8.839
    1HEX  C19   7060  12.807   4.180   9.055
    1HEX  C1A   7061  12.724   4.308   9.075
    1HEX  H1C   7062  13.569   4.210   7.909
    1HEX  H1D   7063  13.321   4.116   7.978
    1HEX  H1E   7064  13.321   4.292   7.973
    1HEX  H1F   7065  13.325   4.296   8.227
    1HEX  H1G   7066  13.321   4.121   8.228
    1HEX  H1H   7067  12.897   4.267   8.143
    1HEX  H1I   7068  12.917   4.437   8.160
    1HEX  H1J   7069  13.034   4.504   8.379
    1HEX  H1K   7070  12.965   4.448   8.526
    1HEX  H1M   7071  12.663   4.743   8.411
    1HEX  H1N   7072  12.742   4.809   8.553
    1HEX  H1O   7073  12.567   4.673   8.697
    1HEX  H1P   7074  12.498   4.804   8.603
    1HEX  H1R   7075  12.696   4.417   8.307
    1HEX  H1S   7076  12.704   4.329   8.457
    1HEX  H1T   7077  12.729   4.019   8.128
    1HEX  H1U   7078  12.624   4.081   8.002
    1HEX  H1V   7079  12.424   4.051   8.156
    1HEX  H1W   7080  12.530   3.983   8.278
    1HEX  H1X   7081  12.506   3.839   7.951
    1HEX  H1Y   7082  12.930   4.124   8.350
    1HEX  H1Z   7083  12.879   4.172   8.501
    1HEX  H20   7084  13.159   4.371   8.520
    1HEX  H21   7085  13.254   4.235   8.548
    1HEX  H22   7086  13.095   4.044   8.703
    1HEX  H23   7087  13.112   4.107   8.864
    1HEX  H24   7088  13.520   4.021   8.743
    1HEX  H25   7089  13.546   3.989   8.913
    1HEX  H26   7090  13.549   4.273   8.796
    1HEX  H27   7091  13.694   4.178   8.824
    1HEX  H28   7092  13.515   4.350   9.006
    1HEX  H29   7093  13.187   4.467   8.741
    1HEX  H2A   7094  13.312   4.346   8.758
    1HEX  H2B   7095  13.200   4.298   9.160
    1HEX  H2C   7096  13.133   4.460   9.157
    1HEX  H2D   7097  13.364   4.550   9.223
    1HEX  H2E   7098  13.421   4.385   9.232
    1HEX  H2F   7099  13.144   4.544   9.422
    1HEX  H2G   7100  12.894   4.255   8.680
    1HEX  H2H   7101  12.956   4.408   8.731
    1HEX  H2I   7102  12.893   4.180   9.122
    1HEX  H2J   7103  12.748   4.092   9.078
    1HEX  H2K   7104  12.644   4.313   9.000
    1HEX  H2M   7105  12.786   4.396   9.060
    1HEX  H2N   7106  12.578   4.233   9.262
    1STR  S00   7107  13.535   4.215   8.038
    1STR  S0E   7108  12.394   4.636   8.651
    1STR  S0M   7109  12.518   3.835   8.084
    1STR  S0X   7110  13.639   4.299   8.995
    1STR  S14   7111  13.249   4.464   9.404
    1STR  S1B   7112  12.667   4.332   9.245
    1HEX  C01   7113  13.398   4.261  12.329
    1HEX  C02   7114  13.340   4.297  12.466
    1HEX  C03   7115  13.199   4.355  12.458
    1HEX  O04   7116  13.136   4.366  12.353
    1HEX  O05   7117  13.157   4.390  12.579
    1HEX  C06   7118  13.026   4.439  12.605
    1HEX  C07   7119  12.978   4.379  12.740
    1HEX  C08   7120  12.877   4.478  12.815
    1HEX  O09   7121  12.866   4.615  12.769
    1HEX  C0A   7122  12.830   4.715  12.858
    1HEX  O0B   7123  12.787   4.695  12.971
    1HEX  C0C   7124  12.847   4.858  12.804
    1HEX  C0D   7125  12.872   4.971  12.909
    1HEX  C0F   7126  12.930   4.229  12.714
    1HEX  O0G   7127  13.029   4.128  12.756
    1HEX  C0H   7128  13.144   4.095  12.685
    1HEX  O0I   7129  13.143   4.084  12.563
    1HEX  C0J   7130  13.271   4.052  12.772
    1HEX  C0K   7131  13.404   4.143  12.811
    1HEX  C0N   7132  13.094   4.356  12.838
    1HEX  O0O   7133  13.137   4.465  12.911
    1HEX  C0P   7134  13.214   4.420  13.020
    1HEX  C0Q   7135  13.140   4.343  13.136
    1HEX  C0R   7136  13.157   4.188  13.134
    1HEX  O0S   7137  13.293   4.147  13.139
    1HEX  C0T   7138  13.337   4.076  13.246
    1HEX  O0U   7139  13.270   4.037  13.341
    1HEX  C0V   7140  13.485   4.047  13.239
    1HEX  C0W   7141  13.565   4.157  13.307
    1HEX  C0Y   7142  13.217   4.402  13.254
    1HEX  O0Z   7143  13.179   4.356  13.380
    1HEX  C10   7144  13.243   4.410  13.481
    1HEX  O11   7145  13.341   4.485  13.472
    1HEX  C12   7146  13.181   4.374  13.613
    1HEX  C13   7147  13.275   4.408  13.728
    1HEX  C15   7148  12.987   4.375  13.149
    1HEX  O16   7149  12.929   4.332  13.273
    1HEX  C17   7150  12.863   4.215  13.285
    1HEX  O18   7151  12.847   4.132  13.196
    1HEX  C19   7152  12.807   4.193  13.424
    1HEX  C1A   7153  12.711   4.308  13.460
    1HEX  H1C   7154  13.572   4.193  12.246
    1HEX  H1D   7155  13.341   4.178  12.286
    1HEX  H1E   7156  13.387   4.345  12.261
    1HEX  H1F   7157  13.402   4.369  12.519
    1HEX  H1G   7158  13.338   4.208  12.528
    1HEX  H1H   7159  12.957   4.415  12.524
    1HEX  H1I   7160  13.032   4.548  12.608
    1HEX  H1J   7161  12.916   4.496  12.914
    1HEX  H1K   7162  12.780   4.434  12.840
    1HEX  H1M   7163  12.759   4.883  12.746
    1HEX  H1N   7164  12.931   4.857  12.735
    1HEX  H1O   7165  12.952   4.945  12.978
    1HEX  H1P   7166  12.784   4.987  12.972
    1HEX  H1R   7167  12.896   4.213  12.611
    1HEX  H1S   7168  12.840   4.211  12.773
    1HEX  H1T   7169  13.307   3.968  12.713
    1HEX  H1U   7170  13.229   4.006  12.861
    1HEX  H1V   7171  13.496   4.089  12.790
    1HEX  H1W   7172  13.404   4.167  12.917
    1HEX  H1Y   7173  13.182   4.311  12.793
    1HEX  H1Z   7174  13.055   4.284  12.909
    1HEX  H20   7175  13.251   4.517  13.052
    1HEX  H21   7176  13.304   4.367  12.988
    1HEX  H22   7177  13.109   4.138  13.050
    1HEX  H23   7178  13.104   4.146  13.220
    1HEX  H24   7179  13.515   4.036  13.135
    1HEX  H25   7180  13.505   3.951  13.288
    1HEX  H26   7181  13.537   4.255  13.267
    1HEX  H27   7182  13.670   4.143  13.281
    1HEX  H28   7183  13.462   4.335  13.453
    1HEX  H29   7184  13.203   4.510  13.256
    1HEX  H2A   7185  13.323   4.382  13.241
    1HEX  H2B   7186  13.158   4.267  13.611
    1HEX  H2C   7187  13.087   4.429  13.618
    1HEX  H2D   7188  13.305   4.513  13.724
    1HEX  H2E   7189  13.366   4.349  13.722
    1HEX  H2G   7190  12.928   4.331  13.069
    1HEX  H2H   7191  12.970   4.483  13.141
    1HEX  H2I   7192  12.889   4.189  13.495
    1HEX  H2J   7193  12.756   4.097  13.430
    1HEX  H2K   7194  12.633   4.315  13.384
    1HEX  H2M   7195  12.764   4.403  13.461
    1HEX  H2N   7196  12.573   4.228  13.630
    1STR  S00   7197  13.563   4.200  12.379
    1STR  S0E   7198  12.957   5.093  13.018
    1STR  S0M   7199  13.582   4.192  12.884
    1STR  S0X   7200  13.553   4.237  13.470
    1STR  S14   7201  13.164   4.381  13.867
    1STR  S1B   7202  12.651   4.336  13.629
    1HEX  C01   7203  13.322   8.582  16.766
    1HEX  C02   7204  13.265   8.599  16.908
    1HEX  C03   7205  13.113   8.614  16.908
    1HEX  O04   7206  13.043   8.534  16.845
    1HEX  O05   7207  13.067   8.715  16.988
    1HEX  C06   7208  12.928   8.722  17.024
    1HEX  C07   7209  12.899   8.686  17.175
    1HEX  C08   7210  12.931   8.819  17.270
    1HEX  O09   7211  12.850   8.893  17.372
    1HEX  C0A   7212  12.845   8.886   0.078
    1HEX  O0B   7213  12.761   8.815   0.132
    1HEX  C0C   7214  12.936   8.981   0.170
    1HEX  C0D   7215  12.963   8.966   0.333
    1HEX  C0F   7216  12.750   8.633  17.182
    1HEX  O0G   7217  12.739   8.486  17.180
    1HEX  C0H   7218  12.733   8.415  17.064
    1HEX  O0I   7219  12.699   8.464  16.957
    1HEX  C0J   7220  12.780   8.265  17.066
    1HEX  C0K   7221  12.839   8.195  17.195
    1HEX  C0N   7222  12.984   8.553  17.196
    1HEX  O0O   7223  13.125   8.548  17.195
    1HEX  C0P   7224  13.195   8.616  17.295
    1HEX  C0Q   7225  13.156   8.594   0.005
    1HEX  C0R   7226  13.186   8.449   0.047
    1HEX  O0S   7227  13.326   8.424   0.041
    1HEX  C0T   7228  13.397   8.423   0.154
    1HEX  O0U   7229  13.354   8.433   0.269
    1HEX  C0V   7230  13.546   8.412   0.126
    1HEX  C0W   7231  13.615   8.548   0.137
    1HEX  C0Y   7232  13.245   8.700   0.072
    1HEX  O0Z   7233  13.216   8.697   0.208
    1HEX  C10   7234  13.288   8.764   0.292
    1HEX  O11   7235  13.374   8.848   0.265
    1HEX  C12   7236  13.253   8.719   0.432
    1HEX  C13   7237  13.347   8.776   0.537
    1HEX  C15   7238  13.010   8.625   0.052
    1HEX  O16   7239  12.974   8.589   0.185
    1HEX  C17   7240  12.865   8.512   0.206
    1HEX  O18   7241  12.808   8.443   0.122
    1HEX  C19   7242  12.815   8.522   0.349
    1HEX  C1A   7243  12.731   8.649   0.370
    1HEX  H1C   7244  13.560   8.567  16.636
    1HEX  H1D   7245  13.285   8.490  16.721
    1HEX  H1E   7246  13.292   8.665  16.702
    1HEX  H1F   7247  13.309   8.686  16.957
    1HEX  H1G   7248  13.290   8.512  16.969
    1HEX  H1H   7249  12.871   8.657  16.957
    1HEX  H1I   7250  12.891   8.822  16.997
    1HEX  H1J   7251  12.939   8.899  17.197
    1HEX  H1K   7252  13.033   8.819  17.305
    1HEX  H1M   7253  12.896   9.081   0.152
    1HEX  H1N   7254  13.034   8.983   0.122
    1HEX  H1O   7255  13.039   9.037   0.368
    1HEX  H1P   7256  12.872   8.991   0.389
    1HEX  H1R   7257  12.688   8.675  17.103
    1HEX  H1S   7258  12.703   8.667  17.275
    1HEX  H1T   7259  12.856   8.260  16.988
    1HEX  H1U   7260  12.696   8.207  17.028
    1HEX  H1V   7261  12.861   8.089  17.177
    1HEX  H1W   7262  12.770   8.200  17.278
    1HEX  H1Y   7263  12.968   8.492  17.108
    1HEX  H1Z   7264  12.949   8.485  17.273
    1HEX  H20   7265  13.203   8.720  17.264
    1HEX  H21   7266  13.297   8.580  17.283
    1HEX  H22   7267  13.134   8.379  17.422
    1HEX  H23   7268  13.147   8.428   0.147
    1HEX  H24   7269  13.558   8.369   0.027
    1HEX  H25   7270  13.588   8.342   0.198
    1HEX  H26   7271  13.565   8.623   0.076
    1HEX  H27   7272  13.718   8.542   0.101
    1HEX  H28   7273  13.522   8.701   0.294
    1HEX  H29   7274  13.225   8.801   0.035
    1HEX  H2A   7275  13.351   8.682   0.055
    1HEX  H2B   7276  13.258   8.610   0.427
    1HEX  H2C   7277  13.149   8.744   0.449
    1HEX  H2D   7278  13.347   8.885   0.529
    1HEX  H2E   7279  13.449   8.745   0.514
    1HEX  H2F   7280  13.217   8.779   0.697
    1HEX  H2G   7281  12.927   8.604  17.428
    1HEX  H2H   7282  13.013   8.731   0.058
    1HEX  H2I   7283  12.900   8.521   0.417
    1HEX  H2J   7284  12.754   8.434   0.371
    1HEX  H2K   7285  12.655   8.657   0.292
    1HEX  H2M   7286  12.795   8.737   0.362
    1HEX  H2N   7287  12.583   8.599   0.537
    1STR  S00   7288  13.503   8.580  16.757
    1STR  S0E   7289  12.994   8.948   0.527
    1STR  S0M   7290  12.918   8.042  17.271
    1STR  S0X   7291  13.648   8.662   0.274
    1STR  S14   7292  13.291   8.670   0.674
    1STR  S1B   7293  12.673   8.698   0.534
    1HEX  C01   7294  13.333   8.546   3.662
    1HEX  C02   7295  13.291   8.562   3.808
    1HEX  C03   7296  13.139   8.560   3.816
    1HEX  O04   7297  13.076   8.456   3.798
    1HEX  O05   7298  13.088   8.682   3.840
    1HEX  C06   7299  12.947   8.698   3.845
    1HEX  C07   7300  12.895   8.696   3.992
    1HEX  C08   7301  12.945   8.824   4.061
    1HEX  O09   7302  12.881   8.946   4.025
    1HEX  C0A   7303  12.818   9.017   4.119
    1HEX  O0B   7304  12.771   8.972   4.224
    1HEX  C0C   7305  12.815   9.166   4.088
    1HEX  C0D   7306  12.818   9.250   4.216
    1HEX  C0F   7307  12.740   8.698   3.992
    1HEX  O0G   7308  12.691   8.577   3.934
    1HEX  C0H   7309  12.644   8.576   3.809
    1HEX  O0I   7310  12.613   8.675   3.743
    1HEX  C0J   7311  12.639   8.436   3.751
    1HEX  C0K   7312  12.520   8.357   3.808
    1HEX  C0N   7313  12.938   8.565   4.067
    1HEX  O0O   7314  13.074   8.543   4.109
    1HEX  C0P   7315  13.145   8.626   4.202
    1HEX  C0Q   7316  13.112   8.621   4.354
    1HEX  C0R   7317  13.145   8.479   4.407
    1HEX  O0S   7318  13.285   8.453   4.400
    1HEX  C0T   7319  13.360   8.447   4.512
    1HEX  O0U   7320  13.320   8.461   4.628
    1HEX  C0V   7321  13.507   8.423   4.483
    1HEX  C0W   7322  13.590   8.552   4.497
    1HEX  C0Y   7323  13.204   8.726   4.421
    1HEX  O0Z   7324  13.180   8.726   4.560
    1HEX  C10   7325  13.269   8.781   4.642
    1HEX  O11   7326  13.373   8.837   4.609
    1HEX  C12   7327  13.226   8.764   4.787
    1HEX  C13   7328  13.334   8.809   4.886
    1HEX  C15   7329  12.965   8.662   4.388
    1HEX  O16   7330  12.927   8.640   4.523
    1HEX  C17   7331  12.856   8.532   4.557
    1HEX  O18   7332  12.827   8.438   4.484
    1HEX  C19   7333  12.808   8.539   4.701
    1HEX  C1A   7334  12.725   8.666   4.723
    1HEX  H1D   7335  13.277   8.466   3.613
    1HEX  H1E   7336  13.309   8.637   3.605
    1HEX  H1F   7337  13.328   8.654   3.852
    1HEX  H1G   7338  13.328   8.479   3.869
    1HEX  H1H   7339  12.899   8.623   3.783
    1HEX  H1I   7340  12.921   8.793   3.798
    1HEX  H1J   7341  13.049   8.842   4.033
    1HEX  H1K   7342  12.943   8.811   4.168
    1HEX  H1M   7343  12.729   9.190   4.026
    1HEX  H1N   7344  12.904   9.187   4.029
    1HEX  H1O   7345  12.895   9.214   4.285
    1HEX  H1P   7346  12.723   9.241   4.270
    1HEX  H1Q   7347  13.025   9.446   4.160
    1HEX  H1R   7348  12.700   8.786   3.941
    1HEX  H1S   7349  12.702   8.705   4.094
    1HEX  H1T   7350  12.733   8.386   3.772
    1HEX  H1U   7351  12.632   8.444   3.642
    1HEX  H1V   7352  12.427   8.411   3.790
    1HEX  H1W   7353  12.531   8.345   3.916
    1HEX  H1X   7354  12.509   8.201   3.594
    1HEX  H1Y   7355  12.920   8.483   3.997
    1HEX  H1Z   7356  12.867   8.538   4.145
    1HEX  H20   7357  13.155   8.728   4.167
    1HEX  H21   7358  13.247   8.590   4.192
    1HEX  H22   7359  13.091   8.404   4.350
    1HEX  H23   7360  13.110   8.468   4.510
    1HEX  H24   7361  13.517   8.381   4.383
    1HEX  H25   7362  13.544   8.348   4.553
    1HEX  H26   7363  13.548   8.632   4.437
    1HEX  H27   7364  13.693   8.536   4.465
    1HEX  H28   7365  13.517   8.710   4.647
    1HEX  H29   7366  13.185   8.827   4.383
    1HEX  H2A   7367  13.309   8.705   4.400
    1HEX  H2B   7368  13.201   8.659   4.802
    1HEX  H2C   7369  13.134   8.822   4.799
    1HEX  H2D   7370  13.366   8.911   4.864
    1HEX  H2E   7371  13.423   8.746   4.874
    1HEX  H2F   7372  13.144   8.904   5.063
    1HEX  H2G   7373  12.891   8.614   4.326
    1HEX  H2H   7374  12.951   8.769   4.373
    1HEX  H2I   7375  12.895   8.537   4.767
    1HEX  H2J   7376  12.749   8.449   4.723
    1HEX  H2K   7377  12.645   8.671   4.649
    1HEX  H2M   7378  12.787   8.754   4.709
    1HEX  H2N   7379  12.573   8.592   4.907
    1STR  S00   7380  13.326   8.583   3.485
    1STR  S0E   7381  12.903   9.409   4.201
    1STR  S0M   7382  12.520   8.195   3.728
    1STR  S0X   7383  13.641   8.659   4.635
    1STR  S14   7384  13.249   8.823   5.045
    1STR  S1B   7385  12.659   8.692   4.889
    1HEX  C01   7386  13.353   8.567   8.032
    1HEX  C02   7387  13.292   8.569   8.173
    1HEX  C03   7388  13.140   8.570   8.164
    1HEX  O04   7389  13.078   8.470   8.126
    1HEX  O05   7390  13.087   8.688   8.198
    1HEX  C06   7391  12.945   8.703   8.204
    1HEX  C07   7392  12.896   8.697   8.350
    1HEX  C08   7393  12.946   8.825   8.421
    1HEX  O09   7394  12.881   8.946   8.384
    1HEX  C0A   7395  12.818   9.017   8.479
    1HEX  O0B   7396  12.770   8.971   8.583
    1HEX  C0C   7397  12.816   9.166   8.448
    1HEX  C0D   7398  12.818   9.250   8.577
    1HEX  C0F   7399  12.741   8.697   8.353
    1HEX  O0G   7400  12.692   8.576   8.295
    1HEX  C0H   7401  12.646   8.575   8.170
    1HEX  O0I   7402  12.618   8.674   8.102
    1HEX  C0J   7403  12.637   8.435   8.112
    1HEX  C0K   7404  12.518   8.358   8.171
    1HEX  C0N   7405  12.942   8.565   8.422
    1HEX  O0O   7406  13.078   8.546   8.464
    1HEX  C0P   7407  13.147   8.627   8.560
    1HEX  C0Q   7408  13.112   8.621   8.712
    1HEX  C0R   7409  13.146   8.479   8.765
    1HEX  O0S   7410  13.286   8.452   8.758
    1HEX  C0T   7411  13.360   8.447   8.871
    1HEX  O0U   7412  13.319   8.460   8.986
    1HEX  C0V   7413  13.508   8.424   8.842
    1HEX  C0W   7414  13.590   8.552   8.857
    1HEX  C0Y   7415  13.204   8.725   8.780
    1HEX  O0Z   7416  13.180   8.725   8.919
    1HEX  C10   7417  13.268   8.780   9.002
    1HEX  O11   7418  13.372   8.837   8.968
    1HEX  C12   7419  13.225   8.764   9.146
    1HEX  C13   7420  13.334   8.808   9.245
    1HEX  C15   7421  12.965   8.661   8.745
    1HEX  O16   7422  12.927   8.639   8.880
    1HEX  C17   7423  12.855   8.531   8.915
    1HEX  O18   7424  12.825   8.438   8.841
    1HEX  C19   7425  12.809   8.538   9.059
    1HEX  C1A   7426  12.726   8.665   9.081
    1HEX  H1C   7427  13.568   8.570   7.910
    1HEX  H1D   7428  13.319   8.478   7.979
    1HEX  H1E   7429  13.319   8.653   7.975
    1HEX  H1F   7430  13.324   8.657   8.228
    1HEX  H1G   7431  13.322   8.482   8.230
    1HEX  H1H   7432  12.897   8.628   8.141
    1HEX  H1I   7433  12.918   8.798   8.159
    1HEX  H1J   7434  13.050   8.843   8.394
    1HEX  H1K   7435  12.943   8.812   8.528
    1HEX  H1M   7436  12.730   9.191   8.386
    1HEX  H1N   7437  12.905   9.187   8.390
    1HEX  H1O   7438  12.896   9.214   8.645
    1HEX  H1P   7439  12.724   9.240   8.630
    1HEX  H1Q   7440  13.023   9.447   8.519
    1HEX  H1R   7441  12.699   8.785   8.304
    1HEX  H1S   7442  12.704   8.702   8.456
    1HEX  H1T   7443  12.731   8.383   8.133
    1HEX  H1U   7444  12.629   8.443   8.004
    1HEX  H1V   7445  12.426   8.413   8.154
    1HEX  H1W   7446  12.530   8.346   8.278
    1HEX  H1X   7447  12.508   8.199   7.954
    1HEX  H1Y   7448  12.926   8.485   8.351
    1HEX  H1Z   7449  12.873   8.535   8.501
    1HEX  H20   7450  13.157   8.730   8.526
    1HEX  H21   7451  13.250   8.592   8.551
    1HEX  H22   7452  13.092   8.403   8.707
    1HEX  H23   7453  13.110   8.467   8.867
    1HEX  H24   7454  13.518   8.382   8.742
    1HEX  H25   7455  13.544   8.349   8.913
    1HEX  H26   7456  13.549   8.633   8.795
    1HEX  H27   7457  13.693   8.537   8.825
    1HEX  H28   7458  13.515   8.710   9.007
    1HEX  H29   7459  13.185   8.826   8.743
    1HEX  H2A   7460  13.309   8.704   8.760
    1HEX  H2B   7461  13.200   8.659   9.162
    1HEX  H2C   7462  13.134   8.821   9.159
    1HEX  H2D   7463  13.365   8.910   9.223
    1HEX  H2E   7464  13.422   8.745   9.233
    1HEX  H2F   7465  13.144   8.904   9.423
    1HEX  H2G   7466  12.892   8.613   8.682
    1HEX  H2H   7467  12.951   8.768   8.731
    1HEX  H2I   7468  12.896   8.537   9.124
    1HEX  H2J   7469  12.750   8.449   9.081
    1HEX  H2K   7470  12.646   8.672   9.008
    1HEX  H2M   7471  12.788   8.754   9.067
    1HEX  H2N   7472  12.572   8.592   9.267
    1STR  S00   7473  13.534   8.576   8.039
    1STR  S0E   7474  12.902   9.410   8.561
    1STR  S0M   7475  12.519   8.197   8.087
    1STR  S0X   7476  13.639   8.658   8.996
    1STR  S14   7477  13.249   8.823   9.405
    1STR  S1B   7478  12.659   8.692   9.247
    1HEX  C01   7479  13.347   8.569  12.391
    1HEX  C02   7480  13.284   8.569  12.530
    1HEX  C03   7481  13.132   8.560  12.519
    1HEX  O04   7482  13.077   8.456  12.483
    1HEX  O05   7483  13.071   8.675  12.552
    1HEX  C06   7484  12.930   8.677  12.568
    1HEX  C07   7485  12.892   8.670  12.718
    1HEX  C08   7486  12.931   8.806  12.781
    1HEX  O09   7487  12.856   8.921  12.743
    1HEX  C0A   7488  12.810   9.002  12.841
    1HEX  O0B   7489  12.774   8.964  12.952
    1HEX  C0C   7490  12.815   9.150  12.804
    1HEX  C0D   7491  12.819   9.240  12.929
    1HEX  C0F   7492  12.739   8.646  12.734
    1HEX  O0G   7493  12.711   8.505  12.725
    1HEX  C0H   7494  12.684   8.447  12.608
    1HEX  O0I   7495  12.644   8.507  12.508
    1HEX  C0J   7496  12.714   8.297  12.603
    1HEX  C0K   7497  12.738   8.226  12.739
    1HEX  C0N   7498  12.963   8.550  12.791
    1HEX  O0O   7499  13.102   8.555  12.822
    1HEX  C0P   7500  13.157   8.640  12.923
    1HEX  C0Q   7501  13.118   8.626  13.074
    1HEX  C0R   7502  13.148   8.482  13.122
    1HEX  O0S   7503  13.288   8.454  13.117
    1HEX  C0T   7504  13.361   8.447  13.230
    1HEX  O0U   7505  13.319   8.460  13.345
    1HEX  C0V   7506  13.509   8.423  13.203
    1HEX  C0W   7507  13.591   8.551  13.217
    1HEX  C0Y   7508  13.208   8.728  13.146
    1HEX  O0Z   7509  13.183   8.725  13.285
    1HEX  C10   7510  13.269   8.782  13.368
    1HEX  O11   7511  13.372   8.842  13.336
    1HEX  C12   7512  13.226   8.764  13.512
    1HEX  C13   7513  13.334   8.808  13.611
    1HEX  C15   7514  12.970   8.668  13.106
    1HEX  O16   7515  12.930   8.643  13.240
    1HEX  C17   7516  12.857   8.536  13.271
    1HEX  O18   7517  12.825   8.445  13.194
    1HEX  C19   7518  12.810   8.539  13.415
    1HEX  C1A   7519  12.726   8.665  13.441
    1HEX  H1C   7520  13.568   8.570  12.270
    1HEX  H1D   7521  13.317   8.479  12.337
    1HEX  H1E   7522  13.313   8.654  12.334
    1HEX  H1F   7523  13.310   8.659  12.586
    1HEX  H1G   7524  13.318   8.484  12.589
    1HEX  H1H   7525  12.883   8.598  12.510
    1HEX  H1I   7526  12.893   8.770  12.524
    1HEX  H1J   7527  13.033   8.831  12.751
    1HEX  H1K   7528  12.932   8.797  12.888
    1HEX  H1M   7529  12.732   9.176  12.739
    1HEX  H1N   7530  12.906   9.165  12.746
    1HEX  H1O   7531  12.896   9.205  12.999
    1HEX  H1P   7532  12.724   9.235  12.982
    1HEX  H1Q   7533  13.022   9.446  12.878
    1HEX  H1R   7534  12.681   8.704  12.662
    1HEX  H1S   7535  12.706   8.680  12.832
    1HEX  H1T   7536  12.804   8.287  12.541
    1HEX  H1U   7537  12.634   8.249  12.547
    1HEX  H1V   7538  12.733   8.117  12.730
    1HEX  H1W   7539  12.666   8.256  12.814
    1HEX  H1Y   7540  12.956   8.465  12.723
    1HEX  H1Z   7541  12.907   8.512  12.876
    1HEX  H20   7542  13.156   8.744  12.892
    1HEX  H21   7543  13.263   8.616  12.917
    1HEX  H22   7544  13.095   8.409  13.061
    1HEX  H23   7545  13.111   8.467  13.224
    1HEX  H24   7546  13.519   8.380  13.103
    1HEX  H25   7547  13.544   8.349  13.274
    1HEX  H26   7548  13.550   8.632  13.155
    1HEX  H27   7549  13.694   8.535  13.185
    1HEX  H28   7550  13.516   8.710  13.368
    1HEX  H29   7551  13.191   8.830  13.111
    1HEX  H2A   7552  13.314   8.707  13.127
    1HEX  H2B   7553  13.201   8.658  13.527
    1HEX  H2C   7554  13.134   8.821  13.525
    1HEX  H2D   7555  13.365   8.910  13.590
    1HEX  H2E   7556  13.423   8.746  13.598
    1HEX  H2F   7557  13.144   8.905  13.783
    1HEX  H2G   7558  12.896   8.625  13.041
    1HEX  H2H   7559  12.959   8.776  13.095
    1HEX  H2I   7560  12.897   8.536  13.481
    1HEX  H2J   7561  12.752   8.449  13.436
    1HEX  H2K   7562  12.645   8.671  13.368
    1HEX  H2M   7563  12.787   8.754  13.427
    1HEX  H2N   7564  12.574   8.592  13.625
    1STR  S00   7565  13.529   8.574  12.398
    1STR  S0E   7566  12.902   9.400  12.915
    1STR  S0M   7567  12.799   8.075  12.823
    1STR  S0X   7568  13.639   8.659  13.354
    1STR  S14   7569  13.249   8.824  13.770
    1STR  S1B   7570  12.659   8.693  13.607
    1HEX  C01   7571  13.353  12.927  16.752
    1HEX  C02   7572  13.292  12.929  16.893
    1HEX  C03   7573  13.140  12.930  16.884
    1HEX  O04   7574  13.078  12.830  16.846
    1HEX  O05   7575  13.087  13.048  16.918
    1HEX  C06   7576  12.945  13.063  16.924
    1HEX  C07   7577  12.896  13.057  17.070
    1HEX  C08   7578  12.946  13.185  17.141
    1HEX  O09   7579  12.881  13.306  17.104
    1HEX  C0A   7580  12.818  13.377  17.199
    1HEX  O0B   7581  12.770  13.331  17.303
    1HEX  C0C   7582  12.816  13.526  17.168
    1HEX  C0D   7583  12.818  13.610  17.297
    1HEX  C0F   7584  12.741  13.057  17.073
    1HEX  O0G   7585  12.692  12.936  17.015
    1HEX  C0H   7586  12.646  12.935  16.890
    1HEX  O0I   7587  12.618  13.034  16.822
    1HEX  C0J   7588  12.637  12.795  16.832
    1HEX  C0K   7589  12.518  12.718  16.891
    1HEX  C0N   7590  12.942  12.925  17.142
    1HEX  O0O   7591  13.078  12.906  17.184
    1HEX  C0P   7592  13.147  12.987  17.280
    1HEX  C0Q   7593  13.112  12.981  17.432
    1HEX  C0R   7594  13.146  12.839   0.045
    1HEX  O0S   7595  13.286  12.812   0.038
    1HEX  C0T   7596  13.360  12.807   0.151
    1HEX  O0U   7597  13.319  12.820   0.266
    1HEX  C0V   7598  13.508  12.784   0.122
    1HEX  C0W   7599  13.590  12.913   0.137
    1HEX  C0Y   7600  13.204  13.085   0.060
    1HEX  O0Z   7601  13.180  13.085   0.199
    1HEX  C10   7602  13.268  13.140   0.281
    1HEX  O11   7603  13.372  13.198   0.248
    1HEX  C12   7604  13.225  13.124   0.426
    1HEX  C13   7605  13.334  13.168   0.525
    1HEX  C15   7606  12.965  13.021   0.025
    1HEX  O16   7607  12.927  12.999   0.160
    1HEX  C17   7608  12.855  12.892   0.195
    1HEX  O18   7609  12.825  12.798   0.121
    1HEX  C19   7610  12.809  12.898   0.339
    1HEX  C1A   7611  12.726  13.026   0.361
    1HEX  H1C   7612  13.568  12.930  16.630
    1HEX  H1D   7613  13.319  12.838  16.699
    1HEX  H1E   7614  13.319  13.013  16.695
    1HEX  H1F   7615  13.324  13.017  16.948
    1HEX  H1G   7616  13.322  12.842  16.950
    1HEX  H1H   7617  12.897  12.988  16.861
    1HEX  H1I   7618  12.918  13.158  16.879
    1HEX  H1J   7619  13.050  13.203  17.114
    1HEX  H1K   7620  12.943  13.172  17.248
    1HEX  H1M   7621  12.730  13.551  17.106
    1HEX  H1N   7622  12.905  13.547  17.110
    1HEX  H1O   7623  12.896  13.574  17.365
    1HEX  H1P   7624  12.724  13.600  17.350
    1HEX  H1Q   7625  13.023  13.808  17.240
    1HEX  H1R   7626  12.699  13.145  17.024
    1HEX  H1S   7627  12.704  13.063  17.176
    1HEX  H1T   7628  12.731  12.743  16.853
    1HEX  H1U   7629  12.629  12.803  16.724
    1HEX  H1V   7630  12.426  12.773  16.874
    1HEX  H1W   7631  12.530  12.706  16.998
    1HEX  H1X   7632  12.508  12.559  16.674
    1HEX  H1Y   7633  12.926  12.845  17.071
    1HEX  H1Z   7634  12.873  12.895  17.221
    1HEX  H20   7635  13.157  13.090  17.246
    1HEX  H21   7636  13.250  12.952  17.271
    1HEX  H22   7637  13.092  12.763  17.427
    1HEX  H23   7638  13.110  12.827   0.147
    1HEX  H24   7639  13.518  12.742   0.022
    1HEX  H25   7640  13.545  12.709   0.193
    1HEX  H26   7641  13.549  12.993   0.075
    1HEX  H27   7642  13.693  12.897   0.105
    1HEX  H28   7643  13.516  13.070   0.286
    1HEX  H29   7644  13.185  13.186   0.022
    1HEX  H2A   7645  13.309  13.065   0.040
    1HEX  H2B   7646  13.200  13.019   0.442
    1HEX  H2C   7647  13.134  13.182   0.439
    1HEX  H2D   7648  13.365  13.271   0.503
    1HEX  H2E   7649  13.422  13.106   0.513
    1HEX  H2F   7650  13.144  13.264   0.703
    1HEX  H2G   7651  12.892  12.973  17.402
    1HEX  H2H   7652  12.951  13.128   0.011
    1HEX  H2I   7653  12.896  12.897   0.404
    1HEX  H2J   7654  12.750  12.809   0.361
    1HEX  H2K   7655  12.646  13.032   0.288
    1HEX  H2M   7656  12.788  13.114   0.347
    1HEX  H2N   7657  12.572  12.952   0.547
    1STR  S00   7658  13.534  12.936  16.759
    1STR  S0E   7659  12.902  13.770  17.281
    1STR  S0M   7660  12.519  12.557  16.807
    1STR  S0X   7661  13.639  13.018   0.276
    1STR  S14   7662  13.249  13.183   0.685
    1STR  S1B   7663  12.659  13.052   0.527
    1HEX  C01   7664  13.353  12.927   3.672
    1HEX  C02   7665  13.292  12.929   3.813
    1HEX  C03   7666  13.140  12.930   3.804
    1HEX  O04   7667  13.078  12.830   3.766
    1HEX  O05   7668  13.087  13.048   3.838
    1HEX  C06   7669  12.945  13.063   3.844
    1HEX  C07   7670  12.896  13.057   3.990
    1HEX  C08   7671  12.946  13.185   4.061
    1HEX  O09   7672  12.881  13.306   4.024
    1HEX  C0A   7673  12.818  13.377   4.119
    1HEX  O0B   7674  12.770  13.331   4.223
    1HEX  C0C   7675  12.816  13.526   4.088
    1HEX  C0D   7676  12.818  13.610   4.217
    1HEX  C0F   7677  12.741  13.057   3.993
    1HEX  O0G   7678  12.692  12.936   3.935
    1HEX  C0H   7679  12.646  12.935   3.810
    1HEX  O0I   7680  12.618  13.034   3.742
    1HEX  C0J   7681  12.637  12.795   3.752
    1HEX  C0K   7682  12.518  12.718   3.811
    1HEX  C0N   7683  12.942  12.925   4.062
    1HEX  O0O   7684  13.078  12.906   4.104
    1HEX  C0P   7685  13.147  12.987   4.200
    1HEX  C0Q   7686  13.112  12.981   4.352
    1HEX  C0R   7687  13.146  12.839   4.405
    1HEX  O0S   7688  13.286  12.812   4.398
    1HEX  C0T   7689  13.360  12.807   4.511
    1HEX  O0U   7690  13.319  12.820   4.626
    1HEX  C0V   7691  13.508  12.784   4.482
    1HEX  C0W   7692  13.590  12.913   4.497
    1HEX  C0Y   7693  13.204  13.085   4.420
    1HEX  O0Z   7694  13.180  13.085   4.559
    1HEX  C10   7695  13.268  13.140   4.641
    1HEX  O11   7696  13.372  13.198   4.608
    1HEX  C12   7697  13.225  13.124   4.786
    1HEX  C13   7698  13.334  13.168   4.885
    1HEX  C15   7699  12.965  13.021   4.385
    1HEX  O16   7700  12.927  12.999   4.520
    1HEX  C17   7701  12.855  12.892   4.555
    1HEX  O18   7702  12.825  12.798   4.481
    1HEX  C19   7703  12.809  12.898   4.699
    1HEX  C1A   7704  12.726  13.026   4.721
    1HEX  H1C   7705  13.568  12.930   3.550
    1HEX  H1D   7706  13.319  12.838   3.619
    1HEX  H1E   7707  13.319  13.013   3.615
    1HEX  H1F   7708  13.324  13.017   3.868
    1HEX  H1G   7709  13.322  12.842   3.870
    1HEX  H1H   7710  12.897  12.988   3.781
    1HEX  H1I   7711  12.918  13.158   3.799
    1HEX  H1J   7712  13.050  13.203   4.034
    1HEX  H1K   7713  12.943  13.172   4.168
    1HEX  H1M   7714  12.730  13.551   4.026
    1HEX  H1N   7715  12.905  13.547   4.030
    1HEX  H1O   7716  12.896  13.574   4.285
    1HEX  H1P   7717  12.724  13.600   4.270
    1HEX  H1Q   7718  13.023  13.808   4.160
    1HEX  H1R   7719  12.699  13.145   3.944
    1HEX  H1S   7720  12.704  13.063   4.096
    1HEX  H1T   7721  12.731  12.743   3.773
    1HEX  H1U   7722  12.629  12.803   3.644
    1HEX  H1V   7723  12.426  12.773   3.794
    1HEX  H1W   7724  12.530  12.706   3.918
    1HEX  H1X   7725  12.508  12.559   3.594
    1HEX  H1Y   7726  12.926  12.845   3.991
    1HEX  H1Z   7727  12.873  12.895   4.140
    1HEX  H20   7728  13.157  13.090   4.166
    1HEX  H21   7729  13.250  12.952   4.191
    1HEX  H22   7730  13.092  12.763   4.347
    1HEX  H23   7731  13.110  12.827   4.507
    1HEX  H24   7732  13.518  12.742   4.382
    1HEX  H25   7733  13.545  12.709   4.553
    1HEX  H26   7734  13.549  12.993   4.435
    1HEX  H27   7735  13.693  12.897   4.465
    1HEX  H28   7736  13.515  13.070   4.646
    1HEX  H29   7737  13.185  13.186   4.382
    1HEX  H2A   7738  13.309  13.065   4.400
    1HEX  H2B   7739  13.200  13.019   4.802
    1HEX  H2C   7740  13.134  13.182   4.799
    1HEX  H2D   7741  13.365  13.271   4.863
    1HEX  H2E   7742  13.422  13.106   4.873
    1HEX  H2F   7743  13.144  13.264   5.063
    1HEX  H2G   7744  12.892  12.973   4.322
    1HEX  H2H   7745  12.951  13.128   4.371
    1HEX  H2I   7746  12.896  12.897   4.764
    1HEX  H2J   7747  12.750  12.809   4.721
    1HEX  H2K   7748  12.646  13.032   4.648
    1HEX  H2M   7749  12.788  13.114   4.707
    1HEX  H2N   7750  12.572  12.952   4.907
    1STR  S00   7751  13.534  12.936   3.679
    1STR  S0E   7752  12.902  13.770   4.201
    1STR  S0M   7753  12.519  12.557   3.727
    1STR  S0X   7754  13.639  13.018   4.636
    1STR  S14   7755  13.249  13.183   5.045
    1STR  S1B   7756  12.659  13.052   4.887
    1HEX  C01   7757  13.349  12.928   8.035
    1HEX  C02   7758  13.288  12.933   8.175
    1HEX  C03   7759  13.136  12.935   8.167
    1HEX  O04   7760  13.074  12.835   8.132
    1HEX  O05   7761  13.084  13.055   8.200
    1HEX  C06   7762  12.942  13.071   8.203
    1HEX  C07   7763  12.888  13.071   8.349
    1HEX  C08   7764  12.931  13.202   8.417
    1HEX  O09   7765  12.860  13.319   8.382
    1HEX  C0A   7766  12.805  13.391   8.480
    1HEX  O0B   7767  12.759  13.345   8.585
    1HEX  C0C   7768  12.813  13.540   8.455
    1HEX  C0D   7769  12.822  13.619   8.586
    1HEX  C0F   7770  12.733  13.064   8.348
    1HEX  O0G   7771  12.692  12.940   8.292
    1HEX  C0H   7772  12.644  12.935   8.166
    1HEX  O0I   7773  12.614  13.032   8.097
    1HEX  C0J   7774  12.638  12.794   8.112
    1HEX  C0K   7775  12.519  12.717   8.171
    1HEX  C0N   7776  12.940  12.949   8.431
    1HEX  O0O   7777  13.076  12.947   8.479
    1HEX  C0P   7778  13.133  13.041   8.572
    1HEX  C0Q   7779  13.100  13.036   8.726
    1HEX  C0R   7780  13.236  13.000   8.793
    1HEX  O0S   7781  13.323  13.112   8.764
    1HEX  C0T   7782  13.373  13.193   8.862
    1HEX  O0U   7783  13.391  13.155   8.977
    1HEX  C0V   7784  13.426  13.331   8.813
    1HEX  C0W   7785  13.350  13.472   8.827
    1HEX  C0Y   7786  13.059  13.173   8.791
    1HEX  O0Z   7787  13.049  13.150   8.932
    1HEX  C10   7788  13.106  13.227   9.025
    1HEX  O11   7789  13.141  13.343   9.011
    1HEX  C12   7790  13.128  13.149   9.156
    1HEX  C13   7791  13.255  13.187   9.235
    1HEX  C15   7792  12.984  12.936   8.752
    1HEX  O16   7793  12.954  12.919   8.890
    1HEX  C17   7794  12.848  12.849   8.927
    1HEX  O18   7795  12.786  12.769   8.856
    1HEX  C19   7796  12.804  12.881   9.069
    1HEX  C1A   7797  12.734  13.018   9.074
    1HEX  H1C   7798  13.568  12.931   7.909
    1HEX  H1D   7799  13.316  12.838   7.983
    1HEX  H1E   7800  13.315  13.014   7.976
    1HEX  H1F   7801  13.322  13.021   8.230
    1HEX  H1G   7802  13.318  12.846   8.233
    1HEX  H1H   7803  12.894  12.994   8.143
    1HEX  H1I   7804  12.916  13.165   8.154
    1HEX  H1J   7805  13.033  13.224   8.388
    1HEX  H1K   7806  12.928  13.187   8.525
    1HEX  H1M   7807  12.728  13.572   8.394
    1HEX  H1N   7808  12.903  13.557   8.396
    1HEX  H1O   7809  12.899  13.578   8.652
    1HEX  H1P   7810  12.728  13.611   8.641
    1HEX  H1Q   7811  13.029  13.796   8.515
    1HEX  H1R   7812  12.690  13.149   8.296
    1HEX  H1S   7813  12.694  13.070   8.450
    1HEX  H1T   7814  12.732  12.743   8.134
    1HEX  H1U   7815  12.630  12.800   8.003
    1HEX  H1V   7816  12.426  12.772   8.153
    1HEX  H1W   7817  12.530  12.707   8.279
    1HEX  H1X   7818  12.507  12.559   7.954
    1HEX  H1Y   7819  12.932  12.861   8.366
    1HEX  H1Z   7820  12.870  12.923   8.510
    1HEX  H20   7821  13.144  13.143   8.538
    1HEX  H21   7822  13.237  13.011   8.559
    1HEX  H22   7823  13.275  12.906   8.753
    1HEX  H23   7824  13.224  12.981   8.900
    1HEX  H24   7825  13.457  13.315   8.710
    1HEX  H25   7826  13.520  13.339   8.868
    1HEX  H26   7827  13.308  13.508   8.734
    1HEX  H27   7828  13.414  13.549   8.871
    1HEX  H29   7829  12.962  13.209   8.755
    1HEX  H2A   7830  13.130  13.253   8.768
    1HEX  H2B   7831  13.133  13.042   9.132
    1HEX  H2C   7832  13.040  13.163   9.217
    1HEX  H2D   7833  13.294  13.284   9.204
    1HEX  H2E   7834  13.335  13.115   9.219
    1HEX  H2F   7835  13.161  13.277   9.416
    1HEX  H2G   7836  12.999  12.839   8.705
    1HEX  H2H   7837  12.893  12.979   8.709
    1HEX  H2I   7838  12.890  12.879   9.134
    1HEX  H2J   7839  12.736  12.802   9.102
    1HEX  H2K   7840  12.653  13.023   9.002
    1HEX  H2M   7841  12.804  13.098   9.050
    1HEX  H2N   7842  12.572  12.957   9.267
    1STR  S00   7843  13.530  12.939   8.037
    1STR  S0E   7844  12.905  13.778   8.562
    1STR  S0M   7845  12.519  12.556   8.087
    1STR  S0X   7846  13.258  13.640   8.843
    1STR  S14   7847  13.248  13.176   9.416
    1STR  S1B   7848  12.667  13.047   9.240
    1HEX  C01   7849  13.346  12.930  12.397
    1HEX  C02   7850  13.286  12.938  12.538
    1HEX  C03   7851  13.135  12.949  12.529
    1HEX  O04   7852  13.067  12.856  12.485
    1HEX  O05   7853  13.089  13.069  12.572
    1HEX  C06   7854  12.948  13.094  12.575
    1HEX  C07   7855  12.891  13.082  12.719
    1HEX  C08   7856  12.932  13.208  12.802
    1HEX  O09   7857  12.879  13.337  12.768
    1HEX  C0A   7858  12.878  13.434  12.864
    1HEX  O0B   7859  12.877  13.413  12.985
    1HEX  C0C   7860  12.882  13.578  12.810
    1HEX  C0D   7861  12.917  13.690  12.913
    1HEX  C0F   7862  12.736  13.078  12.712
    1HEX  O0G   7863  12.693  12.954  12.655
    1HEX  C0H   7864  12.648  12.947  12.529
    1HEX  O0I   7865  12.618  13.043  12.459
    1HEX  C0J   7866  12.644  12.805  12.476
    1HEX  C0K   7867  12.525  12.727  12.533
    1HEX  C0N   7868  12.934  12.946  12.786
    1HEX  O0O   7869  13.070  12.919  12.825
    1HEX  C0P   7870  13.144  12.995  12.921
    1HEX  C0Q   7871  13.113  12.985  13.073
    1HEX  C0R   7872  13.146  12.842  13.123
    1HEX  O0S   7873  13.286  12.815  13.116
    1HEX  C0T   7874  13.360  12.808  13.229
    1HEX  O0U   7875  13.319  12.819  13.345
    1HEX  C0V   7876  13.508  12.785  13.201
    1HEX  C0W   7877  13.590  12.913  13.216
    1HEX  C0Y   7878  13.206  13.088  13.142
    1HEX  O0Z   7879  13.183  13.086  13.281
    1HEX  C10   7880  13.271  13.141  13.363
    1HEX  O11   7881  13.375  13.197  13.331
    1HEX  C12   7882  13.227  13.124  13.508
    1HEX  C13   7883  13.335  13.169  13.607
    1HEX  C15   7884  12.967  13.026  13.110
    1HEX  O16   7885  12.930  13.000  13.245
    1HEX  C17   7886  12.856  12.893  13.277
    1HEX  O18   7887  12.825  12.802  13.201
    1HEX  C19   7888  12.809  12.898  13.421
    1HEX  C1A   7889  12.726  13.025  13.444
    1HEX  H1C   7890  13.567  12.929  12.271
    1HEX  H1D   7891  13.309  12.841  12.345
    1HEX  H1E   7892  13.316  13.016  12.338
    1HEX  H1F   7893  13.325  13.023  12.592
    1HEX  H1G   7894  13.311  12.849  12.595
    1HEX  H1H   7895  12.897  13.026  12.507
    1HEX  H1I   7896  12.930  13.193  12.535
    1HEX  H1J   7897  13.039  13.224  12.792
    1HEX  H1K   7898  12.910  13.187  12.905
    1HEX  H1M   7899  12.788  13.599  12.759
    1HEX  H1N   7900  12.960  13.578  12.733
    1HEX  H1O   7901  13.003  13.663  12.974
    1HEX  H1P   7902  12.834  13.707  12.982
    1HEX  H1R   7903  12.696  13.164  12.658
    1HEX  H1S   7904  12.693  13.084  12.812
    1HEX  H1T   7905  12.738  12.755  12.501
    1HEX  H1U   7906  12.638  12.809  12.368
    1HEX  H1V   7907  12.431  12.780  12.514
    1HEX  H1W   7908  12.534  12.715  12.641
    1HEX  H1X   7909  12.509  12.560  12.316
    1HEX  H1Y   7910  12.917  12.869  12.711
    1HEX  H1Z   7911  12.864  12.914  12.862
    1HEX  H20   7912  13.157  13.097  12.889
    1HEX  H21   7913  13.245  12.956  12.908
    1HEX  H22   7914  13.093  12.768  13.064
    1HEX  H23   7915  13.111  12.828  13.225
    1HEX  H24   7916  13.518  12.743  13.101
    1HEX  H25   7917  13.544  12.710  13.271
    1HEX  H26   7918  13.549  12.994  13.155
    1HEX  H27   7919  13.694  12.897  13.185
    1HEX  H28   7920  13.517  13.071  13.367
    1HEX  H29   7921  13.188  13.190  13.106
    1HEX  H2A   7922  13.311  13.067  13.120
    1HEX  H2B   7923  13.201  13.019  13.523
    1HEX  H2C   7924  13.135  13.182  13.519
    1HEX  H2D   7925  13.366  13.271  13.586
    1HEX  H2E   7926  13.423  13.106  13.595
    1HEX  H2F   7927  13.143  13.264  13.781
    1HEX  H2G   7928  12.893  12.980  13.047
    1HEX  H2H   7929  12.956  13.133  13.100
    1HEX  H2I   7930  12.896  12.896  13.486
    1HEX  H2J   7931  12.750  12.809  13.442
    1HEX  H2K   7932  12.646  13.032  13.370
    1HEX  H2M   7933  12.788  13.114  13.430
    1HEX  H2N   7934  12.571  12.951  13.627
    1STR  S00   7935  13.528  12.935  12.398
    1STR  S0E   7936  12.999  13.846  12.971
    1STR  S0M   7937  12.521  12.566  12.449
    1STR  S0X   7938  13.640  13.017  13.357
    1STR  S14   7939  13.249  13.183  13.766
    1STR  S1B   7940  12.657  13.052  13.609
   17.44000    17.44000    17.44000
