Gromacs.gro file
    7940
    1STR  BCK1     1   0.705   4.245   4.507
    1STR  O03      2   0.632   4.333   4.551
    1STR  N04      3   0.839   4.267   4.478
    1STR  C05      4   0.945   4.187   4.421
    1STR  C06      5   1.088   4.216   4.442
    1STR  C07      6   1.199   4.139   4.384
    1STR  N08      7   1.342   4.164   4.402
    1STR  C09      8   1.455   4.090   4.365
    1STR  O0A      9   1.445   3.981   4.311
    1STR  O0B     10   1.587   4.142   4.393
    1STR  C0C     11   1.712   4.070   4.352
    1STR  C0D     12   1.736   4.086   4.200
    1STR  C0E     13   1.852   4.101   4.426
    1STR  O0F     14   1.975   4.032   4.377
    1STR  C0G     15   2.105   4.053   4.446
    1STR  C0H     16   2.102   3.978   4.580
    1STR  C0I     17   2.240   4.009   4.371
    1STR  O0J     18   2.365   4.040   4.442
    1STR  C0K     19   2.495   4.000   4.386
    1STR  C0M     20   2.529   4.084   4.263
    1STR  C0N     21   2.616   4.015   4.486
    1STR  O0O     22   2.740   3.959   4.436
    1STR  C0P     23   2.856   4.033   4.419
    1STR  O0Q     24   2.866   4.154   4.429
    1STR  N0R     25   2.958   3.950   4.390
    1STR  C0S     26   3.096   3.966   4.360
    1STR  C0T     27   3.173   3.848   4.363
    1STR  C0U     28   3.310   3.848   4.331
    1STR  C0V     29   3.375   3.967   4.292
    1STR  C0W     30   3.525   3.959   4.265
    1STR  C0X     31   3.300   4.087   4.283
    1STR  N0Y     32   3.360   4.205   4.237
    1STR  BCK2    33   3.452   4.214   4.140
    1STR  O10     34   3.507   4.320   4.111
    1STR  C13     35   3.162   4.087   4.320
    1STR  C14     36   1.157   4.032   4.302
    1STR  C15     37   1.022   4.004   4.277
    1STR  C16     38   0.917   4.079   4.332
    1STR  C17     39   0.779   4.040   4.281
    1STR  H1B     40   0.864   4.361   4.504
    1STR  H1C     41   1.112   4.300   4.505
    1STR  H1D     42   1.368   4.250   4.447
    1STR  H1E     43   1.692   3.964   4.369
    1STR  H1F     44   1.762   4.188   4.174
    1STR  H1G     45   1.818   4.022   4.168
    1STR  H1H     46   1.648   4.057   4.142
    1STR  H1I     47   1.839   4.077   4.531
    1STR  H1J     48   1.872   4.208   4.420
    1STR  H1K     49   2.115   4.159   4.465
    1STR  H1M     50   2.092   3.870   4.565
    1STR  H1N     51   2.021   4.010   4.645
    1STR  H1O     52   2.195   3.994   4.635
    1STR  H1P     53   2.237   3.901   4.352
    1STR  H1Q     54   2.243   4.055   4.272
    1STR  H1R     55   2.489   3.895   4.358
    1STR  H1S     56   2.626   4.054   4.222
    1STR  H1T     57   2.539   4.190   4.289
    1STR  H1U     58   2.456   4.075   4.183
    1STR  H1V     59   2.594   3.961   4.578
    1STR  H1W     60   2.630   4.119   4.516
    1STR  H1X     61   2.926   3.856   4.394
    1STR  H1Y     62   3.129   3.754   4.392
    1STR  H1Z     63   3.365   3.756   4.337
    1STR  H20     64   3.544   3.953   4.158
    1STR  H21     65   3.577   4.045   4.306
    1STR  H22     66   3.570   3.871   4.311
    1STR  H23     67   3.329   4.294   4.274
    1STR  H27     68   3.104   4.178   4.316
    1STR  H28     69   1.228   3.969   4.251
    1STR  H29     70   1.000   3.922   4.210
    1STR  H2A     71   0.696   4.074   4.341
    1STR  H2B     72   0.770   3.932   4.274
    1STR  H2C     73   0.765   4.082   4.181
    1STR  BCK1    74   0.718   4.576   8.594
    1STR  O03     75   0.626   4.505   8.634
    1STR  N04     76   0.851   4.544   8.613
    1STR  C05     77   0.975   4.611   8.578
    1STR  C06     78   1.109   4.555   8.599
    1STR  C07     79   1.235   4.623   8.566
    1STR  N08     80   1.372   4.570   8.577
    1STR  C09     81   1.497   4.629   8.553
    1STR  O0A     82   1.506   4.748   8.525
    1STR  O0B     83   1.622   4.551   8.561
    1STR  C0C     84   1.759   4.615   8.541
    1STR  C0D     85   1.789   4.702   8.664
    1STR  C0E     86   1.895   4.531   8.506
    1STR  O0F     87   2.029   4.601   8.498
    1STR  C0G     88   2.158   4.532   8.458
    1STR  C0H     89   2.145   4.498   8.309
    1STR  C0I     90   2.303   4.606   8.482
    1STR  O0J     91   2.434   4.532   8.464
    1STR  C0K     92   2.568   4.595   8.492
    1STR  C0M     93   2.573   4.634   8.640
    1STR  C0N     94   2.708   4.516   8.464
    1STR  O0O     95   2.838   4.582   8.498
    1STR  C0P     96   2.960   4.515   8.539
    1STR  O0Q     97   2.966   4.397   8.570
    1STR  N0R     98   3.070   4.597   8.536
    1STR  C0S     99   3.213   4.600   8.558
    1STR  C0T    100   3.275   4.701   8.481
    1STR  C0U    101   3.411   4.735   8.495
    1STR  C0V    102   3.495   4.670   8.586
    1STR  C0W    103   3.637   4.725   8.598
    1STR  C0X    104   3.445   4.561   8.664
    1STR  N0Y    105   3.534   4.492   8.753
    1STR  BCK2   106   3.667   4.505   8.780
    1STR  O10    107   3.725   4.432   8.861
    1STR  C13    108   3.303   4.528   8.648
    1STR  C14    109   1.215   4.753   8.514
    1STR  C15    110   1.089   4.809   8.492
    1STR  C16    111   0.969   4.740   8.520
    1STR  C17    112   0.840   4.811   8.483
    1STR  H1B    113   0.858   4.458   8.665
    1STR  H1C    114   1.115   4.456   8.643
    1STR  H1D    115   1.381   4.474   8.607
    1STR  H1E    116   1.745   4.684   8.457
    1STR  H1F    117   1.807   4.641   8.752
    1STR  H1G    118   1.878   4.763   8.647
    1STR  H1H    119   1.707   4.770   8.687
    1STR  H1I    120   1.878   4.480   8.412
    1STR  H1J    121   1.906   4.452   8.580
    1STR  H1K    122   2.162   4.439   8.515
    1STR  H1M    123   2.132   4.588   8.248
    1STR  H1N    124   2.060   4.433   8.288
    1STR  H1O    125   2.234   4.447   8.272
    1STR  H1P    126   2.306   4.694   8.417
    1STR  H1Q    127   2.300   4.645   8.583
    1STR  H1R    128   2.573   4.687   8.432
    1STR  H1S    129   2.668   4.681   8.664
    1STR  H1T    130   2.564   4.545   8.702
    1STR  H1U    131   2.494   4.704   8.668
    1STR  H1V    132   2.714   4.494   8.357
    1STR  H1W    133   2.706   4.418   8.512
    1STR  H1X    134   3.036   4.685   8.501
    1STR  H1Y    135   3.218   4.757   8.409
    1STR  H1Z    136   3.450   4.816   8.434
    1STR  H20    137   3.658   4.755   8.701
    1STR  H21    138   3.711   4.651   8.567
    1STR  H22    139   3.653   4.814   8.537
    1STR  H23    140   3.493   4.417   8.807
    1STR  H27    141   3.261   4.448   8.707
    1STR  H28    142   1.297   4.816   8.486
    1STR  H29    143   1.084   4.908   8.450
    1STR  H2A    144   0.781   4.751   8.414
    1STR  H2B    145   0.858   4.906   8.432
    1STR  H2C    146   0.780   4.833   8.572
    1STR  BCK1   147   0.922  13.040  13.114
    1STR  O03    148   0.885  12.923  13.126
    1STR  N04    149   1.030  13.093  13.173
    1STR  C05    150   1.117  13.037  13.267
    1STR  C06    151   1.258  13.049  13.248
    1STR  C07    152   1.351  12.999  13.343
    1STR  N08    153   1.490  13.018  13.321
    1STR  C09    154   1.595  12.984  13.398
    1STR  O0A    155   1.588  12.925  13.505
    1STR  O0B    156   1.713  13.023  13.343
    1STR  C0C    157   1.837  12.989  13.407
    1STR  C0D    158   1.875  12.844  13.371
    1STR  C0E    159   1.950  13.088  13.370
    1STR  O0F    160   2.071  13.055  13.440
    1STR  C0G    161   2.184  13.141  13.417
    1STR  C0H    162   2.166  13.271  13.497
    1STR  C0I    163   2.314  13.067  13.458
    1STR  O0J    164   2.431  13.141  13.419
    1STR  C0K    165   2.558  13.079  13.444
    1STR  C0M    166   2.581  12.965  13.344
    1STR  C0N    167   2.670  13.185  13.429
    1STR  O0O    168   2.799  13.131  13.461
    1STR  C0P    169   2.897  13.116  13.368
    1STR  O0Q    170   2.885  13.137  13.248
    1STR  N0R    171   3.009  13.077  13.429
    1STR  C0S    172   3.138  13.046  13.385
    1STR  C0T    173   3.233  13.021  13.485
    1STR  C0U    174   3.364  12.983  13.453
    1STR  C0V    175   3.404  12.966  13.319
    1STR  C0W    176   3.546  12.915  13.297
    1STR  C0X    177   3.312  12.992  13.213
    1STR  N0Y    178   3.336  12.975  13.075
    1STR  BCK2   179   3.442  12.961  12.994
    1STR  O10    180   3.562  12.969  13.020
    1STR  C13    181   3.179  13.032  13.249
    1STR  C14    182   1.300  12.933  13.456
    1STR  C15    183   1.161  12.922  13.478
    1STR  C16    184   1.069  12.976  13.386
    1STR  C17    185   0.922  12.970  13.422
    1STR  H1B    186   1.055  13.184  13.138
    1STR  H1C    187   1.293  13.098  13.159
    1STR  H1D    188   1.518  13.063  13.237
    1STR  H1E    189   1.824  12.995  13.516
    1STR  H1F    190   1.890  12.833  13.263
    1STR  H1G    191   1.967  12.814  13.421
    1STR  H1H    192   1.797  12.774  13.401
    1STR  H1I    193   1.918  13.189  13.396
    1STR  H1J    194   1.967  13.086  13.262
    1STR  H1K    195   2.191  13.164  13.310
    1STR  H1M    196   2.153  13.250  13.604
    1STR  H1N    197   2.080  13.329  13.464
    1STR  H1O    198   2.254  13.335  13.487
    1STR  H1P    199   2.314  13.049  13.565
    1STR  H1Q    200   2.313  12.969  13.410
    1STR  H1R    201   2.560  13.040  13.546
    1STR  H1S    202   2.679  12.919  13.360
    1STR  H1T    203   2.580  13.002  13.241
    1STR  H1U    204   2.507  12.885  13.352
    1STR  H1V    205   2.652  13.266  13.499
    1STR  H1W    206   2.669  13.230  13.330
    1STR  H1X    207   2.992  13.071  13.528
    1STR  H1Y    208   3.208  13.031  13.590
    1STR  H1Z    209   3.434  12.964  13.533
    1STR  H20    210   3.547  12.832  13.226
    1STR  H21    211   3.609  12.996  13.261
    1STR  H22    212   3.590  12.878  13.390
    1STR  H23    213   3.251  12.979  13.022
    1STR  H27    214   3.107  13.052  13.172
    1STR  H28    215   1.363  12.890  13.532
    1STR  H29    216   1.126  12.873  13.567
    1STR  H2A    217   0.871  13.062  13.392
    1STR  H2B    218   0.908  12.960  13.530
    1STR  H2C    219   0.874  12.886  13.374
    1STR  BCK1   220   5.272   4.288   4.377
    1STR  O03    221   5.191   4.345   4.305
    1STR  N04    222   5.401   4.258   4.348
    1STR  C05    223   5.482   4.252   4.231
    1STR  C06    224   5.624   4.256   4.247
    1STR  C07    225   5.717   4.239   4.139
    1STR  N08    226   5.858   4.237   4.161
    1STR  C09    227   5.962   4.211   4.078
    1STR  O0A    228   5.949   4.184   3.959
    1STR  O0B    229   6.087   4.216   4.141
    1STR  C0C    230   6.211   4.200   4.065
    1STR  C0D    231   6.239   4.332   3.990
    1STR  C0E    232   6.336   4.157   4.152
    1STR  O0F    233   6.465   4.145   4.082
    1STR  C0G    234   6.582   4.096   4.156
    1STR  C0H    235   6.561   3.946   4.182
    1STR  C0I    236   6.721   4.123   4.083
    1STR  O0J    237   6.847   4.107   4.160
    1STR  C0K    238   6.975   4.149   4.099
    1STR  C0M    239   6.971   4.301   4.080
    1STR  C0N    240   7.112   4.115   4.176
    1STR  O0O    241   7.234   4.154   4.104
    1STR  C0P    242   7.357   4.193   4.161
    1STR  O0Q    243   7.376   4.219   4.279
    1STR  N0R    244   7.452   4.191   4.065
    1STR  C0S    245   7.591   4.205   4.035
    1STR  C0T    246   7.623   4.118   3.929
    1STR  C0U    247   7.740   4.131   3.855
    1STR  C0V    248   7.835   4.229   3.887
    1STR  C0W    249   7.948   4.244   3.788
    1STR  C0X    250   7.823   4.308   4.005
    1STR  N0Y    251   7.933   4.393   4.044
    1STR  BCK2   252   8.054   4.422   3.985
    1STR  O10    253   8.139   4.492   4.039
    1STR  C13    254   7.697   4.296   4.077
    1STR  C14    255   5.660   4.223   4.010
    1STR  C15    256   5.520   4.220   3.992
    1STR  C16    257   5.431   4.231   4.100
    1STR  C17    258   5.283   4.215   4.068
    1STR  H1B    259   5.452   4.237   4.432
    1STR  H1C    260   5.664   4.270   4.346
    1STR  H1D    261   5.889   4.258   4.254
    1STR  H1E    262   6.195   4.122   3.991
    1STR  H1F    263   6.254   4.415   4.059
    1STR  H1G    264   6.329   4.323   3.929
    1STR  H1H    265   6.157   4.358   3.924
    1STR  H1I    266   6.310   4.062   4.199
    1STR  H1J    267   6.348   4.229   4.234
    1STR  H1K    268   6.585   4.149   4.252
    1STR  H1M    269   6.544   3.892   4.088
    1STR  H1N    270   6.476   3.926   4.246
    1STR  H1O    271   6.648   3.901   4.230
    1STR  H1P    272   6.726   4.060   3.994
    1STR  H1Q    273   6.715   4.225   4.046
    1STR  H1R    274   6.981   4.100   4.001
    1STR  H1S    275   7.066   4.337   4.041
    1STR  H1T    276   6.954   4.350   4.176
    1STR  H1U    277   6.895   4.333   4.010
    1STR  H1V    278   7.117   4.008   4.193
    1STR  H1W    279   7.112   4.160   4.276
    1STR  H1X    280   7.401   4.159   3.984
    1STR  H1Y    281   7.553   4.042   3.897
    1STR  H1Z    282   7.754   4.067   3.770
    1STR  H20    283   7.960   4.348   3.757
    1STR  H21    284   8.036   4.209   3.839
    1STR  H22    285   7.934   4.185   3.698
    1STR  H23    286   7.924   4.441   4.132
    1STR  H27    287   7.678   4.359   4.163
    1STR  H28    288   5.721   4.212   3.922
    1STR  H29    289   5.482   4.205   3.892
    1STR  H2A    290   5.233   4.153   4.142
    1STR  H2B    291   5.267   4.168   3.971
    1STR  H2C    292   5.234   4.313   4.065
    1STR  BCK1   293   5.278   8.710   4.417
    1STR  O03    294   5.220   8.730   4.523
    1STR  N04    295   5.397   8.763   4.379
    1STR  C05    296   5.481   8.863   4.432
    1STR  C06    297   5.623   8.852   4.417
    1STR  C07    298   5.715   8.953   4.461
    1STR  N08    299   5.856   8.940   4.439
    1STR  C09    300   5.961   9.017   4.476
    1STR  O0A    301   5.950   9.118   4.545
    1STR  O0B    302   6.086   8.973   4.430
    1STR  C0C    303   6.211   9.037   4.472
    1STR  C0D    304   6.242   8.991   4.615
    1STR  C0E    305   6.335   9.010   4.376
    1STR  O0F    306   6.465   9.067   4.416
    1STR  C0G    307   6.580   9.055   4.325
    1STR  C0H    308   6.555   9.149   4.206
    1STR  C0I    309   6.724   9.086   4.389
    1STR  O0J    310   6.844   9.055   4.306
    1STR  C0K    311   6.981   9.072   4.359
    1STR  C0M    312   6.998   8.976   4.478
    1STR  C0N    313   7.101   9.048   4.253
    1STR  O0O    314   7.240   9.084   4.288
    1STR  C0P    315   7.356   9.018   4.237
    1STR  O0Q    316   7.353   8.910   4.179
    1STR  N0R    317   7.471   9.087   4.263
    1STR  C0S    318   7.613   9.063   4.266
    1STR  C0T    319   7.672   9.124   4.378
    1STR  C0U    320   7.808   9.106   4.411
    1STR  C0V    321   7.893   9.030   4.329
    1STR  C0W    322   8.027   8.989   4.388
    1STR  C0X    323   7.847   8.982   4.203
    1STR  N0Y    324   7.942   8.913   4.122
    1STR  BCK2   325   8.052   8.960   4.056
    1STR  O10    326   8.144   8.887   4.020
    1STR  C13    327   7.704   8.994   4.176
    1STR  C14    328   5.658   9.066   4.524
    1STR  C15    329   5.519   9.080   4.538
    1STR  C16    330   5.429   8.982   4.490
    1STR  C17    331   5.281   9.015   4.497
    1STR  H1B    332   5.434   8.718   4.296
    1STR  H1C    333   5.662   8.763   4.370
    1STR  H1D    334   5.886   8.860   4.386
    1STR  H1E    335   6.194   9.144   4.474
    1STR  H1F    336   6.256   8.883   4.620
    1STR  H1G    337   6.331   9.039   4.653
    1STR  H1H    338   6.160   9.016   4.683
    1STR  H1I    339   6.307   9.049   4.278
    1STR  H1J    340   6.348   8.903   4.364
    1STR  H1K    341   6.583   8.952   4.290
    1STR  H1M    342   6.538   9.252   4.240
    1STR  H1N    343   6.468   9.119   4.148
    1STR  H1O    344   6.640   9.150   4.138
    1STR  H1P    345   6.728   9.191   4.418
    1STR  H1Q    346   6.729   9.029   4.481
    1STR  H1R    347   6.989   9.175   4.395
    1STR  H1S    348   7.099   8.982   4.519
    1STR  H1T    349   6.979   8.873   4.448
    1STR  H1U    350   6.930   8.999   4.560
    1STR  H1V    351   7.078   9.106   4.164
    1STR  H1W    352   7.099   8.944   4.220
    1STR  H1X    353   7.444   9.174   4.304
    1STR  H1Y    354   7.613   9.182   4.447
    1STR  H1Z    355   7.844   9.147   4.504
    1STR  H20    356   8.017   8.888   4.428
    1STR  H21    357   8.109   8.988   4.316
    1STR  H22    358   8.057   9.054   4.470
    1STR  H23    359   7.940   8.813   4.128
    1STR  H27    360   7.664   8.950   4.086
    1STR  H28    361   5.719   9.146   4.562
    1STR  H29    362   5.480   9.170   4.584
    1STR  H2A    363   5.228   8.977   4.410
    1STR  H2B    364   5.263   9.122   4.501
    1STR  H2C    365   5.236   8.971   4.586
    1STR  BCK1   366   9.610   4.290   4.423
    1STR  O03    367   9.548   4.393   4.399
    1STR  N04    368   9.744   4.289   4.428
    1STR  C05    369   9.832   4.182   4.448
    1STR  C06    370   9.973   4.207   4.447
    1STR  C07    371  10.070   4.104   4.463
    1STR  N08    372  10.208   4.134   4.465
    1STR  C09    373  10.315   4.053   4.481
    1STR  O0A    374  10.308   3.932   4.497
    1STR  O0B    375  10.434   4.121   4.478
    1STR  C0C    376  10.558   4.048   4.488
    1STR  C0D    377  10.593   3.988   4.351
    1STR  C0E    378  10.673   4.136   4.543
    1STR  O0F    379  10.795   4.061   4.558
    1STR  C0G    380  10.908   4.131   4.613
    1STR  C0H    381  10.890   4.145   4.764
    1STR  C0I    382  11.041   4.055   4.580
    1STR  O0J    383  11.157   4.133   4.615
    1STR  C0K    384  11.286   4.078   4.582
    1STR  C0M    385  11.308   4.083   4.430
    1STR  C0N    386  11.399   4.159   4.653
    1STR  O0O    387  11.530   4.105   4.630
    1STR  C0P    388  11.633   4.181   4.584
    1STR  O0Q    389  11.626   4.297   4.544
    1STR  N0R    390  11.746   4.109   4.589
    1STR  C0S    391  11.879   4.130   4.550
    1STR  C0T    392  11.966   4.020   4.566
    1STR  C0U    393  12.099   4.025   4.522
    1STR  C0V    394  12.151   4.141   4.461
    1STR  C0W    395  12.290   4.129   4.402
    1STR  C0X    396  12.070   4.258   4.451
    1STR  N0Y    397  12.112   4.378   4.391
    1STR  BCK2   398  12.230   4.442   4.379
    1STR  O10    399  12.337   4.412   4.431
    1STR  C13    400  11.934   4.249   4.494
    1STR  C14    401  10.021   3.972   4.478
    1STR  C15    402   9.883   3.945   4.481
    1STR  C16    403   9.788   4.048   4.468
    1STR  C17    404   9.642   4.007   4.477
    1STR  H1B    405   9.782   4.381   4.412
    1STR  H1C    406  10.007   4.309   4.434
    1STR  H1D    407  10.235   4.230   4.452
    1STR  H1E    408  10.545   3.966   4.559
    1STR  H1F    409  10.609   4.066   4.276
    1STR  H1G    410  10.685   3.929   4.357
    1STR  H1H    411  10.514   3.922   4.315
    1STR  H1I    412  10.642   4.177   4.639
    1STR  H1J    413  10.690   4.221   4.477
    1STR  H1K    414  10.915   4.230   4.567
    1STR  H1M    415  10.876   4.047   4.812
    1STR  H1N    416  10.804   4.207   4.790
    1STR  H1O    417  10.977   4.192   4.810
    1STR  H1P    418  11.042   3.959   4.630
    1STR  H1Q    419  11.041   4.034   4.473
    1STR  H1R    420  11.291   3.975   4.617
    1STR  H1S    421  11.407   4.045   4.404
    1STR  H1T    422  11.303   4.186   4.394
    1STR  H1U    423  11.236   4.024   4.375
    1STR  H1V    424  11.382   4.156   4.761
    1STR  H1W    425  11.393   4.264   4.626
    1STR  H1X    426  11.725   4.019   4.629
    1STR  H1Y    427  11.930   3.928   4.610
    1STR  H1Z    428  12.160   3.937   4.532
    1STR  H20    429  12.298   4.184   4.308
    1STR  H21    430  12.365   4.168   4.471
    1STR  H22    431  12.316   4.026   4.380
    1STR  H23    432  12.036   4.433   4.354
    1STR  H27    433  11.869   4.335   4.484
    1STR  H28    434  10.086   3.887   4.489
    1STR  H29    435   9.851   3.843   4.494
    1STR  H2A    436   9.593   4.060   4.558
    1STR  H2B    437   9.631   3.901   4.498
    1STR  H2C    438   9.590   4.027   4.383
    1STR  BCK1   439   9.359   4.227   8.393
    1STR  O03    440   9.280   4.150   8.445
    1STR  N04    441   9.493   4.235   8.435
    1STR  C05    442   9.611   4.320   8.411
    1STR  C06    443   9.753   4.283   8.437
    1STR  C07    444   9.872   4.368   8.414
    1STR  N08    445  10.016   4.339   8.440
    1STR  C09    446  10.135   4.403   8.398
    1STR  O0A    447  10.131   4.496   8.319
    1STR  O0B    448  10.270   4.359   8.447
    1STR  C0C    449  10.403   4.424   8.408
    1STR  C0D    450  10.417   4.562   8.476
    1STR  C0E    451  10.550   4.351   8.426
    1STR  O0F    452  10.679   4.420   8.385
    1STR  C0G    453  10.814   4.353   8.395
    1STR  C0H    454  10.819   4.241   8.290
    1STR  C0I    455  10.953   4.437   8.378
    1STR  O0J    456  11.082   4.363   8.393
    1STR  C0K    457  11.215   4.428   8.373
    1STR  C0M    458  11.242   4.530   8.484
    1STR  C0N    459  11.345   4.334   8.371
    1STR  O0O    460  11.471   4.401   8.338
    1STR  C0P    461  11.591   4.389   8.411
    1STR  O0Q    462  11.602   4.335   8.521
    1STR  N0R    463  11.694   4.442   8.342
    1STR  C0S    464  11.833   4.466   8.360
    1STR  C0T    465  11.900   4.505   8.241
    1STR  C0U    466  12.035   4.542   8.241
    1STR  C0V    467  12.111   4.543   8.358
    1STR  C0W    468  12.257   4.588   8.344
    1STR  C0X    469  12.051   4.503   8.481
    1STR  N0Y    470  12.124   4.502   8.602
    1STR  BCK2   471  12.241   4.562   8.630
    1STR  O10    472  12.298   4.550   8.738
    1STR  C13    473  11.912   4.464   8.480
    1STR  C14    474   9.838   4.496   8.366
    1STR  C15    475   9.706   4.537   8.345
    1STR  C16    476   9.594   4.455   8.369
    1STR  C17    477   9.459   4.526   8.357
    1STR  H1B    478   9.511   4.160   8.500
    1STR  H1C    479   9.770   4.184   8.475
    1STR  H1D    480  10.035   4.262   8.501
    1STR  H1E    481  10.393   4.444   8.301
    1STR  H1F    482  10.434   4.553   8.583
    1STR  H1G    483  10.503   4.616   8.435
    1STR  H1H    484  10.330   4.626   8.460
    1STR  H1I    485  10.545   4.256   8.373
    1STR  H1J    486  10.562   4.325   8.531
    1STR  H1K    487  10.820   4.308   8.494
    1STR  H1M    488  10.812   4.282   8.189
    1STR  H1N    489  10.740   4.168   8.303
    1STR  H1O    490  10.914   4.187   8.296
    1STR  H1P    491  10.954   4.483   8.279
    1STR  H1Q    492  10.954   4.520   8.448
    1STR  H1R    493  11.213   4.479   8.277
    1STR  H1S    494  11.338   4.580   8.467
    1STR  H1T    495  11.250   4.481   8.581
    1STR  H1U    496  11.167   4.608   8.490
    1STR  H1V    497  11.332   4.257   8.295
    1STR  H1W    498  11.356   4.280   8.465
    1STR  H1X    499  11.658   4.472   8.253
    1STR  H1Y    500  11.848   4.507   8.147
    1STR  H1Z    501  12.081   4.571   8.147
    1STR  H20    502  12.272   4.683   8.395
    1STR  H21    503  12.325   4.514   8.385
    1STR  H22    504  12.286   4.604   8.240
    1STR  H23    505  12.086   4.453   8.681
    1STR  H27    506  11.864   4.433   8.572
    1STR  H28    507   9.914   4.570   8.346
    1STR  H29    508   9.690   4.639   8.311
    1STR  H2A    509   9.371   4.464   8.356
    1STR  H2B    510   9.456   4.586   8.266
    1STR  H2C    511   9.448   4.595   8.442
    1STR  BCK1   512  13.748   4.242  12.949
    1STR  O03    513  13.652   4.243  13.025
    1STR  N04    514  13.886   4.267  12.978
    1STR  C05    515  13.985   4.308  13.083
    1STR  C06    516  14.134   4.310  13.065
    1STR  C07    517  14.238   4.346  13.167
    1STR  N08    518  14.386   4.360  13.154
    1STR  C09    519  14.491   4.389  13.246
    1STR  O0A    520  14.468   4.399  13.366
    1STR  O0B    521  14.635   4.408  13.203
    1STR  C0C    522  14.755   4.436  13.298
    1STR  C0D    523  14.788   4.308  13.377
    1STR  C0E    524  14.901   4.498  13.250
    1STR  O0F    525  15.026   4.495  13.338
    1STR  C0G    526  15.159   4.556  13.298
    1STR  C0H    527  15.150   4.709  13.310
    1STR  C0I    528  15.300   4.516  13.372
    1STR  O0J    529  15.428   4.571  13.316
    1STR  C0K    530  15.562   4.545  13.378
    1STR  C0M    531  15.599   4.397  13.367
    1STR  C0N    532  15.688   4.624  13.319
    1STR  O0O    533  15.817   4.603  13.388
    1STR  C0P    534  15.938   4.569  13.325
    1STR  O0Q    535  15.949   4.536  13.207
    1STR  N0R    536  16.042   4.577  13.411
    1STR  C0S    537  16.181   4.545  13.413
    1STR  C0T    538  16.244   4.569  13.536
    1STR  C0U    539  16.377   4.532  13.561
    1STR  C0V    540  16.455   4.469  13.462
    1STR  C0W    541  16.592   4.419  13.505
    1STR  C0X    542  16.401   4.452  13.331
    1STR  N0Y    543  16.480   4.400  13.226
    1STR  BCK2   544  16.614   4.382  13.221
    1STR  O10    545  16.671   4.335  13.122
    1STR  C13    546  16.263   4.488  13.309
    1STR  C14    547  14.181   4.370  13.294
    1STR  C15    548  14.042   4.375  13.315
    1STR  C16    549  13.947   4.353  13.213
    1STR  C17    550  13.807   4.391  13.256
    1STR  H1B    551  13.935   4.248  12.893
    1STR  H1C    552  14.170   4.284  12.968
    1STR  H1D    553  14.423   4.350  13.061
    1STR  H1E    554  14.715   4.506  13.371
    1STR  H1F    555  14.832   4.231  13.314
    1STR  H1G    556  14.862   4.331  13.455
    1STR  H1H    557  14.701   4.266  13.428
    1STR  H1I    558  14.885   4.602  13.223
    1STR  H1J    559  14.930   4.448  13.157
    1STR  H1K    560  15.175   4.530  13.193
    1STR  H1M    561  15.140   4.740  13.414
    1STR  H1N    562  15.067   4.751  13.253
    1STR  H1O    563  15.242   4.755  13.273
    1STR  H1P    564  15.295   4.547  13.476
    1STR  H1Q    565  15.309   4.407  13.375
    1STR  H1R    566  15.555   4.572  13.484
    1STR  H1S    567  15.695   4.378  13.415
    1STR  H1T    568  15.610   4.368  13.263
    1STR  H1U    569  15.526   4.331  13.415
    1STR  H1V    570  15.669   4.731  13.325
    1STR  H1W    571  15.701   4.603  13.213
    1STR  H1X    572  16.007   4.614  13.497
    1STR  H1Y    573  16.191   4.615  13.618
    1STR  H1Z    574  16.420   4.548  13.659
    1STR  H20    575  16.607   4.316  13.473
    1STR  H21    576  16.672   4.481  13.464
    1STR  H22    577  16.604   4.419  13.613
    1STR  H23    578  16.434   4.375  13.140
    1STR  H27    579  16.218   4.472  13.212
    1STR  H28    580  14.241   4.392  13.380
    1STR  H29    581  14.008   4.402  13.414
    1STR  H2A    582  13.734   4.396  13.177
    1STR  H2B    583  13.809   4.491  13.300
    1STR  H2C    584  13.776   4.324  13.336
    1STR  BCK1   585   0.160   0.817   4.474
    1STR  O03    586   0.093   0.753   4.554
    1STR  N04    587   0.138   0.949   4.454
    1STR  C05    588   0.201   1.043   4.367
    1STR  C06    589   0.182   1.185   4.386
    1STR  C07    590   0.241   1.285   4.301
    1STR  N08    591   0.223   1.427   4.321
    1STR  C09    592   0.284   1.534   4.263
    1STR  O0A    593   0.374   1.523   4.180
    1STR  O0B    594   0.240   1.661   4.305
    1STR  C0C    595   0.294   1.785   4.246
    1STR  C0D    596   0.232   1.808   4.107
    1STR  C0E    597   0.280   1.916   4.333
    1STR  O0F    598   0.333   2.040   4.275
    1STR  C0G    599   0.330   2.163   4.354
    1STR  C0H    600   0.438   2.152   4.463
    1STR  C0I    601   0.352   2.297   4.273
    1STR  O0J    602   0.330   2.421   4.348
    1STR  C0K    603   0.339   2.550   4.278
    1STR  C0M    604   0.223   2.564   4.178
    1STR  C0N    605   0.335   2.678   4.371
    1STR  O0O    606   0.347   2.805   4.300
    1STR  C0P    607   0.257   2.910   4.310
    1STR  O0Q    608   0.149   2.905   4.368
    1STR  N0R    609   0.307   3.020   4.251
    1STR  C0S    610   0.270   3.155   4.228
    1STR  C0T    611   0.380   3.239   4.198
    1STR  C0U    612   0.363   3.374   4.166
    1STR  C0V    613   0.235   3.433   4.161
    1STR  C0W    614   0.230   3.582   4.128
    1STR  C0X    615   0.120   3.355   4.190
    1STR  N0Y    616  17.429   3.411   4.186
    1STR  BCK2   617  17.381   3.528   4.136
    1STR  O10    618  17.263   3.557   4.148
    1STR  C13    619   0.140   3.216   4.225
    1STR  C14    620   0.317   1.236   4.193
    1STR  C15    621   0.335   1.099   4.171
    1STR  C16    622   0.279   1.001   4.255
    1STR  C17    623   0.302   0.856   4.217
    1STR  H1B    624   0.063   0.983   4.511
    1STR  H1C    625   0.122   1.217   4.470
    1STR  H1D    626   0.154   1.455   4.389
    1STR  H1E    627   0.401   1.768   4.232
    1STR  H1F    628   0.125   1.827   4.113
    1STR  H1G    629   0.278   1.894   4.058
    1STR  H1H    630   0.247   1.722   4.041
    1STR  H1I    631   0.329   1.897   4.429
    1STR  H1J    632   0.174   1.932   4.356
    1STR  H1K    633   0.232   2.170   4.401
    1STR  H1M    634   0.537   2.138   4.420
    1STR  H1N    635   0.420   2.069   4.532
    1STR  H1O    636   0.441   2.243   4.524
    1STR  H1P    637   0.452   2.298   4.230
    1STR  H1Q    638   0.284   2.294   4.187
    1STR  H1R    639   0.434   2.552   4.224
    1STR  H1S    640   0.229   2.659   4.126
    1STR  H1T    641   0.128   2.561   4.231
    1STR  H1U    642   0.223   2.486   4.102
    1STR  H1V    643   0.418   2.673   4.441
    1STR  H1W    644   0.245   2.678   4.433
    1STR  H1X    645   0.399   2.996   4.218
    1STR  H1Y    646   0.481   3.200   4.199
    1STR  H1Z    647   0.451   3.433   4.144
    1STR  H20    648   0.169   3.601   4.040
    1STR  H21    649   0.190   3.638   4.213
    1STR  H22    650   0.329   3.622   4.106
    1STR  H23    651  17.356   3.357   4.229
    1STR  H27    652   0.055   3.154   4.249
    1STR  H28    653   0.362   1.302   4.121
    1STR  H29    654   0.394   1.068   4.085
    1STR  H2A    655   0.338   0.795   4.300
    1STR  H2B    656   0.378   0.847   4.139
    1STR  H2C    657   0.210   0.812   4.178
    1STR  BCK1   658  17.412   5.138  17.185
    1STR  O03    659   0.069   5.065  17.174
    1STR  N04    660  17.424   5.265  17.234
    1STR  C05    661  17.327   5.365  17.269
    1STR  C06    662  17.351   5.507  17.254
    1STR  C07    663  17.254   5.610  17.287
    1STR  N08    664  17.279   5.752  17.283
    1STR  C09    665  17.192   5.859  17.291
    1STR  O0A    666  17.071   5.845  17.294
    1STR  O0B    667  17.250   5.989  17.296
    1STR  C0C    668  17.166   6.110  17.310
    1STR  C0D    669  17.118   6.127   0.016
    1STR  C0E    670  17.229   6.247  17.260
    1STR  O0F    671  17.146   6.368  17.272
    1STR  C0G    672  17.197   6.495  17.218
    1STR  C0H    673  17.190   6.489  17.065
    1STR  C0I    674  17.123   6.628  17.266
    1STR  O0J    675  17.185   6.750  17.214
    1STR  C0K    676  17.125   6.880  17.246
    1STR  C0M    677  17.148   6.914  17.394
    1STR  C0N    678  17.184   6.999  17.160
    1STR  O0O    679  17.111   7.123  17.174
    1STR  C0P    680  17.172   7.245  17.196
    1STR  O0Q    681  17.291   7.262  17.218
    1STR  N0R    682  17.080   7.343  17.194
    1STR  C0S    683  17.080   7.480  17.230
    1STR  C0T    684  16.959   7.527  17.284
    1STR  C0U    685  16.947   7.657  17.335
    1STR  C0V    686  17.054   7.748  17.325
    1STR  C0W    687  17.046   7.879  17.403
    1STR  C0X    688  17.171   7.711  17.253
    1STR  N0Y    689  17.265   7.809  17.220
    1STR  BCK2   690  17.233   7.930  17.170
    1STR  O10    691  17.317   8.014  17.142
    1STR  C13    692  17.186   7.574  17.213
    1STR  C14    693  17.129   5.562  17.332
    1STR  C15    694  17.105   5.425  17.353
    1STR  C16    695  17.204   5.328  17.330
    1STR  C17    696  17.175   5.192  17.390
    1STR  H1B    697   0.081   5.291  17.245
    1STR  H1C    698   0.007   5.538  17.216
    1STR  H1D    699  17.375   5.782  17.276
    1STR  H1E    700  17.077   6.094  17.249
    1STR  H1F    701  17.201   6.149   0.083
    1STR  H1G    702  17.048   6.210   0.023
    1STR  H1H    703  17.066   6.039   0.052
    1STR  H1I    704  17.257   6.233  17.156
    1STR  H1J    705  17.322   6.265  17.315
    1STR  H1K    706  17.301   6.505  17.250
    1STR  H1M    707  17.087   6.476  17.031
    1STR  H1N    708  17.249   6.408  17.023
    1STR  H1O    709  17.227   6.581  17.021
    1STR  H1P    710  17.019   6.624  17.234
    1STR  H1Q    711  17.122   6.631  17.374
    1STR  H1R    712  17.018   6.875  17.226
    1STR  H1S    713  17.107   7.012  17.418
    1STR  H1T    714  17.255   6.918  17.417
    1STR  H1U    715  17.102   6.842   0.021
    1STR  H1V    716  17.180   6.972  17.055
    1STR  H1W    717  17.290   7.014  17.182
    1STR  H1X    718  16.991   7.304  17.171
    1STR  H1Y    719  16.874   7.462  17.294
    1STR  H1Z    720  16.856   7.688  17.383
    1STR  H20    721  17.133   7.888   0.028
    1STR  H21    722  17.042   7.967  17.339
    1STR  H22    723  16.958   7.882   0.028
    1STR  H23    724  17.364   7.789  17.227
    1STR  H27    725  17.278   7.542  17.165
    1STR  H28    726  17.048   5.628  17.357
    1STR  H29    727  17.010   5.396  17.394
    1STR  H2A    728  17.254   5.118  17.376
    1STR  H2B    729  17.081   5.153  17.352
    1STR  H2C    730  17.163   5.203   0.057
    1STR  BCK1   731  17.390   5.269  13.082
    1STR  O03    732   0.040   5.186  13.074
    1STR  N04    733  17.396   5.394  13.133
    1STR  C05    734   0.050   5.469  13.209
    1STR  C06    735   0.041   5.612  13.203
    1STR  C07    736   0.123   5.700  13.282
    1STR  N08    737   0.106   5.841  13.275
    1STR  C09    738   0.166   5.942  13.344
    1STR  O0A    739   0.253   5.926  13.428
    1STR  O0B    740   0.117   6.066  13.309
    1STR  C0C    741   0.173   6.188  13.367
    1STR  C0D    742   0.304   6.222  13.294
    1STR  C0E    743   0.073   6.308  13.362
    1STR  O0F    744   0.126   6.432  13.415
    1STR  C0G    745   0.038   6.547  13.418
    1STR  C0H    746  17.376   6.529  13.532
    1STR  C0I    747   0.115   6.682  13.434
    1STR  O0J    748   0.031   6.800  13.416
    1STR  C0K    749   0.093   6.931  13.419
    1STR  C0M    750   0.182   6.950  13.296
    1STR  C0N    751  17.425   7.046  13.421
    1STR  O0O    752   0.039   7.181  13.420
    1STR  C0P    753  17.431   7.281  13.337
    1STR  O0Q    754  17.354   7.265  13.243
    1STR  N0R    755   0.043   7.400  13.374
    1STR  C0S    756   0.040   7.534  13.327
    1STR  C0T    757   0.120   7.621  13.402
    1STR  C0U    758   0.138   7.755  13.363
    1STR  C0V    759   0.075   7.807  13.249
    1STR  C0W    760   0.117   7.947  13.208
    1STR  C0X    761  17.422   7.727  13.175
    1STR  N0Y    762  17.352   7.774  13.060
    1STR  BCK2   763  17.310   7.894  13.009
    1STR  O10    764  17.316   8.004  13.062
    1STR  C13    765  17.409   7.589  13.215
    1STR  C14    766   0.218   5.638  13.366
    1STR  C15    767   0.229   5.498  13.374
    1STR  C16    768   0.145   5.413  13.299
    1STR  C17    769   0.159   5.264  13.324
    1STR  H1B    770  17.314   5.447  13.110
    1STR  H1C    771  17.409   5.657  13.137
    1STR  H1D    772   0.039   5.877  13.210
    1STR  H1E    773   0.196   6.168  13.472
    1STR  H1F    774   0.287   6.241  13.188
    1STR  H1G    775   0.349   6.312  13.337
    1STR  H1H    776   0.377   6.142  13.303
    1STR  H1I    777  17.424   6.279  13.417
    1STR  H1J    778   0.042   6.324  13.259
    1STR  H1K    779  17.425   6.552  13.322
    1STR  H1M    780  17.426   6.515  13.628
    1STR  H1N    781  17.311   6.443  13.516
    1STR  H1O    782  17.312   6.616  13.540
    1STR  H1P    783   0.163   6.686  13.533
    1STR  H1Q    784   0.196   6.683  13.362
    1STR  H1R    785   0.153   6.940  13.509
    1STR  H1S    786   0.228   7.048  13.296
    1STR  H1T    787   0.124   6.941  13.204
    1STR  H1U    788   0.263   6.877  13.291
    1STR  H1V    789  17.366   7.036  13.512
    1STR  H1W    790  17.355   7.033  13.338
    1STR  H1X    791   0.099   7.384  13.456
    1STR  H1Y    792   0.174   7.587  13.489
    1STR  H1Z    793   0.205   7.817  13.421
    1STR  H20    794   0.128   7.954  13.099
    1STR  H21    795   0.045   8.021  13.242
    1STR  H22    796   0.214   7.973  13.250
    1STR  H23    797  17.321   7.698  13.002
    1STR  H27    798  17.345   7.522  13.159
    1STR  H28    799   0.285   5.696  13.428
    1STR  H29    800   0.302   5.456  13.441
    1STR  H2A    801   0.061   5.216  13.329
    1STR  H2B    802   0.209   5.244  13.419
    1STR  H2C    803   0.218   5.218  13.245
    1STR  BCK1   804   0.091   9.562  13.133
    1STR  O03    805   0.030   9.474  13.073
    1STR  N04    806   0.106   9.695  13.100
    1STR  C05    807   0.083   9.781  12.987
    1STR  C06    808   0.085   9.926  13.004
    1STR  C07    809   0.070  10.023  12.897
    1STR  N08    810   0.078  10.167  12.915
    1STR  C09    811   0.078  10.273  12.825
    1STR  O0A    812   0.069  10.255  12.705
    1STR  O0B    813   0.091  10.407  12.878
    1STR  C0C    814   0.084  10.532  12.793
    1STR  C0D    815  17.378  10.549  12.747
    1STR  C0E    816   0.141  10.673  12.852
    1STR  O0F    817   0.123  10.805  12.780
    1STR  C0G    818   0.188  10.932  12.827
    1STR  C0H    819   0.338  10.913  12.800
    1STR  C0I    820   0.140  11.079  12.768
    1STR  O0J    821   0.180  11.212  12.831
    1STR  C0K    822   0.128  11.347  12.784
    1STR  C0M    823  17.416  11.342  12.799
    1STR  C0N    824   0.176  11.491  12.851
    1STR  O0O    825   0.123  11.624  12.802
    1STR  C0P    826   0.112  11.750  12.878
    1STR  O0Q    827   0.128  11.757  12.999
    1STR  N0R    828   0.084  11.861  12.800
    1STR  C0S    829   0.060  12.006  12.797
    1STR  C0T    830   0.083  12.057  12.667
    1STR  C0U    831   0.048  12.186  12.627
    1STR  C0V    832  17.429  12.279  12.715
    1STR  C0W    833  17.381  12.410  12.653
    1STR  C0X    834  17.413  12.246  12.853
    1STR  N0Y    835  17.366  12.351  12.943
    1STR  BCK2   836  17.313  12.479  12.928
    1STR  O10    837  17.299  12.553  13.025
    1STR  C13    838   0.009  12.108  12.891
    1STR  C14    839   0.046   9.965  12.770
    1STR  C15    840   0.045   9.826  12.750
    1STR  C16    841   0.067   9.733  12.854
    1STR  C17    842   0.077   9.587  12.814
    1STR  H1B    843   0.143   9.744  13.179
    1STR  H1C    844   0.099   9.963  13.104
    1STR  H1D    845   0.086  10.200  13.010
    1STR  H1E    846   0.142  10.508  12.704
    1STR  H1F    847  17.312  10.570  12.831
    1STR  H1G    848  17.370  10.632  12.677
    1STR  H1H    849  17.341  10.460  12.696
    1STR  H1I    850   0.247  10.656  12.868
    1STR  H1J    851   0.098  10.686  12.952
    1STR  H1K    852   0.172  10.937  12.935
    1STR  H1M    853   0.358  10.895  12.694
    1STR  H1N    854   0.380  10.829  12.855
    1STR  H1O    855   0.396  11.001  12.830
    1STR  H1P    856   0.170  11.083  12.663
    1STR  H1Q    857   0.031  11.075  12.766
    1STR  H1R    858   0.153  11.354  12.678
    1STR  H1S    859  17.371  11.437  12.770
    1STR  H1T    860  17.389  11.322  12.902
    1STR  H1U    861  17.371  11.266  12.736
    1STR  H1V    862   0.284  11.497  12.839
    1STR  H1W    863   0.161  11.488  12.959
    1STR  H1X    864   0.086  11.825  12.707
    1STR  H1Y    865   0.128  11.994  12.592
    1STR  H1Z    866   0.066  12.215  12.525
    1STR  H20    867  17.277  12.429  12.679
    1STR  H21    868   0.002  12.494  12.686
    1STR  H22    869  17.385  12.407  12.544
    1STR  H23    870  17.378  12.331  13.041
    1STR  H27    871  17.435  12.078  12.994
    1STR  H28    872   0.030  10.026  12.683
    1STR  H29    873   0.030   9.788  12.650
    1STR  H2A    874   0.155   9.535  12.870
    1STR  H2B    875   0.103   9.576  12.709
    1STR  H2C    876  17.422   9.536  12.830
    1STR  BCK1   877   0.099  13.812   4.460
    1STR  O03    878   0.050  13.726   4.532
    1STR  N04    879   0.067  13.947   4.447
    1STR  C05    880  17.412  14.047   4.494
    1STR  C06    881  17.426  14.191   4.468
    1STR  C07    882  17.334  14.297   4.513
    1STR  N08    883  17.340  14.441   4.483
    1STR  C09    884  17.269  14.551   4.533
    1STR  O0A    885  17.190  14.538   4.626
    1STR  O0B    886  17.287  14.684   4.474
    1STR  C0C    887  17.218  14.809   4.527
    1STR  C0D    888  17.283  14.848   4.661
    1STR  C0E    889  17.204  14.946   4.439
    1STR  O0F    890  17.158  15.073   4.504
    1STR  C0G    891  17.139  15.201   4.428
    1STR  C0H    892  17.012  15.189   4.343
    1STR  C0I    893  17.130  15.341   4.508
    1STR  O0J    894  17.130  15.468   4.429
    1STR  C0K    895  17.124  15.600   4.496
    1STR  C0M    896  17.251  15.624   4.577
    1STR  C0N    897  17.108  15.729   4.402
    1STR  O0O    898  17.101  15.858   4.471
    1STR  C0P    899  17.178  15.970   4.437
    1STR  O0Q    900  17.272  15.970   4.359
    1STR  N0R    901  17.134  16.081   4.502
    1STR  C0S    902  17.172  16.217   4.514
    1STR  C0T    903  17.079  16.300   4.580
    1STR  C0U    904  17.105  16.435   4.608
    1STR  C0V    905  17.227  16.496   4.570
    1STR  C0W    906  17.245  16.643   4.608
    1STR  C0X    907  17.324  16.418   4.500
    1STR  N0Y    908   0.006  16.474   4.457
    1STR  BCK2   909   0.064  16.591   4.490
    1STR  O10    910   0.171  16.628   4.443
    1STR  C13    911  17.294  16.280   4.472
    1STR  C14    912  17.226  14.247   4.590
    1STR  C15    913  17.207  14.110   4.614
    1STR  C16    914  17.294  14.011   4.565
    1STR  C17    915  17.249  13.867   4.586
    1STR  H1B    916   0.133  13.989   4.383
    1STR  H1C    917   0.072  14.222   4.411
    1STR  H1D    918  17.406  14.469   4.413
    1STR  H1E    919  17.116  14.778   4.550
    1STR  H1F    920  17.386  14.883   4.647
    1STR  H1G    921  17.227  14.929   4.708
    1STR  H1H    922  17.284  14.766   4.731
    1STR  H1I    923  17.137  14.925   4.356
    1STR  H1J    924  17.301  14.968   4.394
    1STR  H1K    925  17.225  15.211   4.361
    1STR  H1M    926  16.923  15.179   4.405
    1STR  H1N    927  17.015  15.105   4.274
    1STR  H1O    928  16.997  15.279   4.282
    1STR  H1P    929  17.040  15.341   4.570
    1STR  H1Q    930  17.213  15.345   4.579
    1STR  H1R    931  17.038  15.600   4.563
    1STR  H1S    932  17.247  15.721   4.628
    1STR  H1T    933  17.338  15.627   4.511
    1STR  H1U    934  17.268  15.549   4.654
    1STR  H1V    935  17.015  15.720   4.345
    1STR  H1W    936  17.187  15.732   4.327
    1STR  H1X    937  17.052  16.056   4.555
    1STR  H1Y    938  16.984  16.261   4.612
    1STR  H1Z    939  17.030  16.494   4.659
    1STR  H20    940  17.330  16.656   4.675
    1STR  H21    941  17.259  16.705   4.520
    1STR  H22    942  17.159  16.683   4.661
    1STR  H23    943   0.062  16.421   4.392
    1STR  H27    944  17.367  16.220   4.420
    1STR  H28    945  17.151  14.313   4.631
    1STR  H29    946  17.120  14.081   4.671
    1STR  H2A    947  17.259  13.810   4.494
    1STR  H2B    948  17.144  13.861   4.616
    1STR  H2C    949  17.308  13.820   4.665
    1STR  BCK1   950   4.512   5.123   4.135
    1STR  O03    951   4.616   5.076   4.089
    1STR  N04    952   4.496   5.247   4.193
    1STR  C05    953   4.582   5.353   4.240
    1STR  C06    954   4.541   5.493   4.244
    1STR  C07    955   4.623   5.602   4.296
    1STR  N08    956   4.582   5.742   4.312
    1STR  C09    957   4.659   5.856   4.330
    1STR  O0A    958   4.780   5.854   4.317
    1STR  O0B    959   4.592   5.981   4.364
    1STR  C0C    960   4.667   6.110   4.375
    1STR  C0D    961   4.701   6.157   4.232
    1STR  C0E    962   4.608   6.238   4.455
    1STR  O0F    963   4.681   6.368   4.444
    1STR  C0G    964   4.636   6.490   4.515
    1STR  C0H    965   4.668   6.474   4.665
    1STR  C0I    966   4.695   6.632   4.467
    1STR  O0J    967   4.639   6.753   4.531
    1STR  C0K    968   4.687   6.888   4.494
    1STR  C0M    969   4.648   6.919   4.348
    1STR  C0N    970   4.633   7.008   4.583
    1STR  O0O    971   4.684   7.141   4.550
    1STR  C0P    972   4.605   7.257   4.551
    1STR  O0Q    973   4.483   7.258   4.562
    1STR  N0R    974   4.680   7.368   4.535
    1STR  C0S    975   4.655   7.507   4.515
    1STR  C0T    976   4.768   7.582   4.475
    1STR  C0U    977   4.757   7.718   4.440
    1STR  C0V    978   4.634   7.786   4.447
    1STR  C0W    979   4.627   7.927   4.389
    1STR  C0X    980   4.520   7.717   4.498
    1STR  N0Y    981   4.398   7.786   4.515
    1STR  BCK2   982   4.381   7.912   4.556
    1STR  O10    983   4.272   7.966   4.564
    1STR  C13    984   4.531   7.577   4.528
    1STR  C14    985   4.750   5.563   4.341
    1STR  C15    986   4.791   5.428   4.344
    1STR  C16    987   4.707   5.323   4.300
    1STR  C17    988   4.753   5.182   4.331
    1STR  H1B    989   4.398   5.266   4.206
    1STR  H1C    990   4.443   5.517   4.206
    1STR  H1D    991   4.484   5.761   4.312
    1STR  H1E    992   4.762   6.086   4.424
    1STR  H1F    993   4.611   6.185   4.178
    1STR  H1G    994   4.767   6.243   4.235
    1STR  H1H    995   4.752   6.079   4.176
    1STR  H1I    996   4.601   6.211   4.560
    1STR  H1J    997   4.505   6.255   4.422
    1STR  H1K    998   4.527   6.497   4.503
    1STR  H1M    999   4.775   6.465   4.681
    1STR  H1N   1000   4.619   6.388   4.710
    1STR  H1O   1001   4.635   6.562   4.721
    1STR  H1P   1002   4.803   6.632   4.483
    1STR  H1Q   1003   4.681   6.639   4.360
    1STR  H1R   1004   4.796   6.889   4.501
    1STR  H1S   1005   4.683   7.018   4.319
    1STR  H1T   1006   4.539   6.919   4.337
    1STR  H1U   1007   4.690   6.848   4.277
    1STR  H1V   1008   4.660   6.990   4.687
    1STR  H1W   1009   4.524   7.010   4.581
    1STR  H1X   1010   4.777   7.341   4.533
    1STR  H1Y   1011   4.865   7.537   4.466
    1STR  H1Z   1012   4.845   7.770   4.405
    1STR  H20   1013   4.544   7.934   4.318
    1STR  H21   1014   4.612   8.003   4.466
    1STR  H22   1015   4.717   7.953   4.334
    1STR  H23   1016   4.312   7.735   4.501
    1STR  H27   1017   4.444   7.523   4.562
    1STR  H28   1018   4.820   5.634   4.381
    1STR  H29   1019   4.888   5.405   4.385
    1STR  H2A   1020   4.670   5.123   4.371
    1STR  H2B   1021   4.832   5.181   4.407
    1STR  H2C   1022   4.793   5.132   4.243
    1STR  BCK1  1023   4.383   5.125  12.753
    1STR  O03   1024   4.471   5.045  12.782
    1STR  N04   1025   4.383   5.252  12.804
    1STR  C05   1026   4.290   5.360  12.796
    1STR  C06   1027   4.330   5.498  12.816
    1STR  C07   1028   4.238   5.611  12.812
    1STR  N08   1029   4.273   5.750  12.832
    1STR  C09   1030   4.205   5.864  12.796
    1STR  O0A   1031   4.102   5.861  12.730
    1STR  O0B   1032   4.258   5.990  12.838
    1STR  C0C   1033   4.187   6.118  12.812
    1STR  C0D   1034   4.072   6.135  12.913
    1STR  C0E   1035   4.271   6.253  12.808
    1STR  O0F   1036   4.198   6.378  12.778
    1STR  C0G   1037   4.273   6.504  12.762
    1STR  C0H   1038   4.350   6.498  12.629
    1STR  C0I   1039   4.189   6.639  12.765
    1STR  O0J   1040   4.270   6.762  12.760
    1STR  C0K   1041   4.206   6.894  12.761
    1STR  C0M   1042   4.139   6.920  12.896
    1STR  C0N   1043   4.306   7.013  12.733
    1STR  O0O   1044   4.246   7.146  12.729
    1STR  C0P   1045   4.301   7.256  12.793
    1STR  O0Q   1046   4.395   7.252  12.871
    1STR  N0R   1047   4.237   7.369  12.757
    1STR  C0S   1048   4.244   7.505  12.796
    1STR  C0T   1049   4.147   7.591  12.739
    1STR  C0U   1050   4.136   7.725  12.778
    1STR  C0V   1051   4.221   7.780  12.876
    1STR  C0W   1052   4.188   7.921  12.925
    1STR  C0X   1053   4.327   7.701  12.929
    1STR  N0Y   1054   4.417   7.748  13.026
    1STR  BCK2  1055   4.475   7.867  13.050
    1STR  O10   1056   4.470   7.968  12.981
    1STR  C13   1057   4.335   7.563  12.889
    1STR  C14   1058   4.103   5.576  12.791
    1STR  C15   1059   4.061   5.443  12.772
    1STR  C16   1060   4.151   5.335  12.775
    1STR  C17   1061   4.087   5.197  12.764
    1STR  H1B   1062   4.467   5.269  12.858
    1STR  H1C   1063   4.434   5.518  12.835
    1STR  H1D   1064   4.360   5.769  12.879
    1STR  H1E   1065   4.141   6.107  12.713
    1STR  H1F   1066   4.109   6.150  13.015
    1STR  H1G   1067   4.011   6.221  12.887
    1STR  H1H   1068   4.005   6.048  12.915
    1STR  H1I   1069   4.350   6.239  12.734
    1STR  H1J   1070   4.321   6.266  12.904
    1STR  H1K   1071   4.344   6.510  12.845
    1STR  H1M   1072   4.282   6.486  12.545
    1STR  H1N   1073   4.422   6.417  12.626
    1STR  H1O   1074   4.405   6.590  12.613
    1STR  H1P   1075   4.119   6.641  12.681
    1STR  H1Q   1076   4.127   6.641  12.855
    1STR  H1R   1077   4.130   6.896  12.682
    1STR  H1S   1078   4.092   7.018  12.897
    1STR  H1T   1079   4.213   6.920  12.977
    1STR  H1U   1080   4.062   6.847  12.920
    1STR  H1V   1081   4.354   6.999  12.636
    1STR  H1W   1082   4.388   7.012  12.806
    1STR  H1X   1083   4.168   7.348  12.687
    1STR  H1Y   1084   4.077   7.554  12.665
    1STR  H1Z   1085   4.058   7.786  12.735
    1STR  H20   1086   4.207   7.931  13.032
    1STR  H21   1087   4.247   7.996  12.872
    1STR  H22   1088   4.083   7.945  12.909
    1STR  H23   1089   4.452   7.676  13.087
    1STR  H27   1090   4.412   7.501  12.931
    1STR  H28   1091   4.025   5.651  12.790
    1STR  H29   1092   3.956   5.425  12.758
    1STR  H2A   1093   4.146   5.121  12.714
    1STR  H2B   1094   3.995   5.203  12.706
    1STR  H2C   1095   4.061   5.162  12.864
    1STR  BCK1  1096   4.225   9.478  13.296
    1STR  O03   1097   4.191   9.389  13.218
    1STR  N04   1098   4.240   9.609  13.260
    1STR  C05   1099   4.286   9.722  13.334
    1STR  C06   1100   4.267   9.859  13.290
    1STR  C07   1101   4.314   9.976  13.363
    1STR  N08   1102   4.296  10.115  13.323
    1STR  C09   1103   4.311  10.232  13.395
    1STR  O0A   1104   4.340  10.232  13.514
    1STR  O0B   1105   4.293  10.358  13.327
    1STR  C0C   1106   4.320  10.488  13.396
    1STR  C0D   1107   4.473  10.510  13.402
    1STR  C0E   1108   4.252  10.623  13.341
    1STR  O0F   1109   4.282  10.752  13.410
    1STR  C0G   1110   4.213  10.878  13.371
    1STR  C0H   1111   4.067  10.867  13.418
    1STR  C0I   1112   4.273  11.018  13.425
    1STR  O0J   1113   4.213  11.144  13.374
    1STR  C0K   1114   4.264  11.277  13.417
    1STR  C0M   1115   4.408  11.293  13.365
    1STR  C0N   1116   4.184  11.408  13.369
    1STR  O0O   1117   4.229  11.536  13.426
    1STR  C0P   1118   4.235  11.660  13.357
    1STR  O0Q   1119   4.223  11.675  13.236
    1STR  N0R   1120   4.257  11.760  13.446
    1STR  C0S   1121   4.287  11.900  13.458
    1STR  C0T   1122   4.309  11.933  13.593
    1STR  C0U   1123   4.358  12.058  13.632
    1STR  C0V   1124   4.383  12.160  13.539
    1STR  C0W   1125   4.459  12.281  13.591
    1STR  C0X   1126   4.344  12.142  13.403
    1STR  N0Y   1127   4.352  12.254  13.315
    1STR  BCK2  1128   4.359  12.388  13.344
    1STR  O10   1129   4.370  12.474  13.258
    1STR  C13   1130   4.301  12.009  13.363
    1STR  C14   1131   4.385   9.946  13.482
    1STR  C15   1132   4.405   9.815  13.526
    1STR  C16   1133   4.358   9.703  13.456
    1STR  C17   1134   4.391   9.566  13.514
    1STR  H1B   1135   4.212   9.623  13.164
    1STR  H1C   1136   4.214   9.875  13.197
    1STR  H1D   1137   4.267  10.132  13.228
    1STR  H1E   1138   4.285  10.476  13.498
    1STR  H1F   1139   4.515  10.527  13.303
    1STR  H1G   1140   4.496  10.598  13.463
    1STR  H1H   1141   4.524  10.425  13.447
    1STR  H1I   1142   4.144  10.607  13.343
    1STR  H1J   1143   4.278  10.636  13.236
    1STR  H1K   1144   4.216  10.883  13.262
    1STR  H1M   1145   4.061  10.853  13.526
    1STR  H1N   1146   4.014  10.784  13.371
    1STR  H1O   1147   4.012  10.957  13.393
    1STR  H1P   1148   4.267  11.018  13.534
    1STR  H1Q   1149   4.379  11.018  13.402
    1STR  H1R   1150   4.265  11.278  13.526
    1STR  H1S   1151   4.448  11.390  13.394
    1STR  H1T   1152   4.410  11.288  13.256
    1STR  H1U   1153   4.476  11.218  13.405
    1STR  H1V   1154   4.080  11.396  13.399
    1STR  H1W   1155   4.182  11.415  13.261
    1STR  H1X   1156   4.253  11.715  13.535
    1STR  H1Y   1157   4.294  11.860  13.671
    1STR  H1Z   1158   4.381  12.075  13.736
    1STR  H20   1159   4.536  12.311  13.519
    1STR  H21   1160   4.392  12.365  13.609
    1STR  H22   1161   4.511  12.259  13.684
    1STR  H23   1162   4.349  12.237  13.215
    1STR  H27   1163   4.279  11.989  13.259
    1STR  H28   1164   4.428  10.023  13.543
    1STR  H29   1165   4.461   9.800  13.618
    1STR  H2A   1166   4.301   9.513  13.544
    1STR  H2B   1167   4.454   9.574  13.603
    1STR  H2C   1168   4.446   9.505  13.442
    1STR  BCK1  1169   4.476  13.822  17.167
    1STR  O03   1170   4.422  13.724  17.218
    1STR  N04   1171   4.470  13.949  17.220
    1STR  C05   1172   4.531  14.072  17.177
    1STR  C06   1173   4.497  14.204  17.231
    1STR  C07   1174   4.556  14.330  17.185
    1STR  N08   1175   4.532  14.464  17.239
    1STR  C09   1176   4.567  14.589  17.188
    1STR  O0A   1177   4.613  14.601  17.075
    1STR  O0B   1178   4.549  14.709  17.268
    1STR  C0C   1179   4.582  14.845  17.214
    1STR  C0D   1180   4.477  14.882  17.108
    1STR  C0E   1181   4.603  14.975  17.309
    1STR  O0F   1182   4.630  15.108  17.244
    1STR  C0G   1183   4.658  15.232  17.323
    1STR  C0H   1184   4.797  15.216  17.386
    1STR  C0I   1185   4.654  15.376  17.248
    1STR  O0J   1186   4.667  15.500  17.331
    1STR  C0K   1187   4.663  15.637  17.272
    1STR  C0M   1188   4.525  15.659  17.208
    1STR  C0N   1189   4.691  15.762  17.370
    1STR  O0O   1190   4.691  15.901  17.316
    1STR  C0P   1191   4.649  16.017  17.389
    1STR  O0Q   1192   4.590  16.013   0.056
    1STR  N0R   1193   4.680  16.133  17.325
    1STR  C0S   1194   4.655  16.275  17.333
    1STR  C0T   1195   4.685  16.342  17.213
    1STR  C0U   1196   4.656  16.478  17.194
    1STR  C0V   1197   4.599  16.557  17.295
    1STR  C0W   1198   4.548  16.695  17.255
    1STR  C0X   1199   4.581  16.502  17.425
    1STR  N0Y   1200   4.534  16.586   0.092
    1STR  BCK2  1201   4.548  16.720   0.117
    1STR  O10   1202   4.492  16.774   0.211
    1STR  C13   1203   4.605  16.359   0.000
    1STR  C14   1204   4.648  14.314  17.079
    1STR  C15   1205   4.685  14.189  17.028
    1STR  C16   1206   4.632  14.069  17.077
    1STR  C17   1207   4.693  13.941  17.023
    1STR  H1B   1208   4.408  13.953  17.300
    1STR  H1C   1209   4.424  14.208  17.310
    1STR  H1D   1210   4.485  14.470  17.327
    1STR  H1E   1211   4.678  14.832  17.162
    1STR  H1F   1212   4.380  14.900  17.153
    1STR  H1G   1213   4.507  14.972  17.055
    1STR  H1H   1214   4.465  14.803  17.033
    1STR  H1I   1215   4.685  14.953  17.378
    1STR  H1J   1216   4.515  14.987  17.371
    1STR  H1K   1217   4.583  15.236  17.402
    1STR  H1M   1218   4.874  15.203  17.310
    1STR  H1N   1219   4.803  15.130   0.013
    1STR  H1O   1220   4.823  15.304   0.005
    1STR  H1P   1221   4.732  15.378  17.172
    1STR  H1Q   1222   4.560  15.381  17.194
    1STR  H1R   1223   4.738  15.641  17.193
    1STR  H1S   1224   4.519  15.758  17.163
    1STR  H1T   1225   4.447  15.653  17.284
    1STR  H1U   1226   4.502  15.587  17.130
    1STR  H1V   1227   4.790  15.749  17.414
    1STR  H1W   1228   4.622  15.759   0.015
    1STR  H1X   1229   4.734  16.107  17.244
    1STR  H1Y   1230   4.727  16.289  17.129
    1STR  H1Z   1231   4.674  16.521  17.096
    1STR  H20   1232   4.440  16.699  17.272
    1STR  H21   1233   4.595  16.776  17.310
    1STR  H22   1234   4.563  16.715  17.149
    1STR  H23   1235   4.479  16.540   0.163
    1STR  H27   1236   4.584  16.312   0.096
    1STR  H28   1237   4.699  14.397  17.035
    1STR  H29   1238   4.758  14.186  16.949
    1STR  H2A   1239   4.725  13.876  17.105
    1STR  H2B   1240   4.782  13.961  16.963
    1STR  H2C   1241   4.623  13.887  16.959
    1STR  BCK1  1242  12.891   0.754   4.504
    1STR  O03   1243  12.976   0.666   4.507
    1STR  N04   1244  12.919   0.883   4.472
    1STR  C05   1245  12.834   0.997   4.454
    1STR  C06   1246  12.886   1.133   4.442
    1STR  C07   1247  12.801   1.250   4.426
    1STR  N08   1248  12.847   1.386   4.406
    1STR  C09   1249  12.778   1.505   4.419
    1STR  O0A   1250  12.666   1.509   4.471
    1STR  O0B   1251  12.839   1.625   4.373
    1STR  C0C   1252  12.769   1.756   4.385
    1STR  C0D   1253  12.770   1.799   4.533
    1STR  C0E   1254  12.815   1.881   4.297
    1STR  O0F   1255  12.743   2.008   4.323
    1STR  C0G   1256  12.776   2.130   4.248
    1STR  C0H   1257  12.720   2.117   4.105
    1STR  C0I   1258  12.723   2.266   4.310
    1STR  O0J   1259  12.764   2.387   4.238
    1STR  C0K   1260  12.719   2.518   4.286
    1STR  C0M   1261  12.791   2.554   4.417
    1STR  C0N   1262  12.745   2.636   4.184
    1STR  O0O   1263  12.685   2.762   4.223
    1STR  C0P   1264  12.750   2.884   4.215
    1STR  O0Q   1265  12.868   2.899   4.186
    1STR  N0R   1266  12.667   2.984   4.247
    1STR  C0S   1267  12.684   3.122   4.271
    1STR  C0T   1268  12.593   3.179   4.363
    1STR  C0U   1269  12.604   3.313   4.404
    1STR  C0V   1270  12.702   3.397   4.349
    1STR  C0W   1271  12.724   3.534   4.414
    1STR  C0X   1272  12.784   3.349   4.244
    1STR  N0Y   1273  12.866   3.439   4.174
    1STR  BCK2  1274  12.825   3.555   4.122
    1STR  O10   1275  12.900   3.631   4.062
    1STR  C13   1276  12.779   3.210   4.210
    1STR  C14   1277  12.662   1.223   4.424
    1STR  C15   1278  12.611   1.093   4.433
    1STR  C16   1279  12.694   0.980   4.444
    1STR  C17   1280  12.625   0.845   4.438
    1STR  H1B   1281  13.018   0.896   4.456
    1STR  H1C   1282  12.992   1.147   4.446
    1STR  H1D   1283  12.942   1.399   4.375
    1STR  H1E   1284  12.665   1.737   4.358
    1STR  H1F   1285  12.871   1.824   4.567
    1STR  H1G   1286  12.708   1.888   4.547
    1STR  H1H   1287  12.730   1.722   4.599
    1STR  H1I   1288  12.804   1.855   4.192
    1STR  H1J   1289  12.921   1.898   4.313
    1STR  H1K   1290  12.885   2.138   4.243
    1STR  H1M   1291  12.611   2.107   4.107
    1STR  H1N   1292  12.761   2.032   4.051
    1STR  H1O   1293  12.743   2.206   4.047
    1STR  H1P   1294  12.614   2.263   4.315
    1STR  H1Q   1295  12.758   2.273   4.413
    1STR  H1R   1296  12.612   2.514   4.304
    1STR  H1S   1297  12.760   2.652   4.453
    1STR  H1T   1298  12.899   2.558   4.402
    1STR  H1U   1299  12.771   2.483   4.497
    1STR  H1V   1300  12.702   2.610   4.087
    1STR  H1W   1301  12.852   2.649   4.167
    1STR  H1X   1302  12.575   2.948   4.264
    1STR  H1Y   1303  12.516   3.119   4.409
    1STR  H1Z   1304  12.538   3.351   4.481
    1STR  H20   1305  12.824   3.537   4.458
    1STR  H21   1306  12.717   3.617   4.344
    1STR  H22   1307  12.654   3.553   4.494
    1STR  H23   1308  12.962   3.414   4.154
    1STR  H27   1309  12.846   3.171   4.135
    1STR  H28   1310  12.590   1.301   4.411
    1STR  H29   1311  12.504   1.081   4.428
    1STR  H2A   1312  12.672   0.783   4.361
    1STR  H2B   1313  12.520   0.854   4.410
    1STR  H2C   1314  12.630   0.793   4.533
    1STR  BCK1  1315  13.179   5.164   0.225
    1STR  O03   1316  13.093   5.079   0.208
    1STR  N04   1317  13.163   5.294   0.191
    1STR  C05   1318  13.253   5.403   0.202
    1STR  C06   1319  13.208   5.539   0.189
    1STR  C07   1320  13.295   5.653   0.200
    1STR  N08   1321  13.252   5.790   0.190
    1STR  C09   1322  13.316   5.905   0.227
    1STR  O0A   1323  13.425   5.905   0.283
    1STR  O0B   1324  13.251   6.026   0.196
    1STR  C0C   1325  13.319   6.155   0.218
    1STR  C0D   1326  13.416   6.181   0.102
    1STR  C0E   1327  13.228   6.282   0.241
    1STR  O0F   1328  13.300   6.408   0.265
    1STR  C0G   1329  13.224   6.529   0.297
    1STR  C0H   1330  13.171   6.515   0.441
    1STR  C0I   1331  13.303   6.666   0.283
    1STR  O0J   1332  13.222   6.787   0.296
    1STR  C0K   1333  13.283   6.920   0.277
    1STR  C0M   1334  13.329   6.936   0.132
    1STR  C0N   1335  13.186   7.041   0.311
    1STR  O0O   1336  13.239   7.175   0.286
    1STR  C0P   1337  13.168   7.276   0.220
    1STR  O0Q   1338  13.064   7.260   0.158
    1STR  N0R   1339  13.230   7.396   0.234
    1STR  C0S   1340  13.215   7.530   0.190
    1STR  C0T   1341  13.309   7.618   0.245
    1STR  C0U   1342  13.318   7.752   0.205
    1STR  C0V   1343  13.232   7.806   0.107
    1STR  C0W   1344  13.264   7.947   0.061
    1STR  C0X   1345  13.126   7.726   0.053
    1STR  N0Y   1346  13.033   7.775  17.395
    1STR  BCK2  1347  12.986   7.896  17.348
    1STR  O10   1348  13.007   8.009  17.392
    1STR  C13   1349  13.122   7.587   0.095
    1STR  C14   1350  13.432   5.623   0.219
    1STR  C15   1351  13.479   5.491   0.231
    1STR  C16   1352  13.392   5.381   0.223
    1STR  C17   1353  13.456   5.243   0.235
    1STR  H1B   1354  13.071   5.311   0.152
    1STR  H1C   1355  13.102   5.556   0.173
    1STR  H1D   1356  13.161   5.807   0.150
    1STR  H1E   1357  13.379   6.145   0.309
    1STR  H1F   1358  13.363   6.196   0.008
    1STR  H1G   1359  13.476   6.270   0.120
    1STR  H1H   1360  13.485   6.098   0.088
    1STR  H1I   1361  13.162   6.261   0.325
    1STR  H1J   1362  13.163   6.296   0.154
    1STR  H1K   1363  13.139   6.535   0.228
    1STR  H1M   1364  13.253   6.501   0.512
    1STR  H1N   1365  13.103   6.432   0.453
    1STR  H1O   1366  13.117   6.605   0.471
    1STR  H1P   1367  13.384   6.668   0.356
    1STR  H1Q   1368  13.352   6.665   0.185
    1STR  H1R   1369  13.370   6.926   0.343
    1STR  H1S   1370  13.375   7.033   0.117
    1STR  H1T   1371  13.244   6.929   0.064
    1STR  H1U   1372  13.403   6.861   0.102
    1STR  H1V   1373  13.162   7.036   0.417
    1STR  H1W   1374  13.091   7.028   0.259
    1STR  H1X   1375  13.309   7.381   0.295
    1STR  H1Y   1376  13.380   7.584   0.319
    1STR  H1Z   1377  13.395   7.814   0.248
    1STR  H20   1378  13.254   7.955  17.392
    1STR  H21   1379  13.198   8.019   0.109
    1STR  H22   1380  13.367   7.974   0.085
    1STR  H23   1381  12.986   7.700  17.349
    1STR  H27   1382  13.047   7.521   0.054
    1STR  H28   1383  13.507   5.700   0.223
    1STR  H29   1384  13.584   5.476   0.246
    1STR  H2A   1385  13.422   5.193   0.326
    1STR  H2B   1386  13.564   5.249   0.241
    1STR  H2C   1387  13.432   5.182   0.148
    1STR  BCK1  1388  13.011   5.259  13.035
    1STR  O03   1389  12.910   5.208  12.989
    1STR  N04   1390  13.065   5.378  13.000
    1STR  C05   1391  13.035   5.468  12.895
    1STR  C06   1392  13.045   5.609  12.917
    1STR  C07   1393  13.020   5.705  12.815
    1STR  N08   1394  13.037   5.843  12.839
    1STR  C09   1395  13.013   5.950  12.759
    1STR  O0A   1396  12.965   5.943  12.646
    1STR  O0B   1397  13.049   6.068  12.816
    1STR  C0C   1398  13.024   6.193  12.747
    1STR  C0D   1399  12.877   6.232  12.767
    1STR  C0E   1400  13.119   6.306  12.794
    1STR  O0F   1401  13.094   6.428  12.721
    1STR  C0G   1402  13.177   6.541  12.754
    1STR  C0H   1403  13.314   6.524  12.687
    1STR  C0I   1404  13.108   6.673  12.707
    1STR  O0J   1405  13.177   6.790  12.756
    1STR  C0K   1406  13.116   6.917  12.724
    1STR  C0M   1407  12.989   6.938  12.807
    1STR  C0N   1408  13.213   7.035  12.751
    1STR  O0O   1409  13.160   7.156  12.697
    1STR  C0P   1410  13.136   7.269  12.770
    1STR  O0Q   1411  13.146   7.282  12.892
    1STR  N0R   1412  13.103   7.363  12.683
    1STR  C0S   1413  13.072   7.500  12.680
    1STR  C0T   1414  13.086   7.555  12.552
    1STR  C0U   1415  13.057   7.690  12.527
    1STR  C0V   1416  13.010   7.774  12.629
    1STR  C0W   1417  12.986   7.918  12.589
    1STR  C0X   1418  12.990   7.722  12.761
    1STR  N0Y   1419  12.937   7.803  12.864
    1STR  BCK2  1420  12.868   7.918  12.853
    1STR  O10   1421  12.828   7.980  12.951
    1STR  C13   1422  13.025   7.585  12.786
    1STR  C14   1423  12.980   5.654  12.689
    1STR  C15   1424  12.973   5.517  12.664
    1STR  C16   1425  13.003   5.423  12.764
    1STR  C17   1426  13.009   5.277  12.723
    1STR  H1B   1427  13.137   5.410  13.064
    1STR  H1C   1428  13.074   5.644  13.015
    1STR  H1D   1429  13.073   5.872  12.928
    1STR  H1E   1430  13.042   6.178  12.640
    1STR  H1F   1431  12.853   6.249  12.872
    1STR  H1G   1432  12.854   6.324  12.712
    1STR  H1H   1433  12.810   6.155  12.729
    1STR  H1I   1434  13.222   6.274  12.778
    1STR  H1J   1435  13.107   6.324  12.901
    1STR  H1K   1436  13.189   6.547  12.862
    1STR  H1M   1437  13.304   6.512  12.579
    1STR  H1N   1438  13.368   6.438  12.726
    1STR  H1O   1439  13.377   6.611  12.705
    1STR  H1P   1440  13.103   6.674  12.598
    1STR  H1Q   1441  13.006   6.671  12.743
    1STR  H1R   1442  13.091   6.918  12.617
    1STR  H1S   1443  12.944   7.035  12.785
    1STR  H1T   1444  13.012   6.936  12.913
    1STR  H1U   1445  12.912   6.863  12.787
    1STR  H1V   1446  13.308   7.016  12.701
    1STR  H1W   1447  13.237   7.044  12.857
    1STR  H1X   1448  13.107   7.320  12.592
    1STR  H1Y   1449  13.121   7.496  12.469
    1STR  H1Z   1450  13.070   7.728  12.427
    1STR  H20   1451  12.879   7.938  12.584
    1STR  H21   1452  13.033   7.986  12.661
    1STR  H22   1453  13.028   7.941  12.492
    1STR  H23   1454  12.947   7.772  12.959
    1STR  H27   1455  13.014   7.542  12.885
    1STR  H28   1456  12.957   5.719  12.606
    1STR  H29   1457  12.946   5.483  12.565
    1STR  H2A   1458  13.087   5.224  12.777
    1STR  H2B   1459  13.031   5.267  12.617
    1STR  H2C   1460  12.913   5.229  12.742
    1STR  BCK1  1461  13.209  13.813   8.841
    1STR  O03   1462  13.202  13.743   8.941
    1STR  N04   1463  13.173  13.947   8.826
    1STR  C05   1464  13.098  14.051   8.895
    1STR  C06   1465  13.107  14.194   8.863
    1STR  C07   1466  13.031  14.303   8.928
    1STR  N08   1467  13.029  14.446   8.893
    1STR  C09   1468  12.978  14.559   8.959
    1STR  O0A   1469  12.934  14.549   9.073
    1STR  O0B   1470  12.976  14.691   8.893
    1STR  C0C   1471  12.929  14.819   8.962
    1STR  C0D   1472  13.037  14.859   9.065
    1STR  C0E   1473  12.887  14.957   8.882
    1STR  O0F   1474  12.867  15.088   8.955
    1STR  C0G   1475  12.823  15.216   8.888
    1STR  C0H   1476  12.674  15.200   8.852
    1STR  C0I   1477  12.840  15.359   8.964
    1STR  O0J   1478  12.816  15.489   8.892
    1STR  C0K   1479  12.837  15.623   8.957
    1STR  C0M   1480  12.985  15.637   8.993
    1STR  C0N   1481  12.799  15.761   8.879
    1STR  O0O   1482  12.820  15.889   8.952
    1STR  C0P   1483  12.864  16.013   8.896
    1STR  O0Q   1484  12.911  16.026   8.783
    1STR  N0R   1485  12.845  16.117   8.982
    1STR  C0S   1486  12.861  16.260   8.998
    1STR  C0T   1487  12.774  16.309   9.097
    1STR  C0U   1488  12.779  16.441   9.144
    1STR  C0V   1489  12.871  16.534   9.094
    1STR  C0W   1490  12.872  16.670   9.162
    1STR  C0X   1491  12.958  16.497   8.987
    1STR  N0Y   1492  13.048  16.594   8.933
    1STR  BCK2  1493  13.070  16.726   8.965
    1STR  O10   1494  13.150  16.796   8.905
    1STR  C13   1495  12.952  16.358   8.941
    1STR  C14   1496  12.947  14.256   9.032
    1STR  C15   1497  12.933  14.120   9.063
    1STR  C16   1498  13.002  14.018   8.995
    1STR  C17   1499  12.961  13.875   9.027
    1STR  H1B   1500  13.210  13.980   8.738
    1STR  H1C   1501  13.175  14.222   8.784
    1STR  H1D   1502  13.070  14.471   8.804
    1STR  H1E   1503  12.841  14.789   9.019
    1STR  H1F   1504  13.128  14.891   9.016
    1STR  H1G   1505  13.001  14.942   9.126
    1STR  H1H   1506  13.061  14.777   9.132
    1STR  H1I   1507  12.795  14.935   8.828
    1STR  H1J   1508  12.962  14.975   8.805
    1STR  H1K   1509  12.880  15.224   8.796
    1STR  H1M   1510  12.612  15.189   8.941
    1STR  H1N   1511  12.655  15.115   8.787
    1STR  H1O   1512  12.638  15.289   8.799
    1STR  H1P   1513  12.775  15.359   9.052
    1STR  H1Q   1514  12.941  15.362   9.004
    1STR  H1R   1515  12.778  15.623   9.049
    1STR  H1S   1516  13.003  15.733   9.041
    1STR  H1T   1517  13.045  15.635   8.902
    1STR  H1U   1518  13.019  15.560   9.061
    1STR  H1V   1519  12.693  15.758   8.854
    1STR  H1W   1520  12.851  15.767   8.783
    1STR  H1X   1521  12.799  16.076   9.061
    1STR  H1Y   1522  12.700  16.245   9.142
    1STR  H1Z   1523  12.711  16.471   9.222
    1STR  H20   1524  12.971  16.692   9.202
    1STR  H21   1525  12.843  16.749   9.092
    1STR  H22   1526  12.803  16.675   9.246
    1STR  H23   1527  13.107  16.566   8.856
    1STR  H27   1528  13.018  16.326   8.862
    1STR  H28   1529  12.887  14.324   9.089
    1STR  H29   1530  12.864  14.093   9.141
    1STR  H2A   1531  12.951  13.816   8.936
    1STR  H2B   1532  12.865  13.872   9.077
    1STR  H2C   1533  13.034  13.828   9.094
    1STR  BCK1  1534  13.058  14.003  13.017
    1STR  O03   1535  13.090  13.941  12.917
    1STR  N04   1536  13.107  14.122  13.061
    1STR  C05   1537  13.216  14.206  13.022
    1STR  C06   1538  13.206  14.349  13.037
    1STR  C07   1539  13.312  14.441  13.007
    1STR  N08   1540  13.300  14.582  13.029
    1STR  C09   1541  13.382  14.688  13.001
    1STR  O0A   1542  13.490  14.674  12.944
    1STR  O0B   1543  13.335  14.815  13.042
    1STR  C0C   1544  13.403  14.941  13.006
    1STR  C0D   1545  13.376  14.967  12.857
    1STR  C0E   1546  13.366  15.070  13.094
    1STR  O0F   1547  13.421  15.204  13.057
    1STR  C0G   1548  13.398  15.323  13.143
    1STR  C0H   1549  13.482  15.299  13.270
    1STR  C0I   1550  13.430  15.469  13.080
    1STR  O0J   1551  13.379  15.596  13.144
    1STR  C0K   1552  13.393  15.731  13.078
    1STR  C0M   1553  13.318  15.723  12.945
    1STR  C0N   1554  13.343  15.868  13.155
    1STR  O0O   1555  13.354  16.003  13.089
    1STR  C0P   1556  13.271  16.121  13.120
    1STR  O0Q   1557  13.171  16.116  13.189
    1STR  N0R   1558  13.319  16.238  13.065
    1STR  C0S   1559  13.295  16.382  13.049
    1STR  C0T   1560  13.413  16.447  13.007
    1STR  C0U   1561  13.415  16.581  12.966
    1STR  C0V   1562  13.300  16.662  12.967
    1STR  C0W   1563  13.314  16.800  12.904
    1STR  C0X   1564  13.178  16.613  13.022
    1STR  N0Y   1565  13.063  16.702  13.037
    1STR  BCK2  1566  13.030  16.833  13.003
    1STR  O10   1567  12.925  16.884  13.040
    1STR  C13   1568  13.179  16.470  13.061
    1STR  C14   1569  13.431  14.382  12.958
    1STR  C15   1570  13.445  14.242  12.945
    1STR  C16   1571  13.340  14.153  12.979
    1STR  C17   1572  13.371  14.004  12.975
    1STR  H1B   1573  13.053  14.160  13.136
    1STR  H1C   1574  13.113  14.389  13.074
    1STR  H1D   1575  13.215  14.613  13.073
    1STR  H1E   1576  13.510  14.923  13.017
    1STR  H1F   1577  13.269  14.981  12.838
    1STR  H1G   1578  13.428  15.056  12.823
    1STR  H1H   1579  13.410  14.884  12.795
    1STR  H1I   1580  13.397  15.046  13.196
    1STR  H1J   1581  13.258  15.079  13.097
    1STR  H1K   1582  13.293  15.322  13.170
    1STR  H1M   1583  13.587  15.281  13.246
    1STR  H1N   1584  13.448  15.213  13.327
    1STR  H1O   1585  13.478  15.384  13.338
    1STR  H1P   1586  13.538  15.478  13.068
    1STR  H1Q   1587  13.391  15.464  12.979
    1STR  H1R   1588  13.500  15.744  13.057
    1STR  H1S   1589  13.320  15.819  12.894
    1STR  H1T   1590  13.214  15.696  12.962
    1STR  H1U   1591  13.362  15.651  12.877
    1STR  H1V   1592  13.402  15.876  13.247
    1STR  H1W   1593  13.241  15.855  13.188
    1STR  H1X   1594  13.405  16.210  13.021
    1STR  H1Y   1595  13.506  16.393  13.001
    1STR  H1Z   1596  13.508  16.621  12.930
    1STR  H20   1597  13.234  16.818  12.832
    1STR  H21   1598  13.313  16.879  12.979
    1STR  H22   1599  13.408  16.808  12.848
    1STR  H23   1600  12.987  16.663  13.090
    1STR  H27   1601  13.087  16.427  13.099
    1STR  H28   1602  13.517  14.441  12.931
    1STR  H29   1603  13.539  14.202  12.910
    1STR  H2A   1604  13.323  13.952  13.058
    1STR  H2B   1605  13.478  13.984  12.983
    1STR  H2C   1606  13.336  13.960  12.882
    1STR  BCK1  1607   0.078  13.095   5.262
    1STR  O03   1608   0.027  13.168   5.177
    1STR  N04   1609   0.103  13.122   5.392
    1STR  C05   1610   0.107  13.238   5.473
    1STR  C06   1611   0.101  13.218   5.614
    1STR  C07   1612   0.114  13.325   5.708
    1STR  N08   1613   0.113  13.299   5.846
    1STR  C09   1614   0.138  13.380   5.951
    1STR  O0A   1615   0.167  13.499   5.942
    1STR  O0B   1616   0.129  13.315   6.070
    1STR  C0C   1617   0.147  13.387   6.193
    1STR  C0D   1618   0.015  13.455   6.232
    1STR  C0E   1619   0.198  13.294   6.306
    1STR  O0F   1620   0.220  13.368   6.426
    1STR  C0G   1621   0.268  13.294   6.539
    1STR  C0H   1622   0.419  13.268   6.522
    1STR  C0I   1623   0.240  13.374   6.668
    1STR  O0J   1624   0.273  13.296   6.784
    1STR  C0K   1625   0.246  13.356   6.911
    1STR  C0M   1626   0.095  13.353   6.940
    1STR  C0N   1627   0.323  13.276   7.019
    1STR  O0O   1628   0.308  13.333   7.150
    1STR  C0P   1629   0.238  13.269   7.246
    1STR  O0Q   1630   0.176  13.165   7.231
    1STR  N0R   1631   0.249  13.338   7.360
    1STR  C0S   1632   0.195  13.318   7.488
    1STR  C0T   1633   0.230  13.411   7.587
    1STR  C0U   1634   0.176  13.403   7.717
    1STR  C0V   1635   0.084  13.301   7.751
    1STR  C0W   1636   0.023  13.308   7.890
    1STR  C0X   1637   0.050  13.202   7.654
    1STR  N0Y   1638  17.397  13.099   7.672
    1STR  BCK2  1639  17.353  13.026   7.777
    1STR  O10   1640  17.396  13.029   7.892
    1STR  C13   1641   0.106  13.213   7.524
    1STR  C14   1642   0.130  13.455   5.655
    1STR  C15   1643   0.136  13.477   5.517
    1STR  C16   1644   0.127  13.370   5.425
    1STR  C17   1645   0.145  13.406   5.279
    1STR  H1B   1646   0.122  13.037   5.442
    1STR  H1C   1647   0.087  13.118   5.652
    1STR  H1D   1648   0.092  13.205   5.877
    1STR  H1E   1649   0.224  13.464   6.179
    1STR  H1F   1650  17.376  13.382   6.248
    1STR  H1G   1651   0.027  13.513   6.324
    1STR  H1H   1652  17.422  13.524   6.154
    1STR  H1I   1653   0.290  13.246   6.273
    1STR  H1J   1654   0.125  13.214   6.324
    1STR  H1K   1655   0.214  13.200   6.546
    1STR  H1M   1656   0.474  13.361   6.510
    1STR  H1N   1657   0.440  13.205   6.436
    1STR  H1O   1658   0.459  13.217   6.610
    1STR  H1P   1659   0.297  13.468   6.668
    1STR  H1Q   1660   0.135  13.401   6.669
    1STR  H1R   1661   0.282  13.459   6.912
    1STR  H1S   1662   0.074  13.396   7.038
    1STR  H1T   1663   0.058  13.251   6.941
    1STR  H1U   1664   0.037  13.410   6.868
    1STR  H1V   1665   0.430  13.278   6.996
    1STR  H1W   1666   0.295  13.171   7.017
    1STR  H1X   1667   0.307  13.419   7.347
    1STR  H1Y   1668   0.298  13.493   7.566
    1STR  H1Z   1669   0.203  13.478   7.789
    1STR  H20   1670  17.357  13.284   7.886
    1STR  H21   1671   0.073  13.240   7.957
    1STR  H22   1672   0.031  13.409   7.932
    1STR  H23   1673  17.358  13.065   7.585
    1STR  H27   1674   0.080  13.140   7.449
    1STR  H28   1675   0.139  13.542   5.718
    1STR  H29   1676   0.150  13.577   5.481
    1STR  H2A   1677   0.212  13.335   5.230
    1STR  H2B   1678   0.188  13.505   5.266
    1STR  H2C   1679   0.048  13.405   5.228
    1STR  BCK1  1680   4.377   4.371  13.997
    1STR  O03   1681   4.370   4.272  13.925
    1STR  N04   1682   4.318   4.389  14.117
    1STR  C05   1683   4.224   4.317  14.192
    1STR  C06   1684   4.231   4.325  14.334
    1STR  C07   1685   4.136   4.264  14.420
    1STR  N08   1686   4.146   4.281  14.561
    1STR  C09   1687   4.068   4.236  14.661
    1STR  O0A   1688   3.969   4.166  14.647
    1STR  O0B   1689   4.112   4.279  14.783
    1STR  C0C   1690   4.046   4.237  14.905
    1STR  C0D   1691   4.095   4.096  14.942
    1STR  C0E   1692   4.070   4.337  15.021
    1STR  O0F   1693   4.004   4.295  15.142
    1STR  C0G   1694   4.019   4.382  15.256
    1STR  C0H   1695   3.925   4.503  15.240
    1STR  C0I   1696   3.987   4.306  15.388
    1STR  O0J   1697   4.015   4.388  15.503
    1STR  C0K   1698   3.992   4.330  15.632
    1STR  C0M   1699   4.102   4.227  15.664
    1STR  C0N   1700   3.993   4.443  15.739
    1STR  O0O   1701   3.953   4.395  15.868
    1STR  C0P   1702   4.024   4.421  15.980
    1STR  O0Q   1703   4.133   4.477  15.984
    1STR  N0R   1704   3.958   4.373  16.086
    1STR  C0S   1705   3.994   4.360  16.220
    1STR  C0T   1706   3.927   4.258  16.291
    1STR  C0U   1707   3.963   4.227  16.423
    1STR  C0V   1708   4.063   4.301  16.489
    1STR  C0W   1709   4.111   4.252  16.624
    1STR  C0X   1710   4.120   4.414  16.426
    1STR  N0Y   1711   4.207   4.498  16.497
    1STR  BCK2  1712   4.181   4.547  16.619
    1STR  O10   1713   4.260   4.620  16.678
    1STR  C13   1714   4.089   4.439  16.290
    1STR  C14   1715   4.032   4.190  14.359
    1STR  C15   1716   4.022   4.181  14.220
    1STR  C16   1717   4.115   4.245  14.135
    1STR  C17   1718   4.087   4.239  13.986
    1STR  H1B   1719   4.354   4.471  14.163
    1STR  H1C   1720   4.312   4.381  14.378
    1STR  H1D   1721   4.223   4.335  14.595
    1STR  H1E   1722   3.939   4.232  14.886
    1STR  H1F   1723   4.203   4.095  14.961
    1STR  H1G   1724   4.045   4.060  15.032
    1STR  H1H   1725   4.074   4.024  14.863
    1STR  H1I   1726   4.032   4.435  14.990
    1STR  H1J   1727   4.177   4.348  15.039
    1STR  H1K   1728   4.122   4.416  15.262
    1STR  H1M   1729   3.822   4.472  15.228
    1STR  H1N   1730   3.952   4.565  15.154
    1STR  H1O   1731   3.930   4.568  15.327
    1STR  H1P   1732   3.882   4.275  15.388
    1STR  H1Q   1733   4.047   4.215  15.390
    1STR  H1R   1734   3.894   4.282  15.633
    1STR  H1S   1735   4.088   4.185  15.764
    1STR  H1T   1736   4.200   4.273  15.661
    1STR  H1U   1737   4.102   4.143  15.594
    1STR  H1V   1738   3.922   4.520  15.711
    1STR  H1W   1739   4.091   4.491  15.743
    1STR  H1X   1740   3.871   4.333  16.057
    1STR  H1Y   1741   3.851   4.198  16.244
    1STR  H1Z   1742   3.915   4.144  16.473
    1STR  H20   1743   4.220   4.258  16.630
    1STR  H21   1744   4.069   4.313  16.703
    1STR  H22   1745   4.085   4.148  16.641
    1STR  H23   1746   4.289   4.534  16.452
    1STR  H27   1747   4.137   4.522  16.238
    1STR  H28   1748   3.956   4.140  14.417
    1STR  H29   1749   3.940   4.126  14.177
    1STR  H2A   1750   4.112   4.334  13.937
    1STR  H2B   1751   3.983   4.219  13.965
    1STR  H2C   1752   4.146   4.160  13.940
    1STR  BCK1  1753   8.628  17.202  13.748
    1STR  O03   1754   8.519  17.199  13.692
    1STR  N04   1755   8.643  17.219  13.888
    1STR  C05   1756   8.749  17.233  13.992
    1STR  C06   1757   8.726  17.234  14.140
    1STR  C07   1758   8.828  17.251  14.248
    1STR  N08   1759   8.810  17.253  14.398
    1STR  C09   1760   8.899  17.258  14.510
    1STR  O0A   1761   9.020  17.261  14.491
    1STR  O0B   1762   8.850  17.260  14.656
    1STR  C0C   1763   8.937  17.268  14.786
    1STR  C0D   1764   9.006  17.406  14.792
    1STR  C0E   1765   8.883  17.234  14.943
    1STR  O0F   1766   8.959  17.254  15.077
    1STR  C0G   1767   8.910  17.208  15.217
    1STR  C0H   1768   8.920  17.055  15.212
    1STR  C0I   1769   8.971  17.253  15.368
    1STR  O0J   1770   8.900  17.222  15.502
    1STR  C0K   1771   8.949  17.254  15.645
    1STR  C0M   1772   8.982  17.403  15.654
    1STR  C0N   1773   8.860  17.216  15.782
    1STR  O0O   1774   8.893  17.259  15.925
    1STR  C0P   1775   8.796  17.280  16.037
    1STR  O0Q   1776   8.676  17.286  16.018
    1STR  N0R   1777   8.850  17.293  16.165
    1STR  C0S   1778   8.818  17.326  16.305
    1STR  C0T   1779   8.932  17.310  16.388
    1STR  C0U   1780   8.939  17.366  16.517
    1STR  C0V   1781   8.831  17.435  16.575
    1STR  C0W   1782   8.872   0.094  16.683
    1STR  C0X   1783   8.700  17.426  16.518
    1STR  N0Y   1784   8.579   0.022  16.593
    1STR  BCK2  1785   8.532   0.074  16.715
    1STR  O10   1786   8.598   0.119  16.807
    1STR  C13   1787   8.700  17.375  16.378
    1STR  C14   1788   8.957  17.270  14.195
    1STR  C15   1789   8.984  17.270  14.056
    1STR  C16   1790   8.886  17.252  13.956
    1STR  C17   1791   8.940  17.258  13.813
    1STR  H1B   1792   8.550  17.228  13.925
    1STR  H1C   1793   8.624  17.221  14.171
    1STR  H1D   1794   8.715  17.251  14.429
    1STR  H1E   1795   9.018  17.197  14.767
    1STR  H1F   1796   8.935   0.046  14.814
    1STR  H1G   1797   9.081  17.407  14.872
    1STR  H1H   1798   9.058  17.431  14.700
    1STR  H1I   1799   8.853  17.130  14.941
    1STR  H1J   1800   8.790  17.290  14.956
    1STR  H1K   1801   8.805  17.237  15.221
    1STR  H1M   1802   9.023  17.023  15.201
    1STR  H1N   1803   8.862  17.012  15.131
    1STR  H1O   1804   8.882  17.011  15.305
    1STR  H1P   1805   9.072  17.211  15.377
    1STR  H1Q   1806   8.988  17.361  15.366
    1STR  H1R   1807   9.044  17.201  15.656
    1STR  H1S   1808   9.026  17.427  15.752
    1STR  H1T   1809   8.891   0.023  15.644
    1STR  H1U   1810   9.054  17.435  15.579
    1STR  H1V   1811   8.859  17.107  15.788
    1STR  H1W   1812   8.756  17.243  15.765
    1STR  H1X   1813   8.948  17.274  16.153
    1STR  H1Y   1814   9.021  17.261  16.351
    1STR  H1Z   1815   9.034  17.363  16.568
    1STR  H20   1816   8.797   0.170  16.702
    1STR  H21   1817   8.905   0.048  16.775
    1STR  H22   1818   8.956   0.152  16.643
    1STR  H23   1819   8.497  17.437  16.539
    1STR  H27   1820   8.607  17.377  16.324
    1STR  H28   1821   9.042  17.287  14.260
    1STR  H29   1822   9.087  17.286  14.025
    1STR  H2A   1823   8.867  17.247  13.734
    1STR  H2B   1824   9.015  17.181  13.798
    1STR  H2C   1825   8.989  17.354  13.798
    1STR  BCK1  1826   8.838  13.084   9.324
    1STR  O03   1827   8.742  13.092   9.247
    1STR  N04   1828   8.834  13.107   9.466
    1STR  C05   1829   8.754  13.168   9.578
    1STR  C06   1830   8.778  13.152   9.726
    1STR  C07   1831   8.705  13.218   9.839
    1STR  N08   1832   8.725  13.211   9.988
    1STR  C09   1833   8.669  13.281  10.100
    1STR  O0A   1834   8.586  13.369  10.082
    1STR  O0B   1835   8.708  13.252  10.244
    1STR  C0C   1836   8.650  13.322  10.370
    1STR  C0D   1837   8.505  13.275  10.397
    1STR  C0E   1838   8.721  13.324  10.521
    1STR  O0F   1839   8.652  13.378  10.646
    1STR  C0G   1840   8.717  13.385  10.783
    1STR  C0H   1841   8.823  13.496  10.783
    1STR  C0I   1842   8.632  13.409  10.921
    1STR  O0J   1843   8.708  13.410  11.050
    1STR  C0K   1844   8.645  13.438  11.183
    1STR  C0M   1845   8.555  13.322  11.228
    1STR  C0N   1846   8.745  13.463  11.304
    1STR  O0O   1847   8.685  13.496  11.434
    1STR  C0P   1848   8.706  13.421  11.549
    1STR  O0Q   1849   8.763  13.312  11.550
    1STR  N0R   1850   8.657  13.480  11.661
    1STR  C0S   1851   8.646  13.438  11.797
    1STR  C0T   1852   8.579  13.522  11.888
    1STR  C0U   1853   8.554  13.483  12.021
    1STR  C0V   1854   8.597  13.358  12.070
    1STR  C0W   1855   8.553  13.316  12.210
    1STR  C0X   1856   8.674  13.274  11.984
    1STR  N0Y   1857   8.721  13.148  12.023
    1STR  BCK2  1858   8.780  13.105  12.136
    1STR  O10   1859   8.807  13.175  12.234
    1STR  C13   1860   8.695  13.314  11.849
    1STR  C14   1861   8.600  13.300   9.792
    1STR  C15   1862   8.573  13.319   9.655
    1STR  C16   1863   8.648  13.259   9.551
    1STR  C17   1864   8.609  13.303   9.412
    1STR  H1B   1865   8.918  13.066   9.504
    1STR  H1C   1866   8.858  13.086   9.754
    1STR  H1D   1867   8.791  13.142  10.020
    1STR  H1E   1868   8.641  13.427  10.341
    1STR  H1F   1869   8.501  13.173  10.433
    1STR  H1G   1870   8.459  13.337  10.475
    1STR  H1H   1871   8.441  13.284  10.309
    1STR  H1I   1872   8.815  13.377  10.512
    1STR  H1J   1873   8.748  13.221  10.546
    1STR  H1K   1874   8.767  13.289  10.798
    1STR  H1M   1875   8.777  13.594  10.775
    1STR  H1N   1876   8.895  13.485  10.703
    1STR  H1O   1877   8.879  13.496  10.877
    1STR  H1P   1878   8.581  13.506  10.915
    1STR  H1Q   1879   8.553  13.335  10.930
    1STR  H1R   1880   8.585  13.528  11.173
    1STR  H1S   1881   8.508  13.345  11.324
    1STR  H1T   1882   8.614  13.231  11.244
    1STR  H1U   1883   8.475  13.300  11.157
    1STR  H1V   1884   8.811  13.547  11.280
    1STR  H1W   1885   8.812  13.378  11.317
    1STR  H1X   1886   8.620  13.571  11.641
    1STR  H1Y   1887   8.541  13.619  11.858
    1STR  H1Z   1888   8.499  13.548  12.087
    1STR  H20   1889   8.536  13.208  12.216
    1STR  H21   1890   8.628  13.343  12.285
    1STR  H22   1891   8.459  13.364  12.239
    1STR  H23   1892   8.719  13.078  11.950
    1STR  H27   1893   8.750  13.249  11.784
    1STR  H28   1894   8.535  13.353   9.859
    1STR  H29   1895   8.492  13.385   9.630
    1STR  H2A   1896   8.697  13.307   9.350
    1STR  H2B   1897   8.570  13.405   9.413
    1STR  H2C   1898   8.534  13.237   9.369
    1STR  BCK1  1899  13.128   4.356  14.029
    1STR  O03   1900  13.205   4.281  13.969
    1STR  N04   1901  13.054   4.326  14.137
    1STR  C05   1902  13.043   4.208  14.211
    1STR  C06   1903  13.039   4.220  14.353
    1STR  C07   1904  13.020   4.109  14.439
    1STR  N08   1905  13.011   4.130  14.578
    1STR  C09   1906  12.996   4.044  14.681
    1STR  O0A   1907  12.991   3.922  14.668
    1STR  O0B   1908  12.988   4.108  14.802
    1STR  C0C   1909  12.984   4.033  14.926
    1STR  C0D   1910  13.127   3.987  14.959
    1STR  C0E   1911  12.922   4.114  15.043
    1STR  O0F   1912  12.918   4.042  15.169
    1STR  C0G   1913  12.856   4.108  15.283
    1STR  C0H   1914  12.704   4.104  15.263
    1STR  C0I   1915  12.897   4.041  15.419
    1STR  O0J   1916  12.864   4.119  15.538
    1STR  C0K   1917  12.912   4.071  15.668
    1STR  C0M   1918  13.065   4.081  15.673
    1STR  C0N   1919  12.855   4.152  15.791
    1STR  O0O   1920  12.910   4.109  15.918
    1STR  C0P   1921  12.943   4.193  16.023
    1STR  O0Q   1922  12.947   4.316  16.019
    1STR  N0R   1923  12.966   4.117  16.131
    1STR  C0S   1924  12.993   4.123  16.270
    1STR  C0T   1925  12.948   4.005  16.330
    1STR  C0U   1926  12.969   3.980  16.465
    1STR  C0V   1927  13.036   4.072  16.546
    1STR  C0W   1928  13.042   4.030  16.688
    1STR  C0X   1929  13.087   4.197  16.496
    1STR  N0Y   1930  13.154   4.292  16.582
    1STR  BCK2  1931  13.209   4.290  16.709
    1STR  O10   1932  13.258   4.389  16.762
    1STR  C13   1933  13.061   4.220  16.355
    1STR  C14   1934  13.008   3.982  14.378
    1STR  C15   1935  13.011   3.968  14.238
    1STR  C16   1936  13.026   4.079  14.153
    1STR  C17   1937  13.016   4.057  14.003
    1STR  H1B   1938  13.006   4.405  14.174
    1STR  H1C   1939  13.050   4.318  14.396
    1STR  H1D   1940  13.016   4.225  14.611
    1STR  H1E   1941  12.922   3.944  14.910
    1STR  H1F   1942  13.194   4.072  14.973
    1STR  H1G   1943  13.129   3.927  15.049
    1STR  H1H   1944  13.169   3.926  14.878
    1STR  H1I   1945  12.821   4.142  15.014
    1STR  H1J   1946  12.977   4.207  15.056
    1STR  H1K   1947  12.891   4.211  15.286
    1STR  H1M   1948  12.668   4.002  15.249
    1STR  H1N   1949  12.672   4.163  15.177
    1STR  H1O   1950  12.652   4.146  15.350
    1STR  H1P   1951  12.854   3.942  15.426
    1STR  H1Q   1952  13.005   4.026  15.414
    1STR  H1R   1953  12.881   3.967  15.679
    1STR  H1S   1954  13.102   4.047  15.769
    1STR  H1T   1955  13.097   4.184  15.659
    1STR  H1U   1956  13.114   4.019  15.598
    1STR  H1V   1957  12.747   4.138  15.796
    1STR  H1W   1958  12.870   4.259  15.778
    1STR  H1X   1959  12.950   4.024  16.099
    1STR  H1Y   1960  12.895   3.930  16.274
    1STR  H1Z   1961  12.930   3.888  16.506
    1STR  H20   1962  13.131   4.066  16.734
    1STR  H21   1963  12.954   4.068  16.737
    1STR  H22   1964  13.043   3.921  16.699
    1STR  H23   1965  13.167   4.383  16.541
    1STR  H27   1966  13.095   4.312  16.309
    1STR  H28   1967  12.994   3.892  14.436
    1STR  H29   1968  12.999   3.869  14.195
    1STR  H2A   1969  12.967   4.141  13.953
    1STR  H2B   1970  12.958   3.968  13.980
    1STR  H2C   1971  13.115   4.044  13.959
    1STR  BCK1  1972  13.046   8.935   0.706
    1STR  O03   1973  13.094   9.025   0.638
    1STR  N04   1974  13.073   8.902   0.840
    1STR  C05   1975  13.165   8.931   0.953
    1STR  C06   1976  13.134   8.899   1.094
    1STR  C07   1977  13.224   8.919   1.210
    1STR  N08   1978  13.205   8.880   1.351
    1STR  C09   1979  13.274   8.917   1.467
    1STR  O0A   1980  13.356   9.008   1.465
    1STR  O0B   1981  13.250   8.849   1.593
    1STR  C0C   1982  13.320   8.887   1.721
    1STR  C0D   1983  13.264   9.021   1.772
    1STR  C0E   1984  13.327   8.789   1.851
    1STR  O0F   1985  13.384   8.845   1.976
    1STR  C0G   1986  13.393   8.766   2.101
    1STR  C0H   1987  13.509   8.665   2.091
    1STR  C0I   1988  13.413   8.846   2.237
    1STR  O0J   1989  13.416   8.764   2.359
    1STR  C0K   1990  13.437   8.826   2.489
    1STR  C0M   1991  13.312   8.903   2.534
    1STR  C0N   1992  13.473   8.724   2.603
    1STR  O0O   1993  13.508   8.785   2.729
    1STR  C0P   1994  13.432   8.769   2.842
    1STR  O0Q   1995  13.324   8.712   2.846
    1STR  N0R   1996  13.491   8.826   2.949
    1STR  C0S   1997  13.450   8.844   3.083
    1STR  C0T   1998  13.528   8.929   3.164
    1STR  C0U   1999  13.490   8.959   3.297
    1STR  C0V   2000  13.374   8.903   3.353
    1STR  C0W   2001  13.330   8.948   3.492
    1STR  C0X   2002  13.300   8.809   3.277
    1STR  N0Y   2003  13.191   8.742   3.332
    1STR  BCK2  2004  13.189   8.681   3.450
    1STR  O10   2005  13.089   8.623   3.491
    1STR  C13   2006  13.336   8.783   3.142
    1STR  C14   2007  13.348   8.976   1.176
    1STR  C15   2008  13.383   9.005   1.043
    1STR  C16   2009  13.298   8.980   0.934
    1STR  C17   2010  13.367   8.993   0.800
    1STR  H1B   2011  13.005   8.835   0.869
    1STR  H1C   2012  13.037   8.856   1.116
    1STR  H1D   2013  13.132   8.814   1.371
    1STR  H1E   2014  13.424   8.904   1.693
    1STR  H1F   2015  13.162   9.011   1.807
    1STR  H1G   2016  13.324   9.058   1.856
    1STR  H1H   2017  13.268   9.098   1.695
    1STR  H1I   2018  13.384   8.700   1.824
    1STR  H1J   2019  13.226   8.754   1.874
    1STR  H1K   2020  13.299   8.711   2.112
    1STR  H1M   2021  13.605   8.715   2.083
    1STR  H1N   2022  13.498   8.597   2.006
    1STR  H1O   2023  13.513   8.603   2.180
    1STR  H1P   2024  13.507   8.902   2.233
    1STR  H1Q   2025  13.335   8.921   2.247
    1STR  H1R   2026  13.521   8.896   2.482
    1STR  H1S   2027  13.328   8.950   2.632
    1STR  H1T   2028  13.227   8.835   2.547
    1STR  H1U   2029  13.283   8.981   2.465
    1STR  H1V   2030  13.560   8.665   2.572
    1STR  H1W   2031  13.393   8.652   2.616
    1STR  H1X   2032  13.581   8.865   2.923
    1STR  H1Y   2033  13.618   8.975   3.127
    1STR  H1Z   2034  13.550   9.027   3.355
    1STR  H20   2035  13.221   8.957   3.496
    1STR  H21   2036  13.361   8.876   3.568
    1STR  H22   2037  13.372   9.045   3.518
    1STR  H23   2038  13.108   8.727   3.275
    1STR  H27   2039  13.277   8.714   3.084
    1STR  H28   2040  13.424   8.996   1.249
    1STR  H29   2041  13.482   9.042   1.027
    1STR  H2A   2042  13.404   8.895   0.772
    1STR  H2B   2043  13.454   9.057   0.807
    1STR  H2C   2044  13.306   9.034   0.722
    1HEX  C01   2045   0.272  17.287  16.753
    1HEX  C02   2046   0.212  17.289  16.893
    1HEX  C03   2047   0.060  17.289  16.884
    1HEX  O04   2048  17.438  17.190  16.846
    1HEX  O05   2049   0.007  17.408  16.918
    1HEX  C06   2050  17.305  17.422  16.924
    1HEX  C07   2051  17.256  17.417  17.071
    1HEX  C08   2052  17.305   0.104  17.141
    1HEX  O09   2053  17.241   0.225  17.104
    1HEX  C0A   2054  17.178   0.297  17.199
    1HEX  O0B   2055  17.130   0.251  17.302
    1HEX  C0C   2056  17.177   0.446  17.169
    1HEX  C0D   2057  17.179   0.529  17.298
    1HEX  C0F   2058  17.100  17.416  17.074
    1HEX  O0G   2059  17.052  17.295  17.016
    1HEX  C0H   2060  17.006  17.294  16.890
    1HEX  O0I   2061  16.978  17.393  16.822
    1HEX  C0J   2062  16.998  17.154  16.833
    1HEX  C0K   2063  16.879  17.077  16.890
    1HEX  C0N   2064  17.302  17.284  17.143
    1HEX  O0O   2065  17.438  17.265  17.184
    1HEX  C0P   2066   0.067  17.346  17.279
    1HEX  C0Q   2067   0.032  17.340  17.432
    1HEX  C0R   2068   0.066  17.199   0.045
    1HEX  O0S   2069   0.206  17.172   0.038
    1HEX  C0T   2070   0.281  17.167   0.151
    1HEX  O0U   2071   0.239  17.180   0.266
    1HEX  C0V   2072   0.428  17.144   0.123
    1HEX  C0W   2073   0.510  17.273   0.136
    1HEX  C0Y   2074   0.124   0.005   0.059
    1HEX  O0Z   2075   0.100   0.005   0.199
    1HEX  C10   2076   0.188   0.060   0.281
    1HEX  O11   2077   0.292   0.117   0.248
    1HEX  C12   2078   0.145   0.044   0.426
    1HEX  C13   2079   0.253   0.088   0.524
    1HEX  C15   2080  17.325  17.380   0.025
    1HEX  O16   2081  17.287  17.358   0.160
    1HEX  C17   2082  17.216  17.251   0.195
    1HEX  O18   2083  17.186  17.157   0.121
    1HEX  C19   2084  17.169  17.258   0.339
    1HEX  C1A   2085  17.086  17.385   0.361
    1HEX  H1C   2086   0.487  17.290  16.629
    1HEX  H1D   2087   0.239  17.198  16.699
    1HEX  H1E   2088   0.238  17.373  16.695
    1HEX  H1F   2089   0.244  17.377  16.949
    1HEX  H1G   2090   0.242  17.202  16.950
    1HEX  H1H   2091  17.257  17.347  16.862
    1HEX  H1I   2092  17.278   0.078  16.879
    1HEX  H1J   2093  17.409   0.122  17.114
    1HEX  H1K   2094  17.302   0.091  17.248
    1HEX  H1M   2095  17.092   0.472  17.106
    1HEX  H1N   2096  17.267   0.466  17.111
    1HEX  H1O   2097  17.256   0.493  17.366
    1HEX  H1P   2098  17.084   0.520  17.350
    1HEX  H1Q   2099  17.383   0.726  17.239
    1HEX  H1R   2100  17.059   0.065  17.025
    1HEX  H1S   2101  17.064  17.421  17.177
    1HEX  H1T   2102  17.092  17.103  16.853
    1HEX  H1U   2103  16.990  17.163  16.724
    1HEX  H1V   2104  16.786  17.132  16.874
    1HEX  H1W   2105  16.890  17.065  16.998
    1HEX  H1X   2106  16.868  16.920  16.674
    1HEX  H1Y   2107  17.286  17.204  17.071
    1HEX  H1Z   2108  17.233  17.254  17.221
    1HEX  H20   2109   0.077   0.009  17.246
    1HEX  H21   2110   0.169  17.311  17.270
    1HEX  H22   2111   0.012  17.123  17.428
    1HEX  H23   2112   0.031  17.187   0.148
    1HEX  H24   2113   0.438  17.101   0.023
    1HEX  H25   2114   0.465  17.070   0.193
    1HEX  H26   2115   0.468  17.353   0.075
    1HEX  H27   2116   0.613  17.257   0.104
    1HEX  H28   2117   0.435  17.428   0.287
    1HEX  H29   2118   0.105   0.106   0.022
    1HEX  H2A   2119   0.229  17.425   0.039
    1HEX  H2B   2120   0.120  17.378   0.441
    1HEX  H2C   2121   0.053   0.101   0.438
    1HEX  H2D   2122   0.285   0.191   0.503
    1HEX  H2E   2123   0.342   0.026   0.513
    1HEX  H2F   2124   0.063   0.183   0.701
    1HEX  H2G   2125  17.252  17.332  17.402
    1HEX  H2H   2126  17.311   0.047   0.011
    1HEX  H2I   2127  17.256  17.256   0.404
    1HEX  H2J   2128  17.110  17.169   0.361
    1HEX  H2K   2129  17.005  17.391   0.288
    1HEX  H2M   2130  17.148   0.034   0.347
    1HEX  H2N   2131  16.933  17.311   0.546
    1STR  S00   2132   0.453  17.296  16.759
    1STR  S0E   2133  17.261   0.690  17.281
    1STR  S0M   2134  16.880  16.916  16.807
    1STR  S0X   2135   0.559  17.377   0.276
    1STR  S14   2136   0.168   0.102   0.684
    1STR  S1B   2137  17.019  17.412   0.527
    1HEX  C01   2138   0.270  17.287   3.675
    1HEX  C02   2139   0.208  17.290   3.815
    1HEX  C03   2140   0.056  17.290   3.805
    1HEX  O04   2141  17.435  17.190   3.766
    1HEX  O05   2142   0.002  17.408   3.839
    1HEX  C06   2143  17.300  17.422   3.844
    1HEX  C07   2144  17.249  17.421   3.990
    1HEX  C08   2145  17.298   0.111   4.056
    1HEX  O09   2146  17.231   0.231   4.021
    1HEX  C0A   2147  17.174   0.303   4.118
    1HEX  O0B   2148  17.127   0.258   4.223
    1HEX  C0C   2149  17.179   0.453   4.090
    1HEX  C0D   2150  17.183   0.534   4.221
    1HEX  C0F   2151  17.094  17.420   3.991
    1HEX  O0G   2152  17.047  17.298   3.934
    1HEX  C0H   2153  17.002  17.294   3.808
    1HEX  O0I   2154  16.974  17.392   3.739
    1HEX  C0J   2155  16.997  17.153   3.753
    1HEX  C0K   2156  16.878  17.075   3.810
    1HEX  C0N   2157  17.295  17.293   4.069
    1HEX  O0O   2158  17.432  17.276   4.109
    1HEX  C0P   2159   0.061  17.362   4.200
    1HEX  C0Q   2160   0.030  17.364   4.354
    1HEX  C0R   2161   0.041  17.218   4.405
    1HEX  O0S   2162   0.164  17.152   4.374
    1HEX  C0T   2163   0.243  17.108   4.472
    1HEX  O0U   2164   0.244  17.150   4.588
    1HEX  C0V   2165   0.335  16.995   4.429
    1HEX  C0W   2166   0.292  16.862   4.495
    1HEX  C0Y   2167   0.137   0.018   4.420
    1HEX  O0Z   2168   0.089   0.121   4.508
    1HEX  C10   2169   0.176   0.220   4.546
    1HEX  O11   2170   0.295   0.225   4.514
    1HEX  C12   2171   0.117   0.327   4.638
    1HEX  C13   2172   0.135   0.475   4.590
    1HEX  C15   2173  17.327  17.417   4.388
    1HEX  O16   2174  17.286  17.387   4.521
    1HEX  C17   2175  17.205  17.282   4.547
    1HEX  O18   2176  17.164  17.201   4.465
    1HEX  C19   2177  17.165  17.274   4.693
    1HEX  C1A   2178  17.080  17.396   4.729
    1HEX  H1C   2179   0.486  17.290   3.548
    1HEX  H1D   2180   0.237  17.198   3.622
    1HEX  H1E   2181   0.237  17.373   3.617
    1HEX  H1F   2182   0.240  17.378   3.871
    1HEX  H1G   2183   0.238  17.203   3.873
    1HEX  H1H   2184  17.253  17.345   3.783
    1HEX  H1I   2185  17.273   0.076   3.795
    1HEX  H1J   2186  17.401   0.130   4.027
    1HEX  H1K   2187  17.299   0.100   4.164
    1HEX  H1M   2188  17.095   0.482   4.027
    1HEX  H1N   2189  17.270   0.471   4.034
    1HEX  H1O   2190  17.261   0.496   4.288
    1HEX  H1P   2191  17.088   0.524   4.274
    1HEX  H1Q   2192  17.379   0.726   4.165
    1HEX  H1R   2193  17.053   0.067   3.940
    1HEX  H1S   2194  17.057  17.427   4.093
    1HEX  H1T   2195  17.091  17.103   3.775
    1HEX  H1U   2196  16.989  17.160   3.644
    1HEX  H1V   2197  16.785  17.130   3.793
    1HEX  H1W   2198  16.889  17.064   3.918
    1HEX  H1X   2199  16.867  16.920   3.593
    1HEX  H1Y   2200  17.278  17.208   4.002
    1HEX  H1Z   2201  17.229  17.269   4.151
    1HEX  H20   2202   0.072   0.022   4.161
    1HEX  H21   2203   0.164  17.325   4.192
    1HEX  H22   2204  17.402  17.157   4.360
    1HEX  H23   2205   0.023  17.214   4.513
    1HEX  H24   2206   0.437  17.022   4.457
    1HEX  H25   2207   0.332  16.985   4.321
    1HEX  H26   2208   0.273  16.876   4.602
    1HEX  H27   2209   0.371  16.787   4.487
    1HEX  H29   2210   0.191   0.072   4.342
    1HEX  H2A   2211   0.214  17.400   4.470
    1HEX  H2B   2212   0.165   0.313   4.735
    1HEX  H2C   2213   0.011   0.305   4.654
    1HEX  H2D   2214   0.239   0.493   4.562
    1HEX  H2E   2215   0.114   0.543   4.672
    1HEX  H2G   2216  17.251  17.379   4.320
    1HEX  H2H   2217  17.322   0.085   4.378
    1HEX  H2I   2218  17.256  17.270   4.754
    1HEX  H2J   2219  17.110  17.182   4.710
    1HEX  H2K   2220  16.996  17.405   4.660
    1HEX  H2M   2221  17.139   0.048   4.717
    1HEX  H2N   2222  16.933  17.306   4.904
    1STR  S00   2223   0.451  17.296   3.677
    1STR  S0E   2224  17.254   0.700   4.205
    1STR  S0M   2225  16.878  16.915   3.726
    1STR  S0X   2226   0.166  16.731   4.506
    1STR  S14   2227   0.154   0.648   4.526
    1STR  S1B   2228  17.016  17.411   4.897
    1HEX  C01   2229   0.272  17.287   8.033
    1HEX  C02   2230   0.212  17.289   8.173
    1HEX  C03   2231   0.060  17.289   8.164
    1HEX  O04   2232  17.438  17.190   8.126
    1HEX  O05   2233   0.007  17.408   8.198
    1HEX  C06   2234  17.305  17.422   8.204
    1HEX  C07   2235  17.256  17.417   8.351
    1HEX  C08   2236  17.305   0.104   8.421
    1HEX  O09   2237  17.241   0.225   8.384
    1HEX  C0A   2238  17.178   0.296   8.479
    1HEX  O0B   2239  17.130   0.251   8.583
    1HEX  C0C   2240  17.177   0.446   8.449
    1HEX  C0D   2241  17.179   0.529   8.578
    1HEX  C0F   2242  17.100  17.416   8.354
    1HEX  O0G   2243  17.052  17.295   8.296
    1HEX  C0H   2244  17.006  17.294   8.170
    1HEX  O0I   2245  16.978  17.393   8.102
    1HEX  C0J   2246  16.998  17.154   8.113
    1HEX  C0K   2247  16.879  17.077   8.170
    1HEX  C0N   2248  17.302  17.284   8.423
    1HEX  O0O   2249  17.438  17.265   8.464
    1HEX  C0P   2250   0.067  17.346   8.559
    1HEX  C0Q   2251   0.032  17.340   8.712
    1HEX  C0R   2252   0.066  17.199   8.765
    1HEX  O0S   2253   0.206  17.172   8.758
    1HEX  C0T   2254   0.281  17.167   8.871
    1HEX  O0U   2255   0.239  17.180   8.986
    1HEX  C0V   2256   0.428  17.144   8.843
    1HEX  C0W   2257   0.510  17.273   8.856
    1HEX  C0Y   2258   0.124   0.005   8.779
    1HEX  O0Z   2259   0.100   0.005   8.919
    1HEX  C10   2260   0.188   0.060   9.001
    1HEX  O11   2261   0.292   0.117   8.968
    1HEX  C12   2262   0.145   0.044   9.146
    1HEX  C13   2263   0.253   0.088   9.244
    1HEX  C15   2264  17.325  17.380   8.745
    1HEX  O16   2265  17.287  17.358   8.880
    1HEX  C17   2266  17.216  17.251   8.915
    1HEX  O18   2267  17.186  17.157   8.841
    1HEX  C19   2268  17.169  17.258   9.059
    1HEX  C1A   2269  17.086  17.385   9.081
    1HEX  H1C   2270   0.487  17.290   7.909
    1HEX  H1D   2271   0.239  17.198   7.979
    1HEX  H1E   2272   0.238  17.373   7.975
    1HEX  H1F   2273   0.244  17.377   8.229
    1HEX  H1G   2274   0.242  17.202   8.230
    1HEX  H1H   2275  17.257  17.347   8.142
    1HEX  H1I   2276  17.278   0.078   8.159
    1HEX  H1J   2277  17.409   0.122   8.394
    1HEX  H1K   2278  17.302   0.091   8.528
    1HEX  H1M   2279  17.092   0.472   8.386
    1HEX  H1N   2280  17.267   0.466   8.391
    1HEX  H1O   2281  17.256   0.493   8.646
    1HEX  H1P   2282  17.084   0.520   8.630
    1HEX  H1Q   2283  17.383   0.726   8.519
    1HEX  H1R   2284  17.059   0.065   8.305
    1HEX  H1S   2285  17.064  17.421   8.457
    1HEX  H1T   2286  17.092  17.103   8.133
    1HEX  H1U   2287  16.990  17.163   8.004
    1HEX  H1V   2288  16.786  17.132   8.154
    1HEX  H1W   2289  16.890  17.065   8.278
    1HEX  H1X   2290  16.868  16.920   7.954
    1HEX  H1Y   2291  17.286  17.204   8.351
    1HEX  H1Z   2292  17.233  17.254   8.501
    1HEX  H20   2293   0.077   0.009   8.526
    1HEX  H21   2294   0.169  17.311   8.550
    1HEX  H22   2295   0.012  17.123   8.708
    1HEX  H23   2296   0.031  17.187   8.868
    1HEX  H24   2297   0.438  17.101   8.743
    1HEX  H25   2298   0.465  17.070   8.913
    1HEX  H26   2299   0.468  17.353   8.795
    1HEX  H27   2300   0.613  17.257   8.824
    1HEX  H28   2301   0.435  17.428   9.007
    1HEX  H29   2302   0.105   0.106   8.742
    1HEX  H2A   2303   0.229  17.425   8.759
    1HEX  H2B   2304   0.120  17.378   9.161
    1HEX  H2C   2305   0.053   0.101   9.158
    1HEX  H2D   2306   0.285   0.191   9.223
    1HEX  H2E   2307   0.342   0.026   9.233
    1HEX  H2F   2308   0.063   0.183   9.421
    1HEX  H2G   2309  17.252  17.332   8.682
    1HEX  H2H   2310  17.311   0.047   8.731
    1HEX  H2I   2311  17.256  17.256   9.124
    1HEX  H2J   2312  17.110  17.169   9.081
    1HEX  H2K   2313  17.005  17.391   9.008
    1HEX  H2M   2314  17.148   0.034   9.067
    1HEX  H2N   2315  16.933  17.311   9.266
    1STR  S00   2316   0.453  17.296   8.039
    1STR  S0E   2317  17.261   0.690   8.561
    1STR  S0M   2318  16.880  16.916   8.087
    1STR  S0X   2319   0.559  17.377   8.996
    1STR  S14   2320   0.168   0.102   9.404
    1STR  S1B   2321  17.019  17.412   9.247
    1HEX  C01   2322   0.272  17.287  12.393
    1HEX  C02   2323   0.212  17.289  12.533
    1HEX  C03   2324   0.060  17.289  12.524
    1HEX  O04   2325  17.438  17.190  12.486
    1HEX  O05   2326   0.007  17.408  12.558
    1HEX  C06   2327  17.305  17.422  12.564
    1HEX  C07   2328  17.256  17.417  12.711
    1HEX  C08   2329  17.305   0.104  12.781
    1HEX  O09   2330  17.241   0.225  12.744
    1HEX  C0A   2331  17.178   0.296  12.839
    1HEX  O0B   2332  17.130   0.251  12.942
    1HEX  C0C   2333  17.177   0.446  12.809
    1HEX  C0D   2334  17.180   0.529  12.938
    1HEX  C0F   2335  17.100  17.416  12.714
    1HEX  O0G   2336  17.052  17.295  12.656
    1HEX  C0H   2337  17.006  17.294  12.530
    1HEX  O0I   2338  16.978  17.393  12.462
    1HEX  C0J   2339  16.998  17.154  12.473
    1HEX  C0K   2340  16.879  17.077  12.530
    1HEX  C0N   2341  17.302  17.284  12.783
    1HEX  O0O   2342  17.438  17.265  12.824
    1HEX  C0P   2343   0.067  17.346  12.919
    1HEX  C0Q   2344   0.032  17.340  13.072
    1HEX  C0R   2345   0.066  17.199  13.125
    1HEX  O0S   2346   0.206  17.172  13.118
    1HEX  C0T   2347   0.281  17.167  13.231
    1HEX  O0U   2348   0.239  17.180  13.346
    1HEX  C0V   2349   0.428  17.144  13.203
    1HEX  C0W   2350   0.510  17.273  13.216
    1HEX  C0Y   2351   0.124   0.005  13.139
    1HEX  O0Z   2352   0.100   0.005  13.279
    1HEX  C10   2353   0.188   0.060  13.361
    1HEX  O11   2354   0.292   0.117  13.328
    1HEX  C12   2355   0.145   0.044  13.506
    1HEX  C13   2356   0.253   0.088  13.604
    1HEX  C15   2357  17.325  17.380  13.105
    1HEX  O16   2358  17.287  17.358  13.240
    1HEX  C17   2359  17.216  17.251  13.275
    1HEX  O18   2360  17.186  17.157  13.201
    1HEX  C19   2361  17.169  17.258  13.419
    1HEX  C1A   2362  17.086  17.385  13.441
    1HEX  H1C   2363   0.487  17.290  12.270
    1HEX  H1D   2364   0.239  17.198  12.339
    1HEX  H1E   2365   0.238  17.373  12.335
    1HEX  H1F   2366   0.244  17.377  12.589
    1HEX  H1G   2367   0.242  17.202  12.590
    1HEX  H1H   2368  17.257  17.347  12.502
    1HEX  H1I   2369  17.278   0.078  12.519
    1HEX  H1J   2370  17.409   0.122  12.754
    1HEX  H1K   2371  17.302   0.091  12.888
    1HEX  H1M   2372  17.092   0.472  12.746
    1HEX  H1N   2373  17.267   0.466  12.751
    1HEX  H1O   2374  17.256   0.493  13.006
    1HEX  H1P   2375  17.084   0.520  12.990
    1HEX  H1Q   2376  17.383   0.726  12.879
    1HEX  H1R   2377  17.059   0.065  12.665
    1HEX  H1S   2378  17.064  17.421  12.817
    1HEX  H1T   2379  17.092  17.103  12.493
    1HEX  H1U   2380  16.990  17.163  12.364
    1HEX  H1V   2381  16.786  17.132  12.513
    1HEX  H1W   2382  16.890  17.065  12.638
    1HEX  H1X   2383  16.868  16.920  12.314
    1HEX  H1Y   2384  17.286  17.204  12.711
    1HEX  H1Z   2385  17.233  17.254  12.861
    1HEX  H20   2386   0.077   0.009  12.886
    1HEX  H21   2387   0.169  17.311  12.910
    1HEX  H22   2388   0.012  17.123  13.068
    1HEX  H23   2389   0.031  17.187  13.228
    1HEX  H24   2390   0.438  17.102  13.103
    1HEX  H25   2391   0.465  17.070  13.273
    1HEX  H26   2392   0.468  17.353  13.155
    1HEX  H27   2393   0.613  17.257  13.184
    1HEX  H28   2394   0.435  17.428  13.367
    1HEX  H29   2395   0.105   0.106  13.102
    1HEX  H2A   2396   0.229  17.425  13.119
    1HEX  H2B   2397   0.120  17.379  13.521
    1HEX  H2C   2398   0.053   0.101  13.518
    1HEX  H2D   2399   0.285   0.191  13.583
    1HEX  H2E   2400   0.342   0.026  13.593
    1HEX  H2F   2401   0.063   0.183  13.781
    1HEX  H2G   2402  17.252  17.332  13.042
    1HEX  H2H   2403  17.311   0.047  13.091
    1HEX  H2I   2404  17.256  17.256  13.484
    1HEX  H2J   2405  17.110  17.169  13.441
    1HEX  H2K   2406  17.006  17.391  13.368
    1HEX  H2M   2407  17.148   0.034  13.427
    1HEX  H2N   2408  16.933  17.311  13.626
    1STR  S00   2409   0.453  17.295  12.399
    1STR  S0E   2410  17.261   0.690  12.921
    1STR  S0M   2411  16.880  16.916  12.447
    1STR  S0X   2412   0.559  17.377  13.357
    1STR  S14   2413   0.168   0.102  13.764
    1STR  S1B   2414  17.019  17.412  13.607
    1HEX  C01   2415   0.081   4.804  17.077
    1HEX  C02   2416   0.142   4.664  17.032
    1HEX  C03   2417   0.071   4.530  17.000
    1HEX  O04   2418   0.140   4.429  16.993
    1HEX  O05   2419  17.378   4.529  16.979
    1HEX  C06   2420  17.309   4.402  16.961
    1HEX  C07   2421  17.245   4.343  17.092
    1HEX  C08   2422  17.244   4.451  17.200
    1HEX  O09   2423  17.180   4.564  17.148
    1HEX  C0A   2424  17.142   4.660  17.228
    1HEX  O0B   2425  17.132   4.653  17.350
    1HEX  C0C   2426  17.115   4.785  17.149
    1HEX  C0D   2427  17.124   4.908  17.238
    1HEX  C0F   2428  17.093   4.315  17.071
    1HEX  O0G   2429  17.071   4.197  16.996
    1HEX  C0H   2430  17.011   4.202  16.877
    1HEX  O0I   2431  16.970   4.302  16.820
    1HEX  C0J   2432  16.996   4.064  16.817
    1HEX  C0K   2433  16.876   3.990  16.879
    1HEX  C0N   2434  17.305   4.206  17.140
    1HEX  O0O   2435   0.002   4.189  17.178
    1HEX  C0P   2436   0.070   4.269  17.276
    1HEX  C0Q   2437   0.037   4.257  17.429
    1HEX  C0R   2438   0.071   4.115   0.040
    1HEX  O0S   2439   0.212   4.089   0.036
    1HEX  C0T   2440   0.284   4.085   0.150
    1HEX  O0U   2441   0.241   4.098   0.264
    1HEX  C0V   2442   0.432   4.063   0.123
    1HEX  C0W   2443   0.512   4.193   0.137
    1HEX  C0Y   2444   0.128   4.362   0.058
    1HEX  O0Z   2445   0.103   4.361   0.197
    1HEX  C10   2446   0.189   4.419   0.280
    1HEX  O11   2447   0.292   4.478   0.247
    1HEX  C12   2448   0.145   4.404   0.424
    1HEX  C13   2449   0.253   4.448   0.523
    1HEX  C15   2450  17.331   4.293   0.025
    1HEX  O16   2451  17.294   4.271   0.160
    1HEX  C17   2452  17.216   4.167   0.195
    1HEX  O18   2453  17.182   4.075   0.121
    1HEX  C19   2454  17.170   4.176   0.339
    1HEX  C1A   2455  17.088   4.304   0.359
    1HEX  H1D   2456   0.166   4.871  17.088
    1HEX  H1E   2457   0.020   4.845  16.996
    1HEX  H1F   2458   0.209   4.634  17.114
    1HEX  H1G   2459   0.209   4.679  16.948
    1HEX  H1H   2460  17.372   4.327  16.912
    1HEX  H1I   2461  17.230   4.421  16.888
    1HEX  H1J   2462  17.344   4.482  17.231
    1HEX  H1K   2463  17.188   4.418  17.287
    1HEX  H1M   2464  17.018   4.774  17.100
    1HEX  H1N   2465  17.191   4.789  17.070
    1HEX  H1O   2466  17.219   4.903  17.292
    1HEX  H1P   2467  17.048   4.903  17.316
    1HEX  H1Q   2468  17.176   5.079  17.188
    1HEX  H1R   2469  17.042   4.402  17.028
    1HEX  H1S   2470  17.043   4.299  17.166
    1HEX  H1T   2471  17.089   4.009  16.834
    1HEX  H1U   2472  16.983   4.075  16.709
    1HEX  H1V   2473  16.785   4.048  16.866
    1HEX  H1W   2474  16.891   3.978  16.987
    1HEX  H1X   2475  16.867   3.839  16.672
    1HEX  H1Y   2476  17.296   4.136  17.057
    1HEX  H1Z   2477  17.242   4.159  17.215
    1HEX  H20   2478   0.076   4.372  17.242
    1HEX  H21   2479   0.173   4.236  17.265
    1HEX  H22   2480   0.019   4.040  17.421
    1HEX  H23   2481   0.034   4.101   0.142
    1HEX  H24   2482   0.443   4.021   0.024
    1HEX  H25   2483   0.469   3.990   0.194
    1HEX  H26   2484   0.469   4.273   0.076
    1HEX  H27   2485   0.615   4.179   0.104
    1HEX  H28   2486   0.435   4.348   0.287
    1HEX  H29   2487   0.108   4.463   0.020
    1HEX  H2A   2488   0.233   4.342   0.038
    1HEX  H2B   2489   0.119   4.299   0.440
    1HEX  H2C   2490   0.053   4.462   0.435
    1HEX  H2D   2491   0.284   4.551   0.502
    1HEX  H2E   2492   0.342   4.386   0.512
    1HEX  H2F   2493   0.064   4.543   0.700
    1HEX  H2G   2494  17.260   4.242  17.401
    1HEX  H2H   2495  17.317   4.400   0.012
    1HEX  H2I   2496  17.257   4.174   0.404
    1HEX  H2J   2497  17.110   4.088   0.362
    1HEX  H2K   2498  17.007   4.310   0.286
    1HEX  H2M   2499  17.151   4.392   0.344
    1HEX  H2N   2500  16.933   4.232   0.545
    1STR  S00   2501   0.008   4.970  17.130
    1STR  S0E   2502  17.085   5.026  17.105
    1STR  S0M   2503  16.882   3.825  16.804
    1STR  S0X   2504   0.560   4.298   0.277
    1STR  S14   2505   0.169   4.462   0.683
    1STR  S1B   2506  17.020   4.331   0.525
    1HEX  C01   2507   0.269   4.211   3.666
    1HEX  C02   2508   0.204   4.214   3.805
    1HEX  C03   2509   0.053   4.203   3.794
    1HEX  O04   2510  17.439   4.098   3.761
    1HEX  O05   2511  17.430   4.318   3.829
    1HEX  C06   2512  17.290   4.316   3.851
    1HEX  C07   2513  17.255   4.304   4.002
    1HEX  C08   2514  17.271   4.444   4.067
    1HEX  O09   2515  17.186   4.551   4.028
    1HEX  C0A   2516  17.153   4.640   4.123
    1HEX  O0B   2517  17.120   4.610   4.238
    1HEX  C0C   2518  17.172   4.785   4.082
    1HEX  C0D   2519  17.182   4.879   4.204
    1HEX  C0F   2520  17.110   4.249   4.018
    1HEX  O0G   2521  17.111   4.104   4.011
    1HEX  C0H   2522  17.090   4.040   3.895
    1HEX  O0I   2523  17.034   4.091   3.798
    1HEX  C0J   2524  17.146   3.896   3.883
    1HEX  C0K   2525  17.200   3.818   4.007
    1HEX  C0N   2526  17.346   4.203   4.080
    1HEX  O0O   2527   0.046   4.228   4.084
    1HEX  C0P   2528   0.104   4.319   4.176
    1HEX  C0Q   2529   0.116   4.284   4.327
    1HEX  C0R   2530   0.153   4.130   4.330
    1HEX  O0S   2531   0.274   4.079   4.386
    1HEX  C0T   2532   0.269   3.953   4.440
    1HEX  O0U   2533   0.169   3.898   4.486
    1HEX  C0V   2534   0.397   3.872   4.431
    1HEX  C0W   2535   0.508   3.920   4.522
    1HEX  C0Y   2536   0.218   4.398   4.375
    1HEX  O0Z   2537   0.201   4.436   4.511
    1HEX  C10   2538   0.238   4.550   4.568
    1HEX  O11   2539   0.310   4.636   4.518
    1HEX  C12   2540   0.176   4.564   4.707
    1HEX  C13   2541   0.281   4.566   4.819
    1HEX  C15   2542  17.426   4.300   4.414
    1HEX  O16   2543   0.019   4.293   4.554
    1HEX  C17   2544   0.072   4.182   4.610
    1HEX  O18   2545   0.005   4.079   4.617
    1HEX  C19   2546   0.208   4.196   4.689
    1HEX  C1A   2547   0.357   4.220   4.629
    1HEX  H1C   2548   0.487   4.207   3.550
    1HEX  H1D   2549   0.238   4.121   3.613
    1HEX  H1E   2550   0.235   4.296   3.608
    1HEX  H1F   2551   0.231   4.304   3.859
    1HEX  H1G   2552   0.238   4.129   3.865
    1HEX  H1H   2553  17.243   4.238   3.791
    1HEX  H1I   2554  17.249   4.409   3.810
    1HEX  H1J   2555  17.368   4.482   4.037
    1HEX  H1K   2556  17.273   4.432   4.176
    1HEX  H1M   2557  17.093   4.817   4.014
    1HEX  H1N   2558  17.266   4.792   4.026
    1HEX  H1O   2559  17.257   4.843   4.275
    1HEX  H1P   2560  17.087   4.881   4.257
    1HEX  H1Q   2561  17.382   5.083   4.158
    1HEX  H1R   2562  17.042   4.293   3.944
    1HEX  H1S   2563  17.069   4.278   4.114
    1HEX  H1T   2564  17.226   3.904   3.809
    1HEX  H1U   2565  17.067   3.838   3.834
    1HEX  H1V   2566  17.195   3.712   3.984
    1HEX  H1W   2567  17.137   3.834   4.094
    1HEX  H1Y   2568  17.341   4.107   4.028
    1HEX  H1Z   2569  17.306   4.182   4.179
    1HEX  H20   2570   0.073   4.422   4.161
    1HEX  H21   2571   0.207   4.320   4.139
    1HEX  H22   2572   0.151   4.086   4.231
    1HEX  H23   2573   0.068   4.077   4.373
    1HEX  H24   2574   0.427   3.869   4.327
    1HEX  H25   2575   0.371   3.770   4.460
    1HEX  H26   2576   0.547   4.010   4.477
    1HEX  H27   2577   0.591   3.849   4.524
    1HEX  H28   2578   0.516   4.066   4.696
    1HEX  H29   2579   0.199   4.491   4.322
    1HEX  H2A   2580   0.321   4.372   4.354
    1HEX  H2B   2581   0.107   4.481   4.722
    1HEX  H2C   2582   0.114   4.654   4.711
    1HEX  H2D   2583   0.343   4.656   4.810
    1HEX  H2E   2584   0.349   4.481   4.812
    1HEX  H2F   2585   0.113   4.532   5.056
    1HEX  H2G   2586  17.349   4.226   4.391
    1HEX  H2H   2587  17.379   4.397   4.395
    1HEX  H2I   2588   0.213   4.100   4.741
    1HEX  H2J   2589   0.188   4.268   4.767
    1HEX  H2K   2590   0.428   4.242   4.708
    1HEX  H2M   2591   0.371   4.295   4.553
    1STR  S00   2592   0.450   4.210   3.678
    1STR  S0E   2593  17.260   5.042   4.194
    1STR  S0M   2594  17.296   3.670   4.071
    1STR  S0X   2595   0.567   3.942   4.692
    1STR  S14   2596   0.210   4.497   4.972
    1STR  S1B   2597   0.530   4.258   4.555
    1HEX  C01   2598   0.279   4.202   8.029
    1HEX  C02   2599   0.222   4.203   8.170
    1HEX  C03   2600   0.071   4.217   8.164
    1HEX  O04   2601  17.440   4.124   8.125
    1HEX  O05   2602   0.031   4.339   8.201
    1HEX  C06   2603  17.333   4.366   8.213
    1HEX  C07   2604  17.287   4.352   8.360
    1HEX  C08   2605  17.341   4.471   8.449
    1HEX  O09   2606   0.024   4.540   8.417
    1HEX  C0A   2607   0.085   4.615   8.518
    1HEX  O0B   2608   0.033   4.634   8.628
    1HEX  C0C   2609   0.220   4.683   8.485
    1HEX  C0D   2610   0.354   4.626   8.549
    1HEX  C0F   2611  17.130   4.358   8.356
    1HEX  O0G   2612  17.078   4.236   8.300
    1HEX  C0H   2613  17.019   4.233   8.179
    1HEX  O0I   2614  16.981   4.330   8.115
    1HEX  C0J   2615  17.009   4.091   8.123
    1HEX  C0K   2616  16.888   4.014   8.177
    1HEX  C0N   2617  17.318   4.209   8.421
    1HEX  O0O   2618   0.008   4.168   8.465
    1HEX  C0P   2619   0.086   4.235   8.565
    1HEX  C0Q   2620   0.043   4.238   8.717
    1HEX  C0R   2621   0.070   4.099   8.780
    1HEX  O0S   2622   0.209   4.067   8.774
    1HEX  C0T   2623   0.288   4.079   8.883
    1HEX  O0U   2624   0.251   4.099   8.998
    1HEX  C0V   2625   0.435   4.065   8.848
    1HEX  C0W   2626   0.511   4.199   8.857
    1HEX  C0Y   2627   0.134   4.343   8.785
    1HEX  O0Z   2628   0.108   4.348   8.923
    1HEX  C10   2629   0.188   4.417   9.003
    1HEX  O11   2630   0.287   4.481   8.968
    1HEX  C12   2631   0.144   4.406   9.148
    1HEX  C13   2632   0.254   4.450   9.246
    1HEX  C15   2633  17.336   4.283   8.745
    1HEX  O16   2634  17.293   4.268   8.879
    1HEX  C17   2635  17.216   4.166   8.916
    1HEX  O18   2636  17.181   4.072   8.844
    1HEX  C19   2637  17.170   4.178   9.060
    1HEX  C1A   2638  17.089   4.307   9.080
    1HEX  H1C   2639   0.489   4.209   7.905
    1HEX  H1D   2640   0.240   4.115   7.974
    1HEX  H1E   2641   0.246   4.291   7.974
    1HEX  H1F   2642   0.261   4.287   8.228
    1HEX  H1G   2643   0.246   4.112   8.225
    1HEX  H1H   2644  17.275   4.301   8.147
    1HEX  H1I   2645  17.314   4.467   8.177
    1HEX  H1J   2646  17.367   4.423   8.540
    1HEX  H1K   2647  17.262   4.540   8.480
    1HEX  H1M   2648   0.206   4.786   8.520
    1HEX  H1N   2649   0.228   4.692   8.376
    1HEX  H1O   2650   0.334   4.593   8.651
    1HEX  H1P   2651   0.429   4.705   8.558
    1HEX  H1R   2652  17.094   4.446   8.302
    1HEX  H1S   2653  17.088   4.366   8.456
    1HEX  H1T   2654  17.101   4.038   8.145
    1HEX  H1U   2655  17.003   4.099   8.014
    1HEX  H1V   2656  16.795   4.068   8.157
    1HEX  H1W   2657  16.895   4.001   8.285
    1HEX  H1X   2658  16.870   3.843   7.959
    1HEX  H1Y   2659  17.297   4.138   8.341
    1HEX  H1Z   2660  17.242   4.179   8.492
    1HEX  H20   2661   0.118   4.332   8.527
    1HEX  H21   2662   0.179   4.179   8.561
    1HEX  H22   2663   0.012   4.022   8.728
    1HEX  H23   2664   0.036   4.097   8.884
    1HEX  H24   2665   0.443   4.023   8.748
    1HEX  H25   2666   0.480   3.994   8.917
    1HEX  H26   2667   0.465   4.275   8.793
    1HEX  H27   2668   0.614   4.188   8.824
    1HEX  H28   2669   0.435   4.346   9.006
    1HEX  H29   2670   0.118   4.443   8.744
    1HEX  H2A   2671   0.240   4.322   8.767
    1HEX  H2B   2672   0.117   4.302   9.166
    1HEX  H2C   2673   0.054   4.465   9.159
    1HEX  H2D   2674   0.286   4.552   9.223
    1HEX  H2E   2675   0.342   4.386   9.233
    1HEX  H2F   2676   0.065   4.544   9.419
    1HEX  H2G   2677  17.264   4.232   8.682
    1HEX  H2H   2678  17.323   4.390   8.729
    1HEX  H2I   2679  17.258   4.177   9.124
    1HEX  H2J   2680  17.110   4.090   9.084
    1HEX  H2K   2681  17.008   4.312   9.007
    1HEX  H2M   2682  17.152   4.394   9.063
    1HEX  H2N   2683  16.931   4.231   9.265
    1STR  S00   2684   0.460   4.212   8.036
    1STR  S0E   2685   0.540   4.599   8.572
    1STR  S0M   2686  16.881   3.855   8.091
    1STR  S0X   2687   0.561   4.299   8.999
    1STR  S14   2688   0.170   4.462   9.406
    1STR  S1B   2689  17.018   4.331   9.244
    1HEX  C01   2690   0.265   4.209  12.399
    1HEX  C02   2691   0.205   4.217  12.539
    1HEX  C03   2692   0.054   4.229  12.531
    1HEX  O04   2693  17.426   4.136  12.487
    1HEX  O05   2694   0.008   4.348  12.575
    1HEX  C06   2695  17.307   4.373  12.578
    1HEX  C07   2696  17.249   4.362  12.721
    1HEX  C08   2697  17.292   4.487  12.804
    1HEX  O09   2698  17.238   4.617  12.774
    1HEX  C0A   2699  17.236   4.710  12.875
    1HEX  O0B   2700  17.234   4.684  12.995
    1HEX  C0C   2701  17.241   4.856  12.826
    1HEX  C0D   2702  17.268   4.964  12.936
    1HEX  C0F   2703  17.094   4.358  12.714
    1HEX  O0G   2704  17.051   4.234  12.657
    1HEX  C0H   2705  17.008   4.228  12.530
    1HEX  O0I   2706  16.981   4.324  12.459
    1HEX  C0J   2707  17.003   4.085  12.478
    1HEX  C0K   2708  16.885   4.007  12.535
    1HEX  C0N   2709  17.292   4.225  12.788
    1HEX  O0O   2710  17.427   4.198  12.830
    1HEX  C0P   2711   0.059   4.275  12.927
    1HEX  C0Q   2712   0.023   4.269  13.079
    1HEX  C0R   2713   0.052   4.126  13.133
    1HEX  O0S   2714   0.192   4.095  13.124
    1HEX  C0T   2715   0.269   4.090  13.235
    1HEX  O0U   2716   0.231   4.103  13.351
    1HEX  C0V   2717   0.416   4.065  13.202
    1HEX  C0W   2718   0.501   4.192  13.217
    1HEX  C0Y   2719   0.118   4.371  13.147
    1HEX  O0Z   2720   0.094   4.372  13.286
    1HEX  C10   2721   0.185   4.420  13.368
    1HEX  O11   2722   0.292   4.472  13.334
    1HEX  C12   2723   0.143   4.404  13.512
    1HEX  C13   2724   0.253   4.448  13.610
    1HEX  C15   2725  17.318   4.316  13.112
    1HEX  O16   2726  17.262   4.284  13.239
    1HEX  C17   2727  17.167   4.189  13.247
    1HEX  O18   2728  17.154   4.095  13.169
    1HEX  C19   2729  17.069   4.211  13.361
    1HEX  C1A   2730  16.938   4.279  13.312
    1HEX  H1C   2731   0.485   4.208  12.270
    1HEX  H1D   2732   0.229   4.121  12.347
    1HEX  H1E   2733   0.235   4.296  12.339
    1HEX  H1F   2734   0.244   4.303  12.594
    1HEX  H1G   2735   0.230   4.128  12.597
    1HEX  H1H   2736  17.256   4.305  12.509
    1HEX  H1I   2737  17.288   4.472  12.537
    1HEX  H1J   2738  17.399   4.503  12.791
    1HEX  H1K   2739  17.273   4.465  12.907
    1HEX  H1M   2740  17.149   4.878  12.772
    1HEX  H1N   2741  17.322   4.860  12.754
    1HEX  H1O   2742  17.354   4.938  12.998
    1HEX  H1P   2743  17.183   4.974  13.004
    1HEX  H1R   2744  17.054   4.445  12.661
    1HEX  H1S   2745  17.052   4.364  12.815
    1HEX  H1T   2746  17.098   4.035  12.502
    1HEX  H1U   2747  16.997   4.090  12.369
    1HEX  H1V   2748  16.791   4.060  12.516
    1HEX  H1W   2749  16.895   3.996  12.643
    1HEX  H1X   2750  16.869   3.844  12.316
    1HEX  H1Y   2751  17.277   4.148  12.712
    1HEX  H1Z   2752  17.221   4.191  12.863
    1HEX  H20   2753   0.074   4.377  12.894
    1HEX  H21   2754   0.160   4.235  12.918
    1HEX  H22   2755  17.436   4.053  13.077
    1HEX  H23   2756   0.017   4.117  13.236
    1HEX  H24   2757   0.424   4.025  13.102
    1HEX  H25   2758   0.453   3.989  13.271
    1HEX  H26   2759   0.461   4.274  13.156
    1HEX  H27   2760   0.604   4.175  13.186
    1HEX  H28   2761   0.435   4.349  13.367
    1HEX  H29   2762   0.103   4.472  13.109
    1HEX  H2A   2763   0.222   4.346  13.126
    1HEX  H2B   2764   0.118   4.299  13.528
    1HEX  H2C   2765   0.052   4.462  13.525
    1HEX  H2D   2766   0.285   4.550  13.587
    1HEX  H2E   2767   0.341   4.385  13.597
    1HEX  H2F   2768   0.066   4.549  13.776
    1HEX  H2G   2769  17.247   4.283  13.037
    1HEX  H2H   2770  17.313   4.424  13.108
    1HEX  H2I   2771  17.117   4.268  13.440
    1HEX  H2J   2772  17.046   4.113  13.402
    1HEX  H2K   2773  16.912   4.251  13.210
    1HEX  H2M   2774  16.946   4.388  13.314
    1STR  S00   2775   0.447   4.214  12.398
    1STR  S0E   2776  17.342   5.113  13.016
    1STR  S0M   2777  16.882   3.847  12.449
    1STR  S0X   2778   0.557   4.294  13.356
    1STR  S14   2779   0.169   4.463  13.770
    1STR  S1B   2780  16.781   4.333  13.233
    1HEX  C01   2781   0.270   8.566  16.752
    1HEX  C02   2782   0.205   8.568  16.891
    1HEX  C03   2783   0.054   8.563  16.878
    1HEX  O04   2784  17.436   8.463  16.837
    1HEX  O05   2785  17.435   8.679  16.914
    1HEX  C06   2786  17.294   8.685  16.926
    1HEX  C07   2787  17.252   8.674  17.075
    1HEX  C08   2788  17.289   8.808  17.141
    1HEX  O09   2789  17.215   8.924  17.104
    1HEX  C0A   2790  17.169   9.004  17.201
    1HEX  O0B   2791  17.132   8.967  17.312
    1HEX  C0C   2792  17.176   9.152  17.165
    1HEX  C0D   2793  17.181   9.241  17.290
    1HEX  C0F   2794  17.098   8.651  17.085
    1HEX  O0G   2795  17.071   8.512  17.062
    1HEX  C0H   2796  17.041   8.468  16.939
    1HEX  O0I   2797  16.994   8.537  16.849
    1HEX  C0J   2798  17.077   8.321  16.914
    1HEX  C0K   2799  17.100   8.233  17.040
    1HEX  C0N   2800  17.319   8.551  17.147
    1HEX  O0O   2801   0.018   8.553  17.181
    1HEX  C0P   2802   0.075   8.638  17.282
    1HEX  C0Q   2803   0.036   8.625  17.432
    1HEX  C0R   2804   0.068   8.481   0.042
    1HEX  O0S   2805   0.209   8.455   0.037
    1HEX  C0T   2806   0.281   8.448   0.150
    1HEX  O0U   2807   0.239   8.460   0.265
    1HEX  C0V   2808   0.429   8.424   0.123
    1HEX  C0W   2809   0.511   8.553   0.136
    1HEX  C0Y   2810   0.127   8.728   0.064
    1HEX  O0Z   2811   0.102   8.725   0.203
    1HEX  C10   2812   0.188   8.781   0.286
    1HEX  O11   2813   0.291   8.840   0.254
    1HEX  C12   2814   0.145   8.764   0.430
    1HEX  C13   2815   0.254   8.808   0.529
    1HEX  C15   2816  17.329   8.665   0.025
    1HEX  O16   2817  17.290   8.641   0.160
    1HEX  C17   2818  17.216   8.534   0.192
    1HEX  O18   2819  17.184   8.442   0.117
    1HEX  C19   2820  17.170   8.539   0.337
    1HEX  C1A   2821  17.087   8.666   0.360
    1HEX  H1C   2822   0.486   8.571  16.630
    1HEX  H1D   2823   0.240   8.476  16.698
    1HEX  H1E   2824   0.236   8.652  16.694
    1HEX  H1F   2825   0.234   8.657  16.947
    1HEX  H1G   2826   0.236   8.481  16.949
    1HEX  H1H   2827  17.247   8.609  16.864
    1HEX  H1I   2828  17.260   8.780  16.884
    1HEX  H1J   2829  17.391   8.834  17.115
    1HEX  H1K   2830  17.287   8.796  17.248
    1HEX  H1M   2831  17.093   9.179  17.100
    1HEX  H1N   2832  17.268   9.167  17.108
    1HEX  H1O   2833  17.257   9.206  17.360
    1HEX  H1P   2834  17.085   9.237  17.343
    1HEX  H1Q   2835  17.382   9.444  17.238
    1HEX  H1R   2836  17.043   8.716  17.018
    1HEX  H1S   2837  17.063   8.675  17.185
    1HEX  H1T   2838  17.170   8.323  16.857
    1HEX  H1U   2839  17.002   8.278  16.848
    1HEX  H1V   2840  17.084   8.127  17.019
    1HEX  H1W   2841  17.035   8.262  17.122
    1HEX  H1Y   2842  17.312   8.467  17.078
    1HEX  H1Z   2843  17.260   8.514  17.230
    1HEX  H20   2844   0.075   8.741  17.250
    1HEX  H21   2845   0.181   8.612  17.275
    1HEX  H22   2846   0.016   8.408  17.421
    1HEX  H23   2847   0.031   8.466   0.143
    1HEX  H24   2848   0.439   8.381   0.024
    1HEX  H25   2849   0.465   8.350   0.194
    1HEX  H26   2850   0.469   8.632   0.075
    1HEX  H27   2851   0.614   8.537   0.104
    1HEX  H28   2852   0.434   8.708   0.288
    1HEX  H29   2853   0.109   8.829   0.028
    1HEX  H2A   2854   0.232   8.707   0.045
    1HEX  H2B   2855   0.120   8.658   0.445
    1HEX  H2C   2856   0.053   8.821   0.443
    1HEX  H2D   2857   0.285   8.910   0.508
    1HEX  H2E   2858   0.342   8.746   0.516
    1HEX  H2F   2859   0.064   8.905   0.701
    1HEX  H2G   2860  17.255   8.619  17.400
    1HEX  H2H   2861  17.316   8.772   0.014
    1HEX  H2I   2862  17.258   8.537   0.402
    1HEX  H2J   2863  17.112   8.450   0.358
    1HEX  H2K   2864  17.006   8.672   0.287
    1HEX  H2M   2865  17.149   8.755   0.346
    1HEX  H2N   2866  16.933   8.591   0.545
    1STR  S00   2867   0.451   8.578  16.759
    1STR  S0E   2868  17.261   9.403  17.276
    1STR  S0M   2869  17.180   8.082  17.106
    1STR  S0X   2870   0.558   8.658   0.276
    1STR  S14   2871   0.168   8.822   0.689
    1STR  S1B   2872  17.019   8.692   0.526
    1HEX  C01   2873   0.272   8.567   3.673
    1HEX  C02   2874   0.211   8.569   3.813
    1HEX  C03   2875   0.060   8.570   3.804
    1HEX  O04   2876  17.438   8.470   3.766
    1HEX  O05   2877   0.007   8.688   3.838
    1HEX  C06   2878  17.305   8.703   3.844
    1HEX  C07   2879  17.256   8.697   3.991
    1HEX  C08   2880  17.305   8.825   4.061
    1HEX  O09   2881  17.241   8.946   4.025
    1HEX  C0A   2882  17.178   9.017   4.119
    1HEX  O0B   2883  17.130   8.971   4.223
    1HEX  C0C   2884  17.177   9.166   4.089
    1HEX  C0D   2885  17.179   9.250   4.218
    1HEX  C0F   2886  17.100   8.697   3.994
    1HEX  O0G   2887  17.052   8.576   3.936
    1HEX  C0H   2888  17.006   8.575   3.810
    1HEX  O0I   2889  16.978   8.674   3.742
    1HEX  C0J   2890  16.998   8.435   3.752
    1HEX  C0K   2891  16.879   8.358   3.810
    1HEX  C0N   2892  17.302   8.565   4.063
    1HEX  O0O   2893  17.438   8.545   4.104
    1HEX  C0P   2894   0.067   8.627   4.199
    1HEX  C0Q   2895   0.032   8.621   4.352
    1HEX  C0R   2896   0.066   8.479   4.405
    1HEX  O0S   2897   0.206   8.452   4.398
    1HEX  C0T   2898   0.280   8.448   4.511
    1HEX  O0U   2899   0.239   8.461   4.626
    1HEX  C0V   2900   0.428   8.424   4.483
    1HEX  C0W   2901   0.510   8.553   4.496
    1HEX  C0Y   2902   0.124   8.726   4.419
    1HEX  O0Z   2903   0.100   8.726   4.559
    1HEX  C10   2904   0.188   8.780   4.641
    1HEX  O11   2905   0.292   8.837   4.608
    1HEX  C12   2906   0.145   8.764   4.786
    1HEX  C13   2907   0.253   8.808   4.885
    1HEX  C15   2908  17.325   8.661   4.385
    1HEX  O16   2909  17.287   8.639   4.520
    1HEX  C17   2910  17.216   8.531   4.555
    1HEX  O18   2911  17.186   8.438   4.481
    1HEX  C19   2912  17.169   8.538   4.699
    1HEX  C1A   2913  17.086   8.666   4.721
    1HEX  H1C   2914   0.487   8.570   3.550
    1HEX  H1D   2915   0.238   8.478   3.619
    1HEX  H1E   2916   0.238   8.653   3.615
    1HEX  H1F   2917   0.244   8.657   3.869
    1HEX  H1G   2918   0.242   8.482   3.870
    1HEX  H1H   2919  17.257   8.628   3.782
    1HEX  H1I   2920  17.278   8.798   3.799
    1HEX  H1J   2921  17.409   8.842   4.034
    1HEX  H1K   2922  17.302   8.811   4.168
    1HEX  H1M   2923  17.092   9.192   4.026
    1HEX  H1N   2924  17.267   9.187   4.031
    1HEX  H1O   2925  17.256   9.213   4.286
    1HEX  H1P   2926  17.084   9.240   4.270
    1HEX  H1Q   2927  17.383   9.445   4.159
    1HEX  H1R   2928  17.059   8.785   3.945
    1HEX  H1S   2929  17.064   8.702   4.097
    1HEX  H1T   2930  17.092   8.383   3.773
    1HEX  H1U   2931  16.990   8.443   3.644
    1HEX  H1V   2932  16.786   8.412   3.794
    1HEX  H1W   2933  16.890   8.346   3.918
    1HEX  H1X   2934  16.868   8.201   3.594
    1HEX  H1Y   2935  17.285   8.484   3.991
    1HEX  H1Z   2936  17.233   8.534   4.141
    1HEX  H20   2937   0.077   8.729   4.166
    1HEX  H21   2938   0.170   8.591   4.190
    1HEX  H22   2939   0.012   8.403   4.348
    1HEX  H23   2940   0.031   8.468   4.508
    1HEX  H24   2941   0.438   8.382   4.383
    1HEX  H25   2942   0.465   8.350   4.553
    1HEX  H26   2943   0.468   8.633   4.435
    1HEX  H27   2944   0.613   8.537   4.464
    1HEX  H28   2945   0.435   8.708   4.647
    1HEX  H29   2946   0.105   8.826   4.382
    1HEX  H2A   2947   0.229   8.705   4.399
    1HEX  H2B   2948   0.120   8.659   4.801
    1HEX  H2C   2949   0.053   8.821   4.798
    1HEX  H2D   2950   0.285   8.910   4.863
    1HEX  H2E   2951   0.342   8.745   4.873
    1HEX  H2F   2952   0.064   8.904   5.061
    1HEX  H2G   2953  17.252   8.613   4.322
    1HEX  H2H   2954  17.311   8.768   4.371
    1HEX  H2I   2955  17.256   8.537   4.764
    1HEX  H2J   2956  17.110   8.449   4.721
    1HEX  H2K   2957  17.006   8.672   4.648
    1HEX  H2M   2958  17.148   8.754   4.707
    1HEX  H2N   2959  16.933   8.592   4.905
    1STR  S00   2960   0.453   8.576   3.679
    1STR  S0E   2961  17.261   9.411   4.201
    1STR  S0M   2962  16.880   8.196   3.727
    1STR  S0X   2963   0.559   8.657   4.637
    1STR  S14   2964   0.168   8.822   5.044
    1STR  S1B   2965  17.019   8.692   4.887
    1HEX  C01   2966   0.272   8.567   8.033
    1HEX  C02   2967   0.211   8.569   8.173
    1HEX  C03   2968   0.060   8.570   8.164
    1HEX  O04   2969  17.438   8.470   8.126
    1HEX  O05   2970   0.007   8.688   8.198
    1HEX  C06   2971  17.305   8.703   8.204
    1HEX  C07   2972  17.256   8.697   8.351
    1HEX  C08   2973  17.305   8.825   8.421
    1HEX  O09   2974  17.241   8.946   8.385
    1HEX  C0A   2975  17.178   9.017   8.479
    1HEX  O0B   2976  17.130   8.971   8.583
    1HEX  C0C   2977  17.177   9.166   8.449
    1HEX  C0D   2978  17.179   9.250   8.578
    1HEX  C0F   2979  17.100   8.697   8.354
    1HEX  O0G   2980  17.052   8.576   8.296
    1HEX  C0H   2981  17.006   8.575   8.170
    1HEX  O0I   2982  16.978   8.674   8.102
    1HEX  C0J   2983  16.998   8.435   8.112
    1HEX  C0K   2984  16.879   8.358   8.170
    1HEX  C0N   2985  17.302   8.565   8.423
    1HEX  O0O   2986  17.438   8.545   8.464
    1HEX  C0P   2987   0.067   8.627   8.559
    1HEX  C0Q   2988   0.032   8.621   8.712
    1HEX  C0R   2989   0.066   8.479   8.765
    1HEX  O0S   2990   0.206   8.452   8.758
    1HEX  C0T   2991   0.280   8.448   8.871
    1HEX  O0U   2992   0.239   8.461   8.986
    1HEX  C0V   2993   0.428   8.424   8.843
    1HEX  C0W   2994   0.510   8.553   8.856
    1HEX  C0Y   2995   0.124   8.726   8.779
    1HEX  O0Z   2996   0.100   8.726   8.919
    1HEX  C10   2997   0.188   8.780   9.001
    1HEX  O11   2998   0.292   8.837   8.968
    1HEX  C12   2999   0.145   8.764   9.146
    1HEX  C13   3000   0.253   8.808   9.245
    1HEX  C15   3001  17.325   8.661   8.745
    1HEX  O16   3002  17.287   8.639   8.880
    1HEX  C17   3003  17.216   8.531   8.915
    1HEX  O18   3004  17.186   8.438   8.841
    1HEX  C19   3005  17.169   8.538   9.059
    1HEX  C1A   3006  17.086   8.666   9.081
    1HEX  H1C   3007   0.487   8.570   7.909
    1HEX  H1D   3008   0.238   8.478   7.979
    1HEX  H1E   3009   0.238   8.653   7.975
    1HEX  H1F   3010   0.244   8.657   8.229
    1HEX  H1G   3011   0.242   8.482   8.230
    1HEX  H1H   3012  17.257   8.628   8.142
    1HEX  H1I   3013  17.278   8.798   8.159
    1HEX  H1J   3014  17.409   8.842   8.394
    1HEX  H1K   3015  17.302   8.811   8.528
    1HEX  H1M   3016  17.092   9.192   8.386
    1HEX  H1N   3017  17.267   9.187   8.391
    1HEX  H1O   3018  17.256   9.213   8.646
    1HEX  H1P   3019  17.084   9.240   8.630
    1HEX  H1Q   3020  17.383   9.445   8.519
    1HEX  H1R   3021  17.059   8.785   8.305
    1HEX  H1S   3022  17.064   8.702   8.457
    1HEX  H1T   3023  17.092   8.383   8.133
    1HEX  H1U   3024  16.990   8.443   8.004
    1HEX  H1V   3025  16.786   8.412   8.154
    1HEX  H1W   3026  16.890   8.346   8.278
    1HEX  H1X   3027  16.868   8.201   7.954
    1HEX  H1Y   3028  17.285   8.484   8.351
    1HEX  H1Z   3029  17.233   8.534   8.501
    1HEX  H20   3030   0.077   8.729   8.526
    1HEX  H21   3031   0.170   8.591   8.550
    1HEX  H22   3032   0.012   8.403   8.708
    1HEX  H23   3033   0.031   8.468   8.868
    1HEX  H24   3034   0.438   8.382   8.743
    1HEX  H25   3035   0.465   8.350   8.913
    1HEX  H26   3036   0.468   8.633   8.795
    1HEX  H27   3037   0.613   8.537   8.824
    1HEX  H28   3038   0.435   8.708   9.007
    1HEX  H29   3039   0.105   8.826   8.742
    1HEX  H2A   3040   0.229   8.705   8.759
    1HEX  H2B   3041   0.120   8.659   9.161
    1HEX  H2C   3042   0.053   8.821   9.158
    1HEX  H2D   3043   0.285   8.910   9.223
    1HEX  H2E   3044   0.342   8.745   9.233
    1HEX  H2F   3045   0.064   8.904   9.421
    1HEX  H2G   3046  17.252   8.613   8.682
    1HEX  H2H   3047  17.311   8.768   8.731
    1HEX  H2I   3048  17.256   8.537   9.124
    1HEX  H2J   3049  17.110   8.449   9.081
    1HEX  H2K   3050  17.006   8.672   9.008
    1HEX  H2M   3051  17.148   8.754   9.067
    1HEX  H2N   3052  16.933   8.592   9.266
    1STR  S00   3053   0.453   8.576   8.039
    1STR  S0E   3054  17.261   9.411   8.561
    1STR  S0M   3055  16.880   8.196   8.087
    1STR  S0X   3056   0.559   8.657   8.996
    1STR  S14   3057   0.168   8.822   9.404
    1STR  S1B   3058  17.019   8.692   9.247
    1HEX  C01   3059   0.267   8.570  12.392
    1HEX  C02   3060   0.205   8.570  12.532
    1HEX  C03   3061   0.054   8.553  12.523
    1HEX  O04   3062   0.004   8.446  12.488
    1HEX  O05   3063  17.427   8.663  12.558
    1HEX  C06   3064  17.287   8.657  12.579
    1HEX  C07   3065  17.255   8.651  12.731
    1HEX  C08   3066  17.283   8.793  12.786
    1HEX  O09   3067  17.201   8.903  12.748
    1HEX  C0A   3068  17.166   8.991  12.846
    1HEX  O0B   3069  17.132   8.959  12.959
    1HEX  C0C   3070  17.184   9.138  12.807
    1HEX  C0D   3071  17.188   9.230  12.930
    1HEX  C0F   3072  17.107   8.606  12.753
    1HEX  O0G   3073  17.098   8.462  12.771
    1HEX  C0H   3074  17.087   8.379  12.665
    1HEX  O0I   3075  17.045   8.415  12.555
    1HEX  C0J   3076  17.136   8.234  12.684
    1HEX  C0K   3077  17.179   8.180  12.825
    1HEX  C0N   3078  17.341   8.543  12.807
    1HEX  O0O   3079   0.040   8.562  12.833
    1HEX  C0P   3080   0.088   8.657  12.930
    1HEX  C0Q   3081   0.051   8.652  13.082
    1HEX  C0R   3082   0.080   8.509  13.135
    1HEX  O0S   3083   0.218   8.476  13.124
    1HEX  C0T   3084   0.290   8.452  13.235
    1HEX  O0U   3085   0.250   8.456  13.351
    1HEX  C0V   3086   0.436   8.426  13.204
    1HEX  C0W   3087   0.518   8.555  13.210
    1HEX  C0Y   3088   0.145   8.760  13.148
    1HEX  O0Z   3089   0.085   8.866  13.224
    1HEX  C10   3090   0.163   8.972  13.258
    1HEX  O11   3091   0.283   8.982  13.233
    1HEX  C12   3092   0.092   9.083  13.336
    1HEX  C13   3093   0.096   9.226  13.269
    1HEX  C15   3094  17.342   8.688  13.114
    1HEX  O16   3095  17.302   8.656  13.247
    1HEX  C17   3096  17.224   8.549  13.271
    1HEX  O18   3097  17.192   8.463  13.190
    1HEX  C19   3098  17.174   8.545  13.415
    1HEX  C1A   3099  17.086   8.668  13.442
    1HEX  H1C   3100   0.485   8.570  12.269
    1HEX  H1D   3101   0.238   8.480  12.338
    1HEX  H1E   3102   0.230   8.655  12.334
    1HEX  H1F   3103   0.228   8.661  12.586
    1HEX  H1G   3104   0.243   8.487  12.591
    1HEX  H1H   3105  17.242   8.574  12.524
    1HEX  H1I   3106  17.242   8.746  12.535
    1HEX  H1J   3107  17.382   8.824  12.753
    1HEX  H1K   3108  17.288   8.789  12.893
    1HEX  H1M   3109  17.104   9.167  12.740
    1HEX  H1N   3110  17.277   9.148  12.751
    1HEX  H1O   3111  17.266   9.201  13.000
    1HEX  H1P   3112  17.093   9.226  12.985
    1HEX  H1Q   3113  17.300   9.440  12.924
    1HEX  H1R   3114  17.041   8.641  12.673
    1HEX  H1S   3115  17.067   8.652  12.843
    1HEX  H1T   3116  17.220   8.224  12.616
    1HEX  H1U   3117  17.057   8.171  12.643
    1HEX  H1V   3118  17.193   8.072  12.825
    1HEX  H1W   3119  17.106   8.204  12.902
    1HEX  H1Y   3120  17.341   8.454  12.743
    1HEX  H1Z   3121  17.293   8.506  12.897
    1HEX  H20   3122   0.080   8.757  12.891
    1HEX  H21   3123   0.195   8.637  12.924
    1HEX  H22   3124   0.023   8.435  13.078
    1HEX  H23   3125   0.045   8.497  13.237
    1HEX  H24   3126   0.443   8.380  13.105
    1HEX  H25   3127   0.474   8.353  13.276
    1HEX  H26   3128   0.471   8.633  13.149
    1HEX  H27   3129   0.619   8.540  13.173
    1HEX  H28   3130   0.432   8.686  13.396
    1HEX  H29   3131   0.198   8.813  13.069
    1HEX  H2A   3132   0.224   8.714  13.206
    1HEX  H2B   3133   0.141   9.086  13.433
    1HEX  H2C   3134  17.430   9.052  13.355
    1HEX  H2D   3135   0.197   9.248  13.234
    1HEX  H2E   3136   0.070   9.303  13.342
    1HEX  H2G   3137  17.271   8.641  13.047
    1HEX  H2H   3138  17.325   8.795  13.103
    1HEX  H2I   3139  17.260   8.543  13.482
    1HEX  H2J   3140  17.118   8.453  13.430
    1HEX  H2K   3141  17.005   8.673  13.369
    1HEX  H2M   3142  17.145   8.759  13.430
    1HEX  H2N   3143  16.936   8.590  13.621
    1STR  S00   3144   0.448   8.575  12.398
    1STR  S0E   3145  17.170   9.410  12.922
    1STR  S0M   3146  17.250   8.034  12.918
    1STR  S0X   3147   0.556   8.663  13.351
    1STR  S14   3148   0.099   9.393  13.187
    1STR  S1B   3149  17.019   8.694  13.607
    1HEX  C01   3150   0.272  12.927  16.753
    1HEX  C02   3151   0.211  12.929  16.893
    1HEX  C03   3152   0.060  12.930  16.884
    1HEX  O04   3153  17.438  12.830  16.846
    1HEX  O05   3154   0.007  13.048  16.918
    1HEX  C06   3155  17.305  13.063  16.924
    1HEX  C07   3156  17.256  13.057  17.071
    1HEX  C08   3157  17.306  13.185  17.141
    1HEX  O09   3158  17.241  13.306  17.104
    1HEX  C0A   3159  17.178  13.377  17.199
    1HEX  O0B   3160  17.130  13.331  17.303
    1HEX  C0C   3161  17.177  13.526  17.169
    1HEX  C0D   3162  17.179  13.610  17.298
    1HEX  C0F   3163  17.100  13.057  17.074
    1HEX  O0G   3164  17.052  12.936  17.016
    1HEX  C0H   3165  17.006  12.935  16.890
    1HEX  O0I   3166  16.978  13.034  16.822
    1HEX  C0J   3167  16.998  12.795  16.832
    1HEX  C0K   3168  16.879  12.718  16.890
    1HEX  C0N   3169  17.302  12.925  17.143
    1HEX  O0O   3170  17.438  12.905  17.184
    1HEX  C0P   3171   0.067  12.987  17.279
    1HEX  C0Q   3172   0.032  12.981  17.432
    1HEX  C0R   3173   0.066  12.839   0.045
    1HEX  O0S   3174   0.206  12.813   0.038
    1HEX  C0T   3175   0.281  12.808   0.151
    1HEX  O0U   3176   0.239  12.821   0.266
    1HEX  C0V   3177   0.428  12.785   0.123
    1HEX  C0W   3178   0.510  12.913   0.136
    1HEX  C0Y   3179   0.124  13.086   0.059
    1HEX  O0Z   3180   0.100  13.086   0.199
    1HEX  C10   3181   0.188  13.141   0.281
    1HEX  O11   3182   0.292  13.197   0.248
    1HEX  C12   3183   0.145  13.124   0.426
    1HEX  C13   3184   0.253  13.168   0.524
    1HEX  C15   3185  17.325  13.021   0.025
    1HEX  O16   3186  17.287  12.999   0.160
    1HEX  C17   3187  17.216  12.891   0.195
    1HEX  O18   3188  17.186  12.798   0.121
    1HEX  C19   3189  17.169  12.898   0.339
    1HEX  C1A   3190  17.086  13.026   0.361
    1HEX  H1C   3191   0.487  12.930  16.629
    1HEX  H1D   3192   0.238  12.838  16.699
    1HEX  H1E   3193   0.238  13.013  16.695
    1HEX  H1F   3194   0.244  13.017  16.948
    1HEX  H1G   3195   0.242  12.842  16.950
    1HEX  H1H   3196  17.257  12.988  16.862
    1HEX  H1I   3197  17.278  13.158  16.879
    1HEX  H1J   3198  17.409  13.202  17.114
    1HEX  H1K   3199  17.303  13.171  17.248
    1HEX  H1M   3200  17.092  13.552  17.106
    1HEX  H1N   3201  17.267  13.547  17.111
    1HEX  H1O   3202  17.256  13.573  17.366
    1HEX  H1P   3203  17.084  13.600  17.350
    1HEX  H1Q   3204  17.383  13.806  17.239
    1HEX  H1R   3205  17.059  13.145  17.025
    1HEX  H1S   3206  17.064  13.062  17.177
    1HEX  H1T   3207  17.092  12.744  16.853
    1HEX  H1U   3208  16.990  12.803  16.724
    1HEX  H1V   3209  16.786  12.773  16.874
    1HEX  H1W   3210  16.890  12.706  16.998
    1HEX  H1X   3211  16.868  12.561  16.674
    1HEX  H1Y   3212  17.285  12.844  17.071
    1HEX  H1Z   3213  17.233  12.895  17.221
    1HEX  H20   3214   0.077  13.089  17.246
    1HEX  H21   3215   0.169  12.951  17.270
    1HEX  H22   3216   0.012  12.763  17.428
    1HEX  H23   3217   0.031  12.828   0.148
    1HEX  H24   3218   0.438  12.742   0.023
    1HEX  H25   3219   0.465  12.710   0.193
    1HEX  H26   3220   0.468  12.993   0.075
    1HEX  H27   3221   0.613  12.897   0.104
    1HEX  H28   3222   0.435  13.068   0.287
    1HEX  H29   3223   0.105  13.187   0.022
    1HEX  H2A   3224   0.229  13.065   0.039
    1HEX  H2B   3225   0.120  13.019   0.441
    1HEX  H2C   3226   0.053  13.182   0.438
    1HEX  H2D   3227   0.285  13.271   0.503
    1HEX  H2E   3228   0.342  13.106   0.512
    1HEX  H2F   3229   0.064  13.264   0.701
    1HEX  H2G   3230  17.252  12.973  17.402
    1HEX  H2H   3231  17.311  13.128   0.011
    1HEX  H2I   3232  17.256  12.897   0.404
    1HEX  H2J   3233  17.110  12.809   0.361
    1HEX  H2K   3234  17.006  13.032   0.288
    1HEX  H2M   3235  17.148  13.114   0.347
    1HEX  H2N   3236  16.933  12.952   0.546
    1STR  S00   3237   0.453  12.936  16.759
    1STR  S0E   3238  17.261  13.771  17.281
    1STR  S0M   3239  16.880  12.557  16.807
    1STR  S0X   3240   0.559  13.017   0.276
    1STR  S14   3241   0.169  13.182   0.684
    1STR  S1B   3242  17.019  13.052   0.527
    1HEX  C01   3243   0.269  12.928   3.676
    1HEX  C02   3244   0.209  12.933   3.816
    1HEX  C03   3245   0.057  12.934   3.809
    1HEX  O04   3246  17.434  12.835   3.774
    1HEX  O05   3247   0.004  13.054   3.842
    1HEX  C06   3248  17.303  13.070   3.846
    1HEX  C07   3249  17.249  13.071   3.992
    1HEX  C08   3250  17.290  13.202   4.059
    1HEX  O09   3251  17.220  13.319   4.022
    1HEX  C0A   3252  17.165  13.392   4.120
    1HEX  O0B   3253  17.117  13.347   4.224
    1HEX  C0C   3254  17.177  13.541   4.094
    1HEX  C0D   3255  17.184  13.621   4.226
    1HEX  C0F   3256  17.094  13.063   3.991
    1HEX  O0G   3257  17.053  12.939   3.933
    1HEX  C0H   3258  17.005  12.935   3.808
    1HEX  O0I   3259  16.974  13.032   3.739
    1HEX  C0J   3260  16.999  12.794   3.753
    1HEX  C0K   3261  16.879  12.717   3.811
    1HEX  C0N   3262  17.302  12.950   4.076
    1HEX  O0O   3263  17.437  12.952   4.127
    1HEX  C0P   3264   0.050  13.048   4.222
    1HEX  C0Q   3265   0.016  13.041   4.376
    1HEX  C0R   3266   0.149  13.000   4.443
    1HEX  O0S   3267   0.239  13.110   4.412
    1HEX  C0T   3268   0.287  13.194   4.508
    1HEX  O0U   3269   0.309  13.159   4.624
    1HEX  C0V   3270   0.333  13.333   4.453
    1HEX  C0W   3271   0.250  13.471   4.458
    1HEX  C0Y   3272  17.416  13.177   4.445
    1HEX  O0Z   3273  17.399  13.152   4.585
    1HEX  C10   3274   0.024  13.214   4.687
    1HEX  O11   3275   0.078  13.324   4.681
    1HEX  C12   3276   0.022  13.128   4.813
    1HEX  C13   3277   0.133  13.153   4.918
    1HEX  C15   3278  17.337  12.942   4.397
    1HEX  O16   3279  17.304  12.927   4.534
    1HEX  C17   3280  17.205  12.847   4.572
    1HEX  O18   3281  17.154  12.759   4.504
    1HEX  C19   3282  17.158  12.880   4.713
    1HEX  C1A   3283  17.090  13.017   4.718
    1HEX  H1C   3284   0.487  12.931   3.549
    1HEX  H1D   3285   0.235  12.839   3.623
    1HEX  H1E   3286   0.235  13.014   3.617
    1HEX  H1F   3287   0.243  13.021   3.871
    1HEX  H1G   3288   0.239  12.846   3.874
    1HEX  H1H   3289  17.255  12.993   3.786
    1HEX  H1I   3290  17.277  13.164   3.797
    1HEX  H1J   3291  17.393  13.224   4.032
    1HEX  H1K   3292  17.286  13.189   4.167
    1HEX  H1M   3293  17.094  13.574   4.032
    1HEX  H1N   3294  17.268  13.556   4.037
    1HEX  H1O   3295  17.261  13.580   4.293
    1HEX  H1P   3296  17.089  13.612   4.280
    1HEX  H1Q   3297  17.380  13.794   4.152
    1HEX  H1R   3298  17.050  13.149   3.939
    1HEX  H1S   3299  17.055  13.069   4.092
    1HEX  H1T   3300  17.093  12.743   3.775
    1HEX  H1U   3301  16.991  12.800   3.644
    1HEX  H1V   3302  16.787  12.772   3.793
    1HEX  H1W   3303  16.890  12.706   3.919
    1HEX  H1X   3304  16.868  12.561   3.594
    1HEX  H1Y   3305  17.298  12.863   4.010
    1HEX  H1Z   3306  17.231  12.923   4.153
    1HEX  H20   3307   0.059  13.150   4.189
    1HEX  H21   3308   0.155  13.019   4.209
    1HEX  H22   3309   0.186  12.905   4.402
    1HEX  H23   3310   0.138  12.982   4.550
    1HEX  H24   3311   0.367  13.313   4.352
    1HEX  H25   3312   0.425  13.349   4.510
    1HEX  H26   3313   0.226  13.507   4.357
    1HEX  H27   3314   0.300  13.550   4.513
    1HEX  H29   3315  17.322  13.217   4.406
    1HEX  H2A   3316   0.049  13.257   4.427
    1HEX  H2B   3317   0.027  13.023   4.783
    1HEX  H2C   3318  17.366  13.143   4.861
    1HEX  H2D   3319   0.141  13.258   4.946
    1HEX  H2E   3320   0.231  13.121   4.882
    1HEX  H2G   3321  17.353  12.845   4.351
    1HEX  H2H   3322  17.248  12.986   4.351
    1HEX  H2I   3323  17.244  12.878   4.780
    1HEX  H2J   3324  17.090  12.801   4.745
    1HEX  H2K   3325  17.010  13.024   4.643
    1HEX  H2M   3326  17.161  13.097   4.696
    1HEX  H2N   3327  16.926  12.953   4.906
    1STR  S00   3328   0.450  12.939   3.677
    1STR  S0E   3329  17.252  13.784   4.188
    1STR  S0M   3330  16.880  12.556   3.727
    1STR  S0X   3331   0.150  13.636   4.464
    1STR  S14   3332   0.101  13.099   5.090
    1STR  S1B   3333  17.021  13.044   4.883
    1HEX  C01   3334   0.270  12.936   8.027
    1HEX  C02   3335   0.229  12.935   8.175
    1HEX  C03   3336   0.078  12.933   8.184
    1HEX  O04   3337   0.014  12.832   8.157
    1HEX  O05   3338   0.028  13.053   8.221
    1HEX  C06   3339  17.327  13.073   8.220
    1HEX  C07   3340  17.264  13.065   8.360
    1HEX  C08   3341  17.308  13.191   8.437
    1HEX  O09   3342  17.248  13.312   8.396
    1HEX  C0A   3343  17.177  13.384   8.485
    1HEX  O0B   3344  17.123  13.339   8.585
    1HEX  C0C   3345  17.176  13.532   8.452
    1HEX  C0D   3346  17.179  13.617   8.580
    1HEX  C0F   3347  17.109  13.066   8.350
    1HEX  O0G   3348  17.069  12.955   8.270
    1HEX  C0H   3349  16.996  12.976   8.159
    1HEX  O0I   3350  16.881  13.019   8.161
    1HEX  C0J   3351  17.078  12.956   8.030
    1HEX  C0K   3352  17.082  12.849   7.920
    1HEX  C0N   3353  17.301  12.929   8.431
    1HEX  O0O   3354  17.434  12.900   8.475
    1HEX  C0P   3355   0.068  12.981   8.566
    1HEX  C0Q   3356   0.036  12.978   8.718
    1HEX  C0R   3357   0.068  12.837   8.773
    1HEX  O0S   3358   0.208  12.809   8.765
    1HEX  C0T   3359   0.284  12.807   8.876
    1HEX  O0U   3360   0.245  12.822   8.992
    1HEX  C0V   3361   0.431  12.784   8.846
    1HEX  C0W   3362   0.513  12.913   8.857
    1HEX  C0Y   3363   0.128  13.084   8.783
    1HEX  O0Z   3364   0.103  13.086   8.922
    1HEX  C10   3365   0.191  13.142   9.004
    1HEX  O11   3366   0.295  13.198   8.972
    1HEX  C12   3367   0.147  13.126   9.149
    1HEX  C13   3368   0.255  13.169   9.248
    1HEX  C15   3369  17.329  13.020   8.753
    1HEX  O16   3370  17.291  12.996   8.888
    1HEX  C17   3371  17.216  12.889   8.919
    1HEX  O18   3372  17.185  12.797   8.844
    1HEX  C19   3373  17.166  12.896   9.062
    1HEX  C1A   3374  17.084  13.024   9.083
    1HEX  H1C   3375   0.472  12.932   7.899
    1HEX  H1D   3376   0.231  12.847   7.977
    1HEX  H1E   3377   0.224  13.021   7.976
    1HEX  H1F   3378   0.267  13.022   8.227
    1HEX  H1G   3379   0.266  12.846   8.225
    1HEX  H1H   3380  17.284  12.999   8.153
    1HEX  H1I   3381  17.306  13.169   8.173
    1HEX  H1J   3382  17.414  13.209   8.420
    1HEX  H1K   3383  17.296  13.176   8.544
    1HEX  H1M   3384  17.091  13.557   8.389
    1HEX  H1N   3385  17.266  13.553   8.393
    1HEX  H1O   3386  17.256  13.581   8.648
    1HEX  H1P   3387  17.084  13.608   8.633
    1HEX  H1Q   3388  17.385  13.805   8.519
    1HEX  H1R   3389  17.072  13.160   8.306
    1HEX  H1S   3390  17.061  13.059   8.448
    1HEX  H1T   3391  17.082  12.861   8.084
    1HEX  H1U   3392  16.995  13.001   7.974
    1HEX  H1V   3393  16.998  12.779   7.922
    1HEX  H1W   3394  17.177  12.792   7.919
    1HEX  H1Y   3395  17.283  12.851   8.357
    1HEX  H1Z   3396  17.228  12.901   8.506
    1HEX  H20   3397   0.082  13.082   8.529
    1HEX  H21   3398   0.169  12.941   8.556
    1HEX  H22   3399   0.013  12.762   8.717
    1HEX  H23   3400   0.034  12.827   8.876
    1HEX  H24   3401   0.440  12.741   8.746
    1HEX  H25   3402   0.469  12.710   8.916
    1HEX  H26   3403   0.469  12.992   8.796
    1HEX  H27   3404   0.615  12.898   8.823
    1HEX  H28   3405   0.437  13.067   9.008
    1HEX  H29   3406   0.110  13.184   8.743
    1HEX  H2A   3407   0.233  13.062   8.764
    1HEX  H2B   3408   0.121  13.021   9.164
    1HEX  H2C   3409   0.055  13.184   9.160
    1HEX  H2D   3410   0.287  13.272   9.227
    1HEX  H2E   3411   0.343  13.107   9.236
    1HEX  H2F   3412   0.064  13.264   9.421
    1HEX  H2G   3413  17.255  12.974   8.689
    1HEX  H2H   3414  17.317  13.127   8.742
    1HEX  H2I   3415  17.252  12.894   9.129
    1HEX  H2J   3416  17.107  12.807   9.083
    1HEX  H2K   3417  17.005  13.030   9.008
    1HEX  H2M   3418  17.147  13.112   9.069
    1HEX  H2N   3419  16.933  12.952   9.265
    1STR  S00   3420   0.452  12.937   8.031
    1STR  S0E   3421  17.261  13.777   8.562
    1STR  S0M   3422  17.230  12.933   7.854
    1STR  S0X   3423   0.562  13.018   8.997
    1STR  S14   3424   0.169  13.183   9.407
    1STR  S1B   3425  17.019  13.053   9.249
    1HEX  C01   3426   0.336  12.934  12.352
    1HEX  C02   3427   0.254  12.931  12.481
    1HEX  C03   3428   0.107  12.929  12.447
    1HEX  O04   3429   0.057  12.833  12.388
    1HEX  O05   3430   0.043  13.035  12.497
    1HEX  C06   3431  17.342  13.031  12.509
    1HEX  C07   3432  17.297  13.007  12.657
    1HEX  C08   3433  17.304  13.140  12.736
    1HEX  O09   3434  17.185  13.176  12.809
    1HEX  C0A   3435  17.109  13.101  12.898
    1HEX  O0B   3436  16.996  13.137  12.930
    1HEX  C0C   3437  17.172  12.980  12.970
    1HEX  C0D   3438  17.153  12.822  12.937
    1HEX  C0F   3439  17.145  12.975  12.635
    1HEX  O0G   3440  17.119  12.866  12.549
    1HEX  C0H   3441  17.019  12.875  12.461
    1HEX  O0I   3442  16.959  12.977  12.427
    1HEX  C0J   3443  16.981  12.740  12.407
    1HEX  C0K   3444  16.867  12.682  12.492
    1HEX  C0N   3445  17.384  12.891  12.725
    1HEX  O0O   3446  17.419  12.887  12.867
    1HEX  C0P   3447   0.091  12.952  12.933
    1HEX  C0Q   3448   0.095  12.933  13.091
    1HEX  C0R   3449   0.167  12.800  13.126
    1HEX  O0S   3450   0.309  12.809  13.120
    1HEX  C0T   3451   0.380  12.822  13.235
    1HEX  O0U   3452   0.333  12.841  13.347
    1HEX  C0V   3453   0.529  12.809  13.214
    1HEX  C0W   3454   0.599  12.944  13.189
    1HEX  C0Y   3455   0.165  13.058  13.152
    1HEX  O0Z   3456   0.141  13.062  13.291
    1HEX  C10   3457   0.210  13.140  13.371
    1HEX  O11   3458   0.304  13.213  13.338
    1HEX  C12   3459   0.157  13.132  13.513
    1HEX  C13   3460   0.262  13.173  13.617
    1HEX  C15   3461  17.395  12.921  13.158
    1HEX  O16   3462  17.378  12.896  13.298
    1HEX  C17   3463  17.254  12.862  13.340
    1HEX  O18   3464  17.168  12.808  13.271
    1HEX  C19   3465  17.218  12.910  13.480
    1HEX  C1A   3466  17.125  13.031  13.468
    1HEX  H1C   3467   0.507  12.932  12.271
    1HEX  H1D   3468   0.314  12.844  12.294
    1HEX  H1E   3469   0.306  13.020  12.292
    1HEX  H1F   3470   0.275  13.018  12.544
    1HEX  H1G   3471   0.276  12.842  12.540
    1HEX  H1H   3472  17.302  12.955  12.441
    1HEX  H1I   3473  17.299  13.123  12.468
    1HEX  H1J   3474  17.318  13.222  12.665
    1HEX  H1K   3475  17.393  13.150  12.796
    1HEX  H1M   3476  17.144  12.997  13.074
    1HEX  H1N   3477  17.273  13.014  12.962
    1HEX  H1O   3478  17.243  12.763  12.933
    1HEX  H1P   3479  17.093  12.778  13.017
    1HEX  H1R   3480  17.095  13.066  12.602
    1HEX  H1S   3481  17.091  12.945  12.723
    1HEX  H1T   3482  17.070  12.677  12.412
    1HEX  H1U   3483  16.952  12.750  12.303
    1HEX  H1V   3484  16.780  12.749  12.488
    1HEX  H1W   3485  16.896  12.677  12.598
    1HEX  H1X   3486  16.844  12.547  12.318
    1HEX  H1Y   3487   0.032  12.863  12.670
    1HEX  H1Z   3488  17.322  12.802  12.710
    1HEX  H20   3489   0.090  13.058  12.911
    1HEX  H21   3490   0.184  12.917  12.889
    1HEX  H22   3491   0.133  12.721  13.059
    1HEX  H23   3492   0.137  12.765  13.225
    1HEX  H24   3493   0.546  12.740  13.131
    1HEX  H25   3494   0.571  12.761  13.303
    1HEX  H26   3495   0.529  13.027  13.197
    1HEX  H27   3496   0.644  12.947  13.090
    1HEX  H29   3497   0.124  13.150  13.111
    1HEX  H2A   3498   0.272  13.059  13.131
    1HEX  H2B   3499   0.126  13.029  13.530
    1HEX  H2C   3500   0.068  13.194  13.518
    1HEX  H2D   3501   0.296  13.275  13.598
    1HEX  H2E   3502   0.350  13.109  13.607
    1HEX  H2F   3503   0.063  13.264  13.782
    1HEX  H2G   3504  17.342  12.841  13.108
    1HEX  H2H   3505  17.346  13.017  13.150
    1HEX  H2I   3506  17.307  12.933  13.539
    1HEX  H2J   3507  17.166  12.829  13.531
    1HEX  H2K   3508  17.040  13.009  13.403
    1HEX  H2M   3509  17.177  13.116  13.424
    1HEX  H2N   3510  16.926  12.971  13.620
    1STR  S00   3511   0.509  12.936  12.404
    1STR  S0E   3512  17.231  12.644  12.932
    1STR  S0M   3513  16.867  12.508  12.443
    1STR  S0X   3514   0.753  13.002  13.113
    1STR  S14   3515   0.168  13.181  13.772
    1STR  S1B   3516  17.005  13.075  13.597
    1HEX  C01   3517   4.636  17.290  16.751
    1HEX  C02   3518   4.569  17.295  16.888
    1HEX  C03   3519   4.418  17.299  16.871
    1HEX  O04   3520   4.356  17.200  16.832
    1HEX  O05   3521   4.365  17.418  16.903
    1HEX  C06   3522   4.224  17.433  16.913
    1HEX  C07   3523   4.179  17.424  17.061
    1HEX  C08   3524   4.224   0.112  17.133
    1HEX  O09   3525   4.157   0.232  17.098
    1HEX  C0A   3526   4.094   0.301  17.195
    1HEX  O0B   3527   4.047   0.253  17.298
    1HEX  C0C   3528   4.096   0.451  17.169
    1HEX  C0D   3529   4.099   0.531  17.300
    1HEX  C0F   3530   4.024  17.415  17.070
    1HEX  O0G   3531   3.979  17.293  17.012
    1HEX  C0H   3532   3.927  17.292  16.889
    1HEX  O0I   3533   3.895  17.390  16.823
    1HEX  C0J   3534   3.918  17.152  16.831
    1HEX  C0K   3535   3.799  17.075  16.890
    1HEX  C0N   3536   4.238  17.297  17.129
    1HEX  O0O   3537   4.377  17.297  17.172
    1HEX  C0P   3538   4.431  17.372  17.283
    1HEX  C0Q   3539   4.396  17.325  17.427
    1HEX  C0R   3540   4.447  17.177  17.434
    1HEX  O0S   3541   4.584  17.152  17.393
    1HEX  C0T   3542   4.689  17.167   0.039
    1HEX  O0U   3543   4.684  17.216   0.149
    1HEX  C0V   3544   4.826  17.118  17.435
    1HEX  C0W   3545   4.934  17.212   0.053
    1HEX  C0Y   3546   4.464  17.411   0.098
    1HEX  O0Z   3547   4.424  17.347   0.220
    1HEX  C10   3548   4.505  17.311   0.318
    1HEX  O11   3549   4.597  17.380   0.363
    1HEX  C12   3550   4.467  17.173   0.377
    1HEX  C13   3551   4.503  17.036   0.302
    1HEX  C15   3552   4.241  17.341   0.011
    1HEX  O16   3553   4.189  17.331   0.143
    1HEX  C17   3554   4.121  17.224   0.184
    1HEX  O18   3555   4.102  17.121   0.119
    1HEX  C19   3556   4.063  17.242   0.323
    1HEX  C1A   3557   3.999  17.381   0.340
    1HEX  H1C   3558   4.847  17.289  16.629
    1HEX  H1D   3559   4.602  17.201  16.697
    1HEX  H1E   3560   4.605  17.376  16.692
    1HEX  H1F   3561   4.600  17.382  16.945
    1HEX  H1G   3562   4.594  17.207  16.948
    1HEX  H1H   3563   4.174  17.358  16.851
    1HEX  H1I   3564   4.195   0.089  16.870
    1HEX  H1J   3565   4.329   0.130  17.108
    1HEX  H1K   3566   4.219   0.097  17.240
    1HEX  H1M   3567   4.011   0.479  17.106
    1HEX  H1N   3568   4.186   0.471  17.111
    1HEX  H1O   3569   4.176   0.492  17.367
    1HEX  H1P   3570   4.004   0.521  17.352
    1HEX  H1Q   3571   4.302   0.725  17.238
    1HEX  H1R   3572   3.976   0.062  17.025
    1HEX  H1S   3573   3.991  17.417  17.175
    1HEX  H1T   3574   4.012  17.100  16.852
    1HEX  H1U   3575   3.909  17.160  16.723
    1HEX  H1V   3576   3.706  17.131  16.873
    1HEX  H1W   3577   3.810  17.064  16.998
    1HEX  H1X   3578   3.788  16.921  16.673
    1HEX  H1Y   3579   4.232  17.217  17.055
    1HEX  H1Z   3580   4.169  17.255  17.201
    1HEX  H20   3581   4.422   0.040  17.274
    1HEX  H21   3582   4.539  17.359  17.271
    1HEX  H22   3583   4.384  17.116  17.369
    1HEX  H23   3584   4.427  17.138   0.093
    1HEX  H24   3585   4.832  17.109  17.327
    1HEX  H25   3586   4.838  17.018   0.039
    1HEX  H26   3587   4.915  17.317   0.031
    1HEX  H27   3588   5.035  17.186   0.021
    1HEX  H28   3589   4.875  17.346   0.251
    1HEX  H29   3590   4.427   0.074   0.096
    1HEX  H2A   3591   4.572  17.419   0.087
    1HEX  H2B   3592   4.360  17.178   0.388
    1HEX  H2C   3593   4.509  17.172   0.477
    1HEX  H2D   3594   4.470  16.954   0.364
    1HEX  H2E   3595   4.611  17.026   0.290
    1HEX  H2G   3596   4.183  17.274  17.392
    1HEX  H2H   3597   4.212   0.002  17.423
    1HEX  H2I   3598   4.143  17.229   0.396
    1HEX  H2J   3599   3.990  17.163   0.341
    1HEX  H2K   3600   3.925  17.399   0.262
    1HEX  H2M   3601   4.075   0.020   0.332
    1HEX  H2N   3602   3.848  17.314   0.543
    1STR  S00   3603   4.817  17.292  16.759
    1STR  S0E   3604   4.180   0.692  17.282
    1STR  S0M   3605   3.800  16.914  16.806
    1STR  S0X   3606   4.992  17.299   0.202
    1STR  S14   3607   4.535  16.879   0.200
    1STR  S1B   3608   3.944  17.402   0.512
    1HEX  C01   3609   4.632  17.287   3.673
    1HEX  C02   3610   4.572  17.289   3.813
    1HEX  C03   3611   4.420  17.289   3.804
    1HEX  O04   3612   4.358  17.190   3.766
    1HEX  O05   3613   4.367  17.408   3.838
    1HEX  C06   3614   4.225  17.422   3.844
    1HEX  C07   3615   4.176  17.417   3.991
    1HEX  C08   3616   4.225   0.104   4.061
    1HEX  O09   3617   4.161   0.225   4.024
    1HEX  C0A   3618   4.098   0.297   4.119
    1HEX  O0B   3619   4.050   0.251   4.223
    1HEX  C0C   3620   4.097   0.446   4.089
    1HEX  C0D   3621   4.100   0.529   4.218
    1HEX  C0F   3622   4.020  17.416   3.994
    1HEX  O0G   3623   3.972  17.295   3.936
    1HEX  C0H   3624   3.926  17.294   3.810
    1HEX  O0I   3625   3.898  17.393   3.742
    1HEX  C0J   3626   3.918  17.154   3.752
    1HEX  C0K   3627   3.799  17.077   3.810
    1HEX  C0N   3628   4.222  17.284   4.063
    1HEX  O0O   3629   4.358  17.265   4.104
    1HEX  C0P   3630   4.427  17.346   4.199
    1HEX  C0Q   3631   4.392  17.340   4.352
    1HEX  C0R   3632   4.426  17.199   4.405
    1HEX  O0S   3633   4.566  17.172   4.398
    1HEX  C0T   3634   4.641  17.167   4.511
    1HEX  O0U   3635   4.599  17.180   4.626
    1HEX  C0V   3636   4.788  17.144   4.483
    1HEX  C0W   3637   4.870  17.273   4.496
    1HEX  C0Y   3638   4.484   0.005   4.419
    1HEX  O0Z   3639   4.460   0.005   4.559
    1HEX  C10   3640   4.548   0.060   4.641
    1HEX  O11   3641   4.652   0.117   4.608
    1HEX  C12   3642   4.505   0.043   4.786
    1HEX  C13   3643   4.613   0.088   4.884
    1HEX  C15   3644   4.245  17.380   4.385
    1HEX  O16   3645   4.207  17.358   4.520
    1HEX  C17   3646   4.136  17.251   4.555
    1HEX  O18   3647   4.106  17.157   4.481
    1HEX  C19   3648   4.089  17.258   4.699
    1HEX  C1A   3649   4.006  17.385   4.721
    1HEX  H1C   3650   4.847  17.290   3.550
    1HEX  H1D   3651   4.599  17.198   3.619
    1HEX  H1E   3652   4.598  17.373   3.615
    1HEX  H1F   3653   4.604  17.377   3.869
    1HEX  H1G   3654   4.602  17.202   3.870
    1HEX  H1H   3655   4.177  17.347   3.782
    1HEX  H1I   3656   4.198   0.078   3.799
    1HEX  H1J   3657   4.329   0.122   4.034
    1HEX  H1K   3658   4.222   0.091   4.168
    1HEX  H1M   3659   4.012   0.472   4.026
    1HEX  H1N   3660   4.187   0.466   4.031
    1HEX  H1O   3661   4.176   0.493   4.286
    1HEX  H1P   3662   4.004   0.520   4.270
    1HEX  H1Q   3663   4.303   0.726   4.159
    1HEX  H1R   3664   3.979   0.065   3.945
    1HEX  H1S   3665   3.984  17.421   4.097
    1HEX  H1T   3666   4.012  17.103   3.773
    1HEX  H1U   3667   3.910  17.163   3.644
    1HEX  H1V   3668   3.706  17.132   3.794
    1HEX  H1W   3669   3.810  17.065   3.918
    1HEX  H1X   3670   3.788  16.920   3.594
    1HEX  H1Y   3671   4.206  17.204   3.991
    1HEX  H1Z   3672   4.153  17.254   4.141
    1HEX  H20   3673   4.437   0.009   4.166
    1HEX  H21   3674   4.529  17.311   4.190
    1HEX  H22   3675   4.373  17.123   4.348
    1HEX  H23   3676   4.391  17.187   4.508
    1HEX  H24   3677   4.798  17.101   4.383
    1HEX  H25   3678   4.825  17.070   4.553
    1HEX  H26   3679   4.828  17.353   4.435
    1HEX  H27   3680   4.973  17.257   4.464
    1HEX  H28   3681   4.795  17.428   4.647
    1HEX  H29   3682   4.465   0.106   4.382
    1HEX  H2A   3683   4.589  17.425   4.399
    1HEX  H2B   3684   4.480  17.378   4.801
    1HEX  H2C   3685   4.413   0.101   4.798
    1HEX  H2D   3686   4.645   0.191   4.863
    1HEX  H2E   3687   4.702   0.026   4.873
    1HEX  H2F   3688   4.423   0.183   5.061
    1HEX  H2G   3689   4.172  17.332   4.322
    1HEX  H2H   3690   4.231   0.047   4.371
    1HEX  H2I   3691   4.176  17.256   4.764
    1HEX  H2J   3692   4.030  17.169   4.721
    1HEX  H2K   3693   3.925  17.391   4.648
    1HEX  H2M   3694   4.068   0.034   4.707
    1HEX  H2N   3695   3.853  17.311   4.905
    1STR  S00   3696   4.813  17.296   3.679
    1STR  S0E   3697   4.181   0.690   4.201
    1STR  S0M   3698   3.800  16.916   3.727
    1STR  S0X   3699   4.919  17.377   4.636
    1STR  S14   3700   4.528   0.102   5.044
    1STR  S1B   3701   3.939  17.412   4.887
    1HEX  C01   3702   4.632  17.287   8.033
    1HEX  C02   3703   4.572  17.289   8.173
    1HEX  C03   3704   4.420  17.289   8.164
    1HEX  O04   3705   4.358  17.190   8.126
    1HEX  O05   3706   4.367  17.408   8.198
    1HEX  C06   3707   4.225  17.422   8.204
    1HEX  C07   3708   4.176  17.417   8.351
    1HEX  C08   3709   4.225   0.104   8.421
    1HEX  O09   3710   4.161   0.225   8.384
    1HEX  C0A   3711   4.098   0.297   8.479
    1HEX  O0B   3712   4.050   0.251   8.582
    1HEX  C0C   3713   4.097   0.446   8.449
    1HEX  C0D   3714   4.099   0.529   8.578
    1HEX  C0F   3715   4.020  17.416   8.354
    1HEX  O0G   3716   3.972  17.295   8.296
    1HEX  C0H   3717   3.926  17.294   8.170
    1HEX  O0I   3718   3.898  17.393   8.102
    1HEX  C0J   3719   3.918  17.154   8.113
    1HEX  C0K   3720   3.799  17.077   8.170
    1HEX  C0N   3721   4.222  17.284   8.423
    1HEX  O0O   3722   4.358  17.265   8.464
    1HEX  C0P   3723   4.427  17.346   8.559
    1HEX  C0Q   3724   4.392  17.340   8.712
    1HEX  C0R   3725   4.426  17.199   8.765
    1HEX  O0S   3726   4.566  17.172   8.758
    1HEX  C0T   3727   4.641  17.167   8.871
    1HEX  O0U   3728   4.599  17.180   8.986
    1HEX  C0V   3729   4.788  17.144   8.843
    1HEX  C0W   3730   4.870  17.273   8.856
    1HEX  C0Y   3731   4.484   0.005   8.779
    1HEX  O0Z   3732   4.460   0.005   8.919
    1HEX  C10   3733   4.548   0.060   9.001
    1HEX  O11   3734   4.652   0.117   8.968
    1HEX  C12   3735   4.505   0.044   9.146
    1HEX  C13   3736   4.613   0.088   9.244
    1HEX  C15   3737   4.245  17.380   8.745
    1HEX  O16   3738   4.207  17.358   8.880
    1HEX  C17   3739   4.136  17.251   8.915
    1HEX  O18   3740   4.106  17.157   8.841
    1HEX  C19   3741   4.089  17.258   9.059
    1HEX  C1A   3742   4.006  17.385   9.081
    1HEX  H1C   3743   4.847  17.290   7.909
    1HEX  H1D   3744   4.599  17.198   7.979
    1HEX  H1E   3745   4.598  17.373   7.975
    1HEX  H1F   3746   4.604  17.377   8.229
    1HEX  H1G   3747   4.602  17.202   8.230
    1HEX  H1H   3748   4.177  17.347   8.142
    1HEX  H1I   3749   4.198   0.078   8.159
    1HEX  H1J   3750   4.329   0.122   8.394
    1HEX  H1K   3751   4.222   0.091   8.528
    1HEX  H1M   3752   4.012   0.472   8.386
    1HEX  H1N   3753   4.187   0.466   8.391
    1HEX  H1O   3754   4.176   0.493   8.646
    1HEX  H1P   3755   4.004   0.520   8.630
    1HEX  H1Q   3756   4.303   0.726   8.519
    1HEX  H1R   3757   3.979   0.065   8.305
    1HEX  H1S   3758   3.984  17.421   8.457
    1HEX  H1T   3759   4.012  17.103   8.133
    1HEX  H1U   3760   3.910  17.163   8.004
    1HEX  H1V   3761   3.706  17.132   8.154
    1HEX  H1W   3762   3.810  17.065   8.278
    1HEX  H1X   3763   3.788  16.920   7.954
    1HEX  H1Y   3764   4.206  17.204   8.351
    1HEX  H1Z   3765   4.153  17.254   8.501
    1HEX  H20   3766   4.437   0.009   8.526
    1HEX  H21   3767   4.529  17.311   8.550
    1HEX  H22   3768   4.372  17.123   8.708
    1HEX  H23   3769   4.391  17.187   8.868
    1HEX  H24   3770   4.798  17.101   8.743
    1HEX  H25   3771   4.825  17.070   8.913
    1HEX  H26   3772   4.828  17.353   8.795
    1HEX  H27   3773   4.973  17.257   8.824
    1HEX  H28   3774   4.795  17.428   9.007
    1HEX  H29   3775   4.465   0.106   8.742
    1HEX  H2A   3776   4.589  17.425   8.759
    1HEX  H2B   3777   4.480  17.378   9.161
    1HEX  H2C   3778   4.413   0.101   9.158
    1HEX  H2D   3779   4.645   0.191   9.223
    1HEX  H2E   3780   4.702   0.026   9.233
    1HEX  H2F   3781   4.423   0.183   9.421
    1HEX  H2G   3782   4.172  17.332   8.682
    1HEX  H2H   3783   4.231   0.047   8.731
    1HEX  H2I   3784   4.176  17.256   9.124
    1HEX  H2J   3785   4.030  17.169   9.081
    1HEX  H2K   3786   3.925  17.391   9.008
    1HEX  H2M   3787   4.068   0.034   9.067
    1HEX  H2N   3788   3.853  17.311   9.266
    1STR  S00   3789   4.813  17.296   8.039
    1STR  S0E   3790   4.181   0.690   8.561
    1STR  S0M   3791   3.800  16.916   8.087
    1STR  S0X   3792   4.919  17.377   8.996
    1STR  S14   3793   4.528   0.102   9.404
    1STR  S1B   3794   3.939  17.412   9.247
    1HEX  C01   3795   4.632  17.287  12.393
    1HEX  C02   3796   4.572  17.289  12.533
    1HEX  C03   3797   4.420  17.289  12.524
    1HEX  O04   3798   4.358  17.190  12.486
    1HEX  O05   3799   4.367  17.408  12.558
    1HEX  C06   3800   4.225  17.422  12.564
    1HEX  C07   3801   4.176  17.417  12.711
    1HEX  C08   3802   4.225   0.104  12.781
    1HEX  O09   3803   4.161   0.225  12.744
    1HEX  C0A   3804   4.098   0.296  12.839
    1HEX  O0B   3805   4.050   0.251  12.943
    1HEX  C0C   3806   4.097   0.446  12.809
    1HEX  C0D   3807   4.099   0.529  12.938
    1HEX  C0F   3808   4.020  17.416  12.714
    1HEX  O0G   3809   3.972  17.295  12.656
    1HEX  C0H   3810   3.926  17.294  12.530
    1HEX  O0I   3811   3.898  17.393  12.462
    1HEX  C0J   3812   3.918  17.154  12.473
    1HEX  C0K   3813   3.799  17.077  12.530
    1HEX  C0N   3814   4.222  17.284  12.783
    1HEX  O0O   3815   4.358  17.265  12.824
    1HEX  C0P   3816   4.427  17.346  12.919
    1HEX  C0Q   3817   4.392  17.340  13.072
    1HEX  C0R   3818   4.426  17.199  13.125
    1HEX  O0S   3819   4.566  17.172  13.118
    1HEX  C0T   3820   4.641  17.167  13.231
    1HEX  O0U   3821   4.599  17.180  13.346
    1HEX  C0V   3822   4.788  17.144  13.203
    1HEX  C0W   3823   4.870  17.273  13.216
    1HEX  C0Y   3824   4.484   0.005  13.139
    1HEX  O0Z   3825   4.460   0.005  13.279
    1HEX  C10   3826   4.548   0.060  13.361
    1HEX  O11   3827   4.652   0.117  13.328
    1HEX  C12   3828   4.505   0.044  13.506
    1HEX  C13   3829   4.613   0.088  13.604
    1HEX  C15   3830   4.245  17.380  13.105
    1HEX  O16   3831   4.207  17.358  13.240
    1HEX  C17   3832   4.136  17.251  13.275
    1HEX  O18   3833   4.106  17.157  13.201
    1HEX  C19   3834   4.089  17.258  13.419
    1HEX  C1A   3835   4.006  17.385  13.441
    1HEX  H1C   3836   4.847  17.290  12.269
    1HEX  H1D   3837   4.599  17.198  12.339
    1HEX  H1E   3838   4.598  17.373  12.335
    1HEX  H1F   3839   4.604  17.377  12.589
    1HEX  H1G   3840   4.602  17.202  12.590
    1HEX  H1H   3841   4.177  17.347  12.502
    1HEX  H1I   3842   4.198   0.078  12.519
    1HEX  H1J   3843   4.329   0.122  12.754
    1HEX  H1K   3844   4.222   0.091  12.888
    1HEX  H1M   3845   4.012   0.472  12.746
    1HEX  H1N   3846   4.187   0.466  12.751
    1HEX  H1O   3847   4.176   0.493  13.006
    1HEX  H1P   3848   4.004   0.520  12.990
    1HEX  H1Q   3849   4.303   0.726  12.879
    1HEX  H1R   3850   3.979   0.065  12.665
    1HEX  H1S   3851   3.984  17.421  12.817
    1HEX  H1T   3852   4.012  17.103  12.493
    1HEX  H1U   3853   3.910  17.163  12.364
    1HEX  H1V   3854   3.706  17.132  12.513
    1HEX  H1W   3855   3.810  17.065  12.638
    1HEX  H1X   3856   3.788  16.920  12.314
    1HEX  H1Y   3857   4.206  17.204  12.711
    1HEX  H1Z   3858   4.153  17.254  12.861
    1HEX  H20   3859   4.437   0.009  12.886
    1HEX  H21   3860   4.529  17.311  12.910
    1HEX  H22   3861   4.372  17.123  13.068
    1HEX  H23   3862   4.391  17.187  13.228
    1HEX  H24   3863   4.798  17.102  13.103
    1HEX  H25   3864   4.825  17.070  13.273
    1HEX  H26   3865   4.828  17.353  13.155
    1HEX  H27   3866   4.973  17.257  13.184
    1HEX  H28   3867   4.795  17.428  13.367
    1HEX  H29   3868   4.465   0.106  13.102
    1HEX  H2A   3869   4.589  17.425  13.119
    1HEX  H2B   3870   4.480  17.378  13.521
    1HEX  H2C   3871   4.413   0.101  13.518
    1HEX  H2D   3872   4.645   0.191  13.583
    1HEX  H2E   3873   4.702   0.026  13.593
    1HEX  H2F   3874   4.423   0.183  13.781
    1HEX  H2G   3875   4.172  17.332  13.042
    1HEX  H2H   3876   4.231   0.047  13.091
    1HEX  H2I   3877   4.176  17.256  13.484
    1HEX  H2J   3878   4.030  17.169  13.441
    1HEX  H2K   3879   3.925  17.391  13.368
    1HEX  H2M   3880   4.068   0.034  13.427
    1HEX  H2N   3881   3.853  17.311  13.625
    1STR  S00   3882   4.813  17.296  12.399
    1STR  S0E   3883   4.181   0.690  12.921
    1STR  S0M   3884   3.800  16.916  12.447
    1STR  S0X   3885   4.919  17.377  13.356
    1STR  S14   3886   4.528   0.102  13.764
    1STR  S1B   3887   3.939  17.412  13.607
    1HEX  C01   3888   4.630   4.215  16.754
    1HEX  C02   3889   4.572   4.211  16.896
    1HEX  C03   3890   4.421   4.198  16.891
    1HEX  O04   3891   4.368   4.098  16.841
    1HEX  O05   3892   4.357   4.304  16.942
    1HEX  C06   3893   4.215   4.307  16.947
    1HEX  C07   3894   4.163   4.301  17.093
    1HEX  C08   3895   4.191   4.436  17.161
    1HEX  O09   3896   4.130   4.543  17.090
    1HEX  C0A   3897   4.112   4.660  17.151
    1HEX  O0B   3898   4.106   4.677  17.273
    1HEX  C0C   3899   4.105   4.777  17.054
    1HEX  C0D   3900   4.159   4.739  16.914
    1HEX  C0F   3901   4.009   4.287  17.093
    1HEX  O0G   3902   3.969   4.171  17.022
    1HEX  C0H   3903   3.904   4.182  16.905
    1HEX  O0I   3904   3.860   4.285  16.856
    1HEX  C0J   3905   3.892   4.049  16.834
    1HEX  C0K   3906   3.780   3.966  16.896
    1HEX  C0N   3907   4.221   4.174  17.165
    1HEX  O0O   3908   4.361   4.165  17.197
    1HEX  C0P   3909   4.429   4.255  17.284
    1HEX  C0Q   3910   4.397   4.256  17.437
    1HEX  C0R   3911   4.429   4.115   0.054
    1HEX  O0S   3912   4.568   4.087   0.046
    1HEX  C0T   3913   4.645   4.085   0.157
    1HEX  O0U   3914   4.606   4.101   0.272
    1HEX  C0V   3915   4.792   4.063   0.126
    1HEX  C0W   3916   4.873   4.193   0.137
    1HEX  C0Y   3917   4.490   4.362   0.061
    1HEX  O0Z   3918   4.465   4.365   0.200
    1HEX  C10   3919   4.552   4.421   0.282
    1HEX  O11   3920   4.656   4.477   0.250
    1HEX  C12   3921   4.507   4.406   0.426
    1HEX  C13   3922   4.615   4.450   0.526
    1HEX  C15   3923   4.252   4.302   0.030
    1HEX  O16   3924   4.211   4.278   0.164
    1HEX  C17   3925   4.136   4.172   0.196
    1HEX  O18   3926   4.105   4.081   0.120
    1HEX  C19   3927   4.088   4.177   0.339
    1HEX  C1A   3928   4.006   4.304   0.362
    1HEX  H1C   3929   4.843   4.209  16.628
    1HEX  H1D   3930   4.601   4.125  16.699
    1HEX  H1E   3931   4.589   4.300  16.700
    1HEX  H1F   3932   4.599   4.301  16.952
    1HEX  H1G   3933   4.611   4.126  16.951
    1HEX  H1H   3934   4.174   4.224  16.890
    1HEX  H1I   3935   4.181   4.397  16.897
    1HEX  H1J   3936   4.296   4.463  17.158
    1HEX  H1K   3937   4.156   4.436  17.264
    1HEX  H1M   3938   4.002   4.811  17.048
    1HEX  H1N   3939   4.163   4.858  17.097
    1HEX  H1O   3940   4.259   4.697  16.920
    1HEX  H1P   3941   4.162   4.823  16.846
    1HEX  H1R   3942   3.961   4.377  17.053
    1HEX  H1S   3943   3.971   4.279  17.195
    1HEX  H1T   3944   3.989   3.998  16.840
    1HEX  H1U   3945   3.872   4.069  16.729
    1HEX  H1V   3946   3.686   4.021  16.892
    1HEX  H1W   3947   3.801   3.948  17.002
    1HEX  H1X   3948   3.774   3.830  16.667
    1HEX  H1Y   3949   4.207   4.091  17.095
    1HEX  H1Z   3950   4.160   4.140  17.248
    1HEX  H20   3951   4.437   4.355  17.244
    1HEX  H21   3952   4.533   4.221  17.276
    1HEX  H22   3953   4.373   4.039  17.440
    1HEX  H23   3954   4.395   4.107   0.158
    1HEX  H24   3955   4.801   4.021   0.026
    1HEX  H25   3956   4.831   3.990   0.196
    1HEX  H26   3957   4.830   4.272   0.076
    1HEX  H27   3958   4.976   4.178   0.104
    1HEX  H28   3959   4.798   4.347   0.288
    1HEX  H29   3960   4.473   4.461   0.020
    1HEX  H2A   3961   4.595   4.339   0.042
    1HEX  H2B   3962   4.481   4.301   0.442
    1HEX  H2C   3963   4.416   4.464   0.437
    1HEX  H2D   3964   4.647   4.552   0.505
    1HEX  H2E   3965   4.703   4.387   0.515
    1HEX  H2F   3966   4.424   4.544   0.700
    1HEX  H2G   3967   4.176   4.259  17.406
    1HEX  H2H   3968   4.244   4.409   0.017
    1HEX  H2I   3969   4.175   4.174   0.406
    1HEX  H2J   3970   4.029   4.088   0.360
    1HEX  H2K   3971   3.925   4.311   0.289
    1HEX  H2M   3972   4.068   4.393   0.349
    1HEX  H2N   3973   3.851   4.231   0.546
    1STR  S00   3974   4.811   4.212  16.758
    1STR  S0E   3975   4.176   4.651  16.756
    1STR  S0M   3976   3.789   3.813  16.799
    1STR  S0X   3977   4.922   4.297   0.277
    1STR  S14   3978   4.529   4.462   0.685
    1STR  S1B   3979   3.938   4.331   0.528
    1HEX  C01   3980   4.535   4.779   4.014
    1HEX  C02   3981   4.569   4.632   3.963
    1HEX  C03   3982   4.474   4.514   3.926
    1HEX  O04   3983   4.525   4.403   3.911
    1HEX  O05   3984   4.343   4.536   3.910
    1HEX  C06   3985   4.252   4.424   3.886
    1HEX  C07   3986   4.180   4.371   4.015
    1HEX  C08   3987   4.189   4.480   4.124
    1HEX  O09   3988   4.143   4.604   4.073
    1HEX  C0A   3989   4.080   4.688   4.152
    1HEX  O0B   3990   4.021   4.659   4.256
    1HEX  C0C   3991   4.094   4.832   4.105
    1HEX  C0D   3992   4.109   4.925   4.225
    1HEX  C0F   3993   4.026   4.357   3.993
    1HEX  O0G   3994   3.981   4.233   3.940
    1HEX  C0H   3995   3.915   4.231   3.824
    1HEX  O0I   3996   3.925   4.315   3.734
    1HEX  C0J   3997   3.817   4.115   3.814
    1HEX  C0K   3998   3.703   4.134   3.916
    1HEX  C0N   3999   4.228   4.229   4.062
    1HEX  O0O   4000   4.362   4.197   4.104
    1HEX  C0P   4001   4.440   4.274   4.197
    1HEX  C0Q   4002   4.414   4.265   4.351
    1HEX  C0R   4003   4.465   4.130   4.407
    1HEX  O0S   4004   4.607   4.114   4.390
    1HEX  C0T   4005   4.692   4.120   4.496
    1HEX  O0U   4006   4.660   4.141   4.613
    1HEX  C0V   4007   4.837   4.089   4.459
    1HEX  C0W   4008   4.932   4.211   4.459
    1HEX  C0Y   4009   4.495   4.380   4.415
    1HEX  O0Z   4010   4.469   4.381   4.554
    1HEX  C10   4011   4.555   4.434   4.639
    1HEX  O11   4012   4.659   4.492   4.610
    1HEX  C12   4013   4.509   4.412   4.782
    1HEX  C13   4014   4.615   4.452   4.884
    1HEX  C15   4015   4.265   4.287   4.389
    1HEX  O16   4016   4.230   4.261   4.524
    1HEX  C17   4017   4.148   4.161   4.557
    1HEX  O18   4018   4.111   4.070   4.483
    1HEX  C19   4019   4.095   4.174   4.699
    1HEX  C1A   4020   4.013   4.302   4.713
    1HEX  H1D   4021   4.628   4.835   4.026
    1HEX  H1E   4022   4.477   4.831   3.938
    1HEX  H1F   4023   4.631   4.587   4.042
    1HEX  H1G   4024   4.636   4.639   3.878
    1HEX  H1H   4025   4.300   4.342   3.832
    1HEX  H1I   4026   4.177   4.460   3.815
    1HEX  H1J   4027   4.290   4.499   4.156
    1HEX  H1K   4028   4.131   4.450   4.211
    1HEX  H1M   4029   4.009   4.859   4.042
    1HEX  H1N   4030   4.183   4.837   4.042
    1HEX  H1O   4031   4.187   4.886   4.291
    1HEX  H1P   4032   4.017   4.924   4.283
    1HEX  H1Q   4033   4.285   5.038   4.148
    1HEX  H1R   4034   3.985   4.443   3.939
    1HEX  H1S   4035   3.974   4.362   4.089
    1HEX  H1T   4036   3.870   4.021   3.829
    1HEX  H1U   4037   3.777   4.115   3.713
    1HEX  H1V   4038   3.609   4.087   3.885
    1HEX  H1W   4039   3.728   4.096   4.015
    1HEX  H1Y   4040   4.215   4.162   3.977
    1HEX  H1Z   4041   4.157   4.186   4.132
    1HEX  H20   4042   4.450   4.376   4.161
    1HEX  H21   4043   4.541   4.236   4.181
    1HEX  H22   4044   4.414   4.048   4.356
    1HEX  H23   4045   4.438   4.120   4.512
    1HEX  H24   4046   4.837   4.042   4.360
    1HEX  H25   4047   4.873   4.015   4.529
    1HEX  H26   4048   4.890   4.297   4.407
    1HEX  H27   4049   5.028   4.188   4.413
    1HEX  H29   4050   4.467   4.478   4.374
    1HEX  H2A   4051   4.602   4.368   4.396
    1HEX  H2B   4052   4.484   4.306   4.793
    1HEX  H2C   4053   4.417   4.468   4.795
    1HEX  H2D   4054   4.647   4.556   4.867
    1HEX  H2E   4055   4.704   4.390   4.871
    1HEX  H2F   4056   4.426   4.541   5.059
    1HEX  H2G   4057   4.198   4.230   4.325
    1HEX  H2H   4058   4.240   4.392   4.376
    1HEX  H2I   4059   4.180   4.175   4.768
    1HEX  H2J   4060   4.035   4.087   4.722
    1HEX  H2K   4061   3.933   4.305   4.638
    1HEX  H2M   4062   4.075   4.391   4.697
    1HEX  H2N   4063   3.855   4.233   4.903
    1STR  S00   4064   4.494   4.953   4.075
    1STR  S0E   4065   4.175   5.092   4.202
    1STR  S0M   4066   3.566   4.208   4.011
    1STR  S0X   4067   5.106   4.250   4.415
    1STR  S14   4068   4.530   4.459   5.045
    1STR  S1B   4069   3.944   4.329   4.879
    1HEX  C01   4070   4.633   4.207   8.032
    1HEX  C02   4071   4.569   4.211   8.171
    1HEX  C03   4072   4.418   4.214   8.158
    1HEX  O04   4073   4.355   4.117   8.116
    1HEX  O05   4074   4.365   4.333   8.194
    1HEX  C06   4075   4.224   4.350   8.199
    1HEX  C07   4076   4.173   4.340   8.344
    1HEX  C08   4077   4.224   4.464   8.421
    1HEX  O09   4078   4.165   4.587   8.383
    1HEX  C0A   4079   4.096   4.657   8.475
    1HEX  O0B   4080   4.040   4.610   8.573
    1HEX  C0C   4081   4.100   4.807   8.448
    1HEX  C0D   4082   4.102   4.886   8.580
    1HEX  C0F   4083   4.018   4.343   8.348
    1HEX  O0G   4084   3.967   4.222   8.291
    1HEX  C0H   4085   3.924   4.218   8.165
    1HEX  O0I   4086   3.900   4.316   8.094
    1HEX  C0J   4087   3.916   4.077   8.110
    1HEX  C0K   4088   3.799   4.000   8.171
    1HEX  C0N   4089   4.214   4.203   8.409
    1HEX  O0O   4090   4.347   4.177   8.458
    1HEX  C0P   4091   4.412   4.256   8.557
    1HEX  C0Q   4092   4.365   4.254   8.706
    1HEX  C0R   4093   4.433   4.134   8.778
    1HEX  O0S   4094   4.575   4.137   8.771
    1HEX  C0T   4095   4.647   4.090   8.875
    1HEX  O0U   4096   4.603   4.063   8.986
    1HEX  C0V   4097   4.794   4.072   8.842
    1HEX  C0W   4098   4.870   4.204   8.845
    1HEX  C0Y   4099   4.404   4.389   8.775
    1HEX  O0Z   4100   4.287   4.459   8.820
    1HEX  C10   4101   4.277   4.491   8.950
    1HEX  O11   4102   4.374   4.505   9.024
    1HEX  C12   4103   4.135   4.501   9.010
    1HEX  C13   4104   4.000   4.506   8.928
    1HEX  C15   4105   4.212   4.230   8.723
    1HEX  O16   4106   4.172   4.213   8.859
    1HEX  C17   4107   4.119   4.097   8.901
    1HEX  O18   4108   4.105   3.995   8.834
    1HEX  C19   4109   4.073   4.103   9.045
    1HEX  C1A   4110   3.939   4.177   9.056
    1HEX  H1C   4111   4.847   4.209   7.910
    1HEX  H1D   4112   4.600   4.118   7.978
    1HEX  H1E   4113   4.601   4.293   7.974
    1HEX  H1F   4114   4.602   4.298   8.227
    1HEX  H1G   4115   4.596   4.123   8.229
    1HEX  H1H   4116   4.175   4.277   8.133
    1HEX  H1I   4117   4.199   4.447   8.156
    1HEX  H1J   4118   4.329   4.481   8.396
    1HEX  H1K   4119   4.220   4.450   8.529
    1HEX  H1M   4120   4.017   4.836   8.385
    1HEX  H1N   4121   4.191   4.827   8.392
    1HEX  H1O   4122   4.178   4.846   8.647
    1HEX  H1P   4123   4.006   4.876   8.631
    1HEX  H1Q   4124   4.297   5.082   8.520
    1HEX  H1R   4125   3.977   4.431   8.298
    1HEX  H1S   4126   3.982   4.349   8.451
    1HEX  H1T   4127   4.011   4.026   8.132
    1HEX  H1U   4128   3.908   4.083   8.002
    1HEX  H1V   4129   3.705   4.054   8.155
    1HEX  H1W   4130   3.811   3.989   8.279
    1HEX  H1X   4131   3.788   3.842   7.954
    1HEX  H1Y   4132   4.201   4.127   8.332
    1HEX  H1Z   4133   4.138   4.172   8.479
    1HEX  H20   4134   4.428   4.357   8.521
    1HEX  H21   4135   4.515   4.220   8.554
    1HEX  H22   4136   4.398   4.040   8.735
    1HEX  H23   4137   4.400   4.132   8.882
    1HEX  H24   4138   4.801   4.025   8.743
    1HEX  H25   4139   4.837   4.002   8.914
    1HEX  H26   4140   4.823   4.278   8.780
    1HEX  H27   4141   4.973   4.191   8.811
    1HEX  H28   4142   4.785   4.330   9.045
    1HEX  H29   4143   4.459   4.456   8.709
    1HEX  H2A   4144   4.475   4.369   8.855
    1HEX  H2B   4145   4.140   4.583   9.082
    1HEX  H2C   4146   4.131   4.412   9.071
    1HEX  H2D   4147   3.997   4.597   8.867
    1HEX  H2E   4148   3.916   4.512   8.997
    1HEX  H2G   4149   4.185   4.140   8.669
    1HEX  H2H   4150   4.153   4.312   8.682
    1HEX  H2I   4151   4.151   4.152   9.103
    1HEX  H2J   4152   4.064   4.001   9.084
    1HEX  H2K   4153   3.858   4.115   9.019
    1HEX  H2M   4154   3.940   4.264   8.991
    1HEX  H2N   4155   3.873   4.174   9.277
    1STR  S00   4156   4.814   4.215   8.039
    1STR  S0E   4157   4.175   5.051   8.562
    1STR  S0M   4158   3.801   3.839   8.087
    1STR  S0X   4159   4.904   4.310   8.988
    1STR  S14   4160   3.840   4.510   8.829
    1STR  S1B   4161   3.914   4.278   9.205
    1HEX  C01   4162   4.470   4.781  12.675
    1HEX  C02   4163   4.526   4.636  12.648
    1HEX  C03   4164   4.445   4.510  12.611
    1HEX  O04   4165   4.505   4.404  12.596
    1HEX  O05   4166   4.312   4.522  12.600
    1HEX  C06   4167   4.230   4.404  12.591
    1HEX  C07   4168   4.173   4.358  12.730
    1HEX  C08   4169   4.183   4.474  12.830
    1HEX  O09   4170   4.127   4.594  12.780
    1HEX  C0A   4171   4.048   4.666  12.859
    1HEX  O0B   4172   3.976   4.622  12.949
    1HEX  C0C   4173   4.060   4.814  12.830
    1HEX  C0D   4174   4.081   4.894  12.960
    1HEX  C0F   4175   4.021   4.328  12.718
    1HEX  O0G   4176   3.997   4.208  12.646
    1HEX  C0H   4177   3.934   4.210  12.529
    1HEX  O0I   4178   3.889   4.309  12.471
    1HEX  C0J   4179   3.921   4.071  12.468
    1HEX  C0K   4180   3.801   3.996  12.526
    1HEX  C0N   4181   4.238   4.226  12.786
    1HEX  O0O   4182   4.376   4.217  12.828
    1HEX  C0P   4183   4.437   4.291  12.936
    1HEX  C0Q   4184   4.398   4.268  13.086
    1HEX  C0R   4185   4.428   4.122  13.127
    1HEX  O0S   4186   4.567   4.094  13.120
    1HEX  C0T   4187   4.640   4.081  13.233
    1HEX  O0U   4188   4.598   4.086  13.348
    1HEX  C0V   4189   4.788   4.060  13.204
    1HEX  C0W   4190   4.867   4.191  13.215
    1HEX  C0Y   4191   4.484   4.365  13.174
    1HEX  O0Z   4192   4.443   4.351  13.309
    1HEX  C10   4193   4.513   4.398  13.412
    1HEX  O11   4194   4.622   4.456  13.405
    1HEX  C12   4195   4.439   4.373  13.542
    1HEX  C13   4196   4.514   4.412  13.671
    1HEX  C15   4197   4.249   4.305  13.113
    1HEX  O16   4198   4.202   4.281  13.245
    1HEX  C17   4199   4.134   4.171  13.277
    1HEX  O18   4200   4.108   4.077  13.201
    1HEX  C19   4201   4.084   4.175  13.420
    1HEX  C1A   4202   4.002   4.302  13.444
    1HEX  H1D   4203   4.556   4.848  12.682
    1HEX  H1E   4204   4.411   4.815  12.590
    1HEX  H1F   4205   4.580   4.605  12.737
    1HEX  H1G   4206   4.603   4.641  12.570
    1HEX  H1H   4207   4.279   4.321  12.540
    1HEX  H1I   4208   4.147   4.429  12.525
    1HEX  H1J   4209   4.286   4.500  12.850
    1HEX  H1K   4210   4.137   4.446  12.923
    1HEX  H1M   4211   3.971   4.848  12.777
    1HEX  H1N   4212   4.145   4.830  12.764
    1HEX  H1O   4213   4.171   4.857  13.010
    1HEX  H1P   4214   3.999   4.873  13.029
    1HEX  H1Q   4215   4.277   5.049  12.967
    1HEX  H1R   4216   3.967   4.414  12.676
    1HEX  H1S   4217   3.977   4.315  12.817
    1HEX  H1T   4218   4.014   4.017  12.487
    1HEX  H1U   4219   3.911   4.082  12.360
    1HEX  H1V   4220   3.709   4.053  12.510
    1HEX  H1W   4221   3.812   3.983  12.634
    1HEX  H1X   4222   3.789   3.841  12.313
    1HEX  H1Y   4223   4.234   4.153  12.705
    1HEX  H1Z   4224   4.174   4.178  12.860
    1HEX  H20   4225   4.446   4.396  12.911
    1HEX  H21   4226   4.541   4.258  12.928
    1HEX  H22   4227   4.374   4.052  13.061
    1HEX  H23   4228   4.390   4.102  13.227
    1HEX  H24   4229   4.799   4.016  13.105
    1HEX  H25   4230   4.827   3.988  13.276
    1HEX  H26   4231   4.823   4.268  13.152
    1HEX  H27   4232   4.971   4.177  13.183
    1HEX  H28   4233   4.793   4.355  13.390
    1HEX  H29   4234   4.471   4.469  13.144
    1HEX  H2A   4235   4.591   4.343  13.164
    1HEX  H2B   4236   4.414   4.267  13.545
    1HEX  H2C   4237   4.345   4.428  13.537
    1HEX  H2D   4238   4.547   4.515  13.667
    1HEX  H2E   4239   4.603   4.350  13.684
    1HEX  H2G   4240   4.180   4.257  13.045
    1HEX  H2H   4241   4.238   4.412  13.101
    1HEX  H2I   4242   4.170   4.171  13.487
    1HEX  H2J   4243   4.025   4.086  13.440
    1HEX  H2K   4244   3.923   4.311  13.370
    1HEX  H2M   4245   4.065   4.391  13.434
    1HEX  H2N   4246   3.854   4.231  13.626
    1STR  S00   4247   4.402   4.953  12.709
    1STR  S0E   4248   4.217   4.966  13.055
    1STR  S0M   4249   3.802   3.834  12.445
    1STR  S0X   4250   4.911   4.308  13.346
    1STR  S14   4251   4.435   4.389  13.834
    1STR  S1B   4252   3.940   4.331  13.612
    1HEX  C01   4253   4.632   8.567  16.753
    1HEX  C02   4254   4.571   8.569  16.893
    1HEX  C03   4255   4.420   8.570  16.884
    1HEX  O04   4256   4.358   8.470  16.846
    1HEX  O05   4257   4.367   8.688  16.918
    1HEX  C06   4258   4.225   8.703  16.924
    1HEX  C07   4259   4.176   8.697  17.071
    1HEX  C08   4260   4.225   8.825  17.141
    1HEX  O09   4261   4.161   8.946  17.105
    1HEX  C0A   4262   4.098   9.017  17.199
    1HEX  O0B   4263   4.050   8.971  17.303
    1HEX  C0C   4264   4.097   9.166  17.169
    1HEX  C0D   4265   4.099   9.250  17.298
    1HEX  C0F   4266   4.020   8.697  17.074
    1HEX  O0G   4267   3.972   8.576  17.016
    1HEX  C0H   4268   3.926   8.575  16.890
    1HEX  O0I   4269   3.898   8.674  16.822
    1HEX  C0J   4270   3.918   8.435  16.832
    1HEX  C0K   4271   3.799   8.358  16.890
    1HEX  C0N   4272   4.222   8.565  17.143
    1HEX  O0O   4273   4.358   8.545  17.184
    1HEX  C0P   4274   4.427   8.627  17.279
    1HEX  C0Q   4275   4.392   8.621  17.432
    1HEX  C0R   4276   4.426   8.479   0.045
    1HEX  O0S   4277   4.566   8.452   0.038
    1HEX  C0T   4278   4.640   8.448   0.151
    1HEX  O0U   4279   4.599   8.461   0.266
    1HEX  C0V   4280   4.788   8.424   0.123
    1HEX  C0W   4281   4.870   8.553   0.136
    1HEX  C0Y   4282   4.484   8.726   0.059
    1HEX  O0Z   4283   4.460   8.726   0.199
    1HEX  C10   4284   4.548   8.780   0.281
    1HEX  O11   4285   4.652   8.837   0.248
    1HEX  C12   4286   4.505   8.764   0.426
    1HEX  C13   4287   4.613   8.808   0.525
    1HEX  C15   4288   4.245   8.661   0.025
    1HEX  O16   4289   4.207   8.639   0.160
    1HEX  C17   4290   4.136   8.531   0.195
    1HEX  O18   4291   4.106   8.438   0.121
    1HEX  C19   4292   4.089   8.538   0.339
    1HEX  C1A   4293   4.006   8.666   0.361
    1HEX  H1C   4294   4.847   8.570  16.629
    1HEX  H1D   4295   4.598   8.478  16.699
    1HEX  H1E   4296   4.598   8.653  16.695
    1HEX  H1F   4297   4.604   8.657  16.949
    1HEX  H1G   4298   4.602   8.482  16.950
    1HEX  H1H   4299   4.177   8.628  16.862
    1HEX  H1I   4300   4.198   8.798  16.879
    1HEX  H1J   4301   4.329   8.842  17.114
    1HEX  H1K   4302   4.222   8.811  17.248
    1HEX  H1M   4303   4.012   9.192  17.106
    1HEX  H1N   4304   4.187   9.187  17.111
    1HEX  H1O   4305   4.176   9.213  17.366
    1HEX  H1P   4306   4.004   9.240  17.350
    1HEX  H1Q   4307   4.303   9.445  17.239
    1HEX  H1R   4308   3.979   8.785  17.025
    1HEX  H1S   4309   3.984   8.702  17.177
    1HEX  H1T   4310   4.012   8.383  16.853
    1HEX  H1U   4311   3.910   8.443  16.724
    1HEX  H1V   4312   3.706   8.412  16.874
    1HEX  H1W   4313   3.810   8.346  16.998
    1HEX  H1X   4314   3.788   8.201  16.674
    1HEX  H1Y   4315   4.205   8.484  17.071
    1HEX  H1Z   4316   4.153   8.534  17.221
    1HEX  H20   4317   4.437   8.729  17.246
    1HEX  H21   4318   4.529   8.591  17.270
    1HEX  H22   4319   4.372   8.403  17.428
    1HEX  H23   4320   4.391   8.468   0.148
    1HEX  H24   4321   4.798   8.382   0.023
    1HEX  H25   4322   4.825   8.350   0.193
    1HEX  H26   4323   4.828   8.633   0.075
    1HEX  H27   4324   4.973   8.537   0.104
    1HEX  H28   4325   4.795   8.708   0.287
    1HEX  H29   4326   4.465   8.826   0.022
    1HEX  H2A   4327   4.589   8.705   0.039
    1HEX  H2B   4328   4.480   8.659   0.441
    1HEX  H2C   4329   4.413   8.821   0.438
    1HEX  H2D   4330   4.645   8.910   0.503
    1HEX  H2E   4331   4.702   8.745   0.513
    1HEX  H2F   4332   4.424   8.904   0.701
    1HEX  H2G   4333   4.172   8.613  17.402
    1HEX  H2H   4334   4.231   8.768   0.011
    1HEX  H2I   4335   4.176   8.537   0.404
    1HEX  H2J   4336   4.030   8.449   0.361
    1HEX  H2K   4337   3.926   8.672   0.288
    1HEX  H2M   4338   4.068   8.754   0.347
    1HEX  H2N   4339   3.853   8.592   0.546
    1STR  S00   4340   4.813   8.576  16.759
    1STR  S0E   4341   4.181   9.411  17.281
    1STR  S0M   4342   3.800   8.197  16.807
    1STR  S0X   4343   4.919   8.657   0.276
    1STR  S14   4344   4.529   8.823   0.684
    1STR  S1B   4345   3.939   8.692   0.527
    1HEX  C01   4346   4.634   8.567   3.673
    1HEX  C02   4347   4.573   8.571   3.813
    1HEX  C03   4348   4.421   8.573   3.804
    1HEX  O04   4349   4.359   8.474   3.764
    1HEX  O05   4350   4.368   8.691   3.841
    1HEX  C06   4351   4.227   8.706   3.849
    1HEX  C07   4352   4.179   8.698   3.996
    1HEX  C08   4353   4.225   8.827   4.067
    1HEX  O09   4354   4.159   8.946   4.028
    1HEX  C0A   4355   4.095   9.019   4.120
    1HEX  O0B   4356   4.046   8.975   4.224
    1HEX  C0C   4357   4.096   9.168   4.089
    1HEX  C0D   4358   4.099   9.252   4.217
    1HEX  C0F   4359   4.024   8.694   4.001
    1HEX  O0G   4360   3.978   8.573   3.940
    1HEX  C0H   4361   3.928   8.574   3.815
    1HEX  O0I   4362   3.898   8.674   3.750
    1HEX  C0J   4363   3.920   8.435   3.755
    1HEX  C0K   4364   3.800   8.358   3.813
    1HEX  C0N   4365   4.230   8.567   4.066
    1HEX  O0O   4366   4.369   8.550   4.104
    1HEX  C0P   4367   4.440   8.637   4.193
    1HEX  C0Q   4368   4.417   8.632   4.347
    1HEX  C0R   4369   4.481   8.501   4.402
    1HEX  O0S   4370   4.624   8.495   4.387
    1HEX  C0T   4371   4.706   8.494   4.496
    1HEX  O0U   4372   4.669   8.506   4.613
    1HEX  C0V   4373   4.852   8.468   4.462
    1HEX  C0W   4374   4.945   8.592   4.475
    1HEX  C0Y   4375   4.494   8.751   4.409
    1HEX  O0Z   4376   4.467   8.749   4.548
    1HEX  C10   4377   4.555   8.797   4.635
    1HEX  O11   4378   4.660   8.854   4.607
    1HEX  C12   4379   4.509   8.770   4.777
    1HEX  C13   4380   4.615   8.809   4.881
    1HEX  C15   4381   4.267   8.649   4.391
    1HEX  O16   4382   4.237   8.565   4.501
    1HEX  C17   4383   4.171   8.449   4.483
    1HEX  O18   4384   4.069   8.436   4.414
    1HEX  C19   4385   4.244   8.336   4.557
    1HEX  C1A   4386   4.191   8.206   4.621
    1HEX  H1C   4387   4.845   8.570   3.549
    1HEX  H1D   4388   4.599   8.479   3.620
    1HEX  H1E   4389   4.600   8.654   3.615
    1HEX  H1F   4390   4.606   8.658   3.869
    1HEX  H1G   4391   4.602   8.483   3.871
    1HEX  H1H   4392   4.178   8.631   3.787
    1HEX  H1I   4393   4.199   8.802   3.805
    1HEX  H1J   4394   4.328   8.849   4.038
    1HEX  H1K   4395   4.224   8.815   4.176
    1HEX  H1M   4396   4.011   9.194   4.026
    1HEX  H1N   4397   4.186   9.187   4.031
    1HEX  H1O   4398   4.176   9.215   4.286
    1HEX  H1P   4399   4.004   9.243   4.270
    1HEX  H1Q   4400   4.304   9.444   4.159
    1HEX  H1R   4401   3.980   8.782   3.954
    1HEX  H1S   4402   3.988   8.696   4.104
    1HEX  H1T   4403   4.013   8.383   3.775
    1HEX  H1U   4404   3.911   8.445   3.647
    1HEX  H1V   4405   3.708   8.413   3.796
    1HEX  H1W   4406   3.812   8.345   3.921
    1HEX  H1X   4407   3.787   8.203   3.592
    1HEX  H1Y   4408   4.214   8.486   3.994
    1HEX  H1Z   4409   4.164   8.533   4.145
    1HEX  H20   4410   4.445   8.739   4.157
    1HEX  H21   4411   4.544   8.606   4.177
    1HEX  H22   4412   4.438   8.414   4.351
    1HEX  H23   4413   4.457   8.489   4.507
    1HEX  H24   4414   4.857   8.426   4.362
    1HEX  H25   4415   4.887   8.391   4.530
    1HEX  H26   4416   4.900   8.681   4.430
    1HEX  H27   4417   5.042   8.576   4.429
    1HEX  H29   4418   4.462   8.847   4.369
    1HEX  H2A   4419   4.601   8.743   4.390
    1HEX  H2B   4420   4.485   8.664   4.786
    1HEX  H2C   4421   4.417   8.826   4.792
    1HEX  H2D   4422   4.647   8.912   4.866
    1HEX  H2E   4423   4.704   8.747   4.867
    1HEX  H2F   4424   4.426   8.904   5.056
    1HEX  H2G   4425   4.193   8.634   4.313
    1HEX  H2H   4426   4.247   8.752   4.423
    1HEX  H2I   4427   4.190   8.386   4.637
    1HEX  H2J   4428   4.216   8.284   4.465
    1HEX  H2K   4429   4.084   8.208   4.641
    1HEX  H2M   4430   4.243   8.185   4.715
    1STR  S00   4431   4.815   8.574   3.679
    1STR  S0E   4432   4.181   9.413   4.201
    1STR  S0M   4433   3.800   8.199   3.725
    1STR  S0X   4434   5.116   8.652   4.441
    1STR  S14   4435   4.528   8.820   5.041
    1STR  S1B   4436   4.290   8.056   4.585
    1HEX  C01   4437   4.632   8.567   8.033
    1HEX  C02   4438   4.571   8.569   8.173
    1HEX  C03   4439   4.420   8.570   8.164
    1HEX  O04   4440   4.358   8.470   8.126
    1HEX  O05   4441   4.367   8.688   8.198
    1HEX  C06   4442   4.225   8.703   8.204
    1HEX  C07   4443   4.176   8.697   8.351
    1HEX  C08   4444   4.225   8.825   8.421
    1HEX  O09   4445   4.161   8.946   8.385
    1HEX  C0A   4446   4.098   9.017   8.479
    1HEX  O0B   4447   4.050   8.971   8.583
    1HEX  C0C   4448   4.097   9.166   8.449
    1HEX  C0D   4449   4.099   9.250   8.578
    1HEX  C0F   4450   4.020   8.697   8.354
    1HEX  O0G   4451   3.972   8.576   8.296
    1HEX  C0H   4452   3.926   8.575   8.170
    1HEX  O0I   4453   3.898   8.674   8.102
    1HEX  C0J   4454   3.918   8.435   8.112
    1HEX  C0K   4455   3.799   8.358   8.170
    1HEX  C0N   4456   4.222   8.565   8.423
    1HEX  O0O   4457   4.358   8.545   8.464
    1HEX  C0P   4458   4.427   8.627   8.559
    1HEX  C0Q   4459   4.392   8.621   8.712
    1HEX  C0R   4460   4.426   8.479   8.765
    1HEX  O0S   4461   4.566   8.452   8.758
    1HEX  C0T   4462   4.640   8.448   8.871
    1HEX  O0U   4463   4.599   8.461   8.986
    1HEX  C0V   4464   4.788   8.424   8.843
    1HEX  C0W   4465   4.870   8.553   8.856
    1HEX  C0Y   4466   4.484   8.726   8.779
    1HEX  O0Z   4467   4.460   8.726   8.919
    1HEX  C10   4468   4.548   8.780   9.001
    1HEX  O11   4469   4.652   8.837   8.968
    1HEX  C12   4470   4.505   8.764   9.146
    1HEX  C13   4471   4.613   8.808   9.245
    1HEX  C15   4472   4.245   8.661   8.745
    1HEX  O16   4473   4.207   8.639   8.880
    1HEX  C17   4474   4.136   8.531   8.915
    1HEX  O18   4475   4.106   8.438   8.841
    1HEX  C19   4476   4.089   8.538   9.059
    1HEX  C1A   4477   4.006   8.666   9.081
    1HEX  H1C   4478   4.847   8.570   7.909
    1HEX  H1D   4479   4.598   8.478   7.979
    1HEX  H1E   4480   4.598   8.653   7.975
    1HEX  H1F   4481   4.604   8.657   8.229
    1HEX  H1G   4482   4.602   8.482   8.230
    1HEX  H1H   4483   4.177   8.628   8.142
    1HEX  H1I   4484   4.198   8.798   8.159
    1HEX  H1J   4485   4.329   8.842   8.394
    1HEX  H1K   4486   4.222   8.811   8.528
    1HEX  H1M   4487   4.012   9.192   8.386
    1HEX  H1N   4488   4.187   9.187   8.391
    1HEX  H1O   4489   4.176   9.213   8.646
    1HEX  H1P   4490   4.004   9.240   8.630
    1HEX  H1Q   4491   4.303   9.445   8.519
    1HEX  H1R   4492   3.979   8.785   8.305
    1HEX  H1S   4493   3.984   8.702   8.457
    1HEX  H1T   4494   4.012   8.383   8.133
    1HEX  H1U   4495   3.910   8.443   8.004
    1HEX  H1V   4496   3.706   8.412   8.154
    1HEX  H1W   4497   3.810   8.346   8.278
    1HEX  H1X   4498   3.788   8.201   7.954
    1HEX  H1Y   4499   4.205   8.484   8.351
    1HEX  H1Z   4500   4.153   8.534   8.501
    1HEX  H20   4501   4.437   8.729   8.526
    1HEX  H21   4502   4.529   8.591   8.550
    1HEX  H22   4503   4.372   8.403   8.708
    1HEX  H23   4504   4.391   8.468   8.868
    1HEX  H24   4505   4.798   8.382   8.743
    1HEX  H25   4506   4.825   8.350   8.913
    1HEX  H26   4507   4.828   8.633   8.795
    1HEX  H27   4508   4.973   8.537   8.824
    1HEX  H28   4509   4.795   8.708   9.007
    1HEX  H29   4510   4.465   8.826   8.742
    1HEX  H2A   4511   4.589   8.705   8.759
    1HEX  H2B   4512   4.480   8.659   9.161
    1HEX  H2C   4513   4.413   8.821   9.158
    1HEX  H2D   4514   4.645   8.910   9.223
    1HEX  H2E   4515   4.702   8.745   9.233
    1HEX  H2F   4516   4.424   8.904   9.421
    1HEX  H2G   4517   4.172   8.613   8.682
    1HEX  H2H   4518   4.231   8.768   8.731
    1HEX  H2I   4519   4.176   8.537   9.124
    1HEX  H2J   4520   4.030   8.449   9.081
    1HEX  H2K   4521   3.926   8.672   9.008
    1HEX  H2M   4522   4.068   8.754   9.067
    1HEX  H2N   4523   3.853   8.592   9.266
    1STR  S00   4524   4.813   8.576   8.039
    1STR  S0E   4525   4.181   9.411   8.561
    1STR  S0M   4526   3.800   8.196   8.087
    1STR  S0X   4527   4.919   8.657   8.996
    1STR  S14   4528   4.528   8.822   9.404
    1STR  S1B   4529   3.939   8.692   9.247
    1HEX  C01   4530   4.630   8.566  12.395
    1HEX  C02   4531   4.566   8.568  12.534
    1HEX  C03   4532   4.415   8.565  12.522
    1HEX  O04   4533   4.356   8.463  12.487
    1HEX  O05   4534   4.358   8.683  12.551
    1HEX  C06   4535   4.217   8.695  12.554
    1HEX  C07   4536   4.165   8.707  12.700
    1HEX  C08   4537   4.217   8.841  12.755
    1HEX  O09   4538   4.147   8.960  12.722
    1HEX  C0A   4539   4.096   9.034  12.824
    1HEX  O0B   4540   4.059   8.990  12.932
    1HEX  C0C   4541   4.099   9.183  12.795
    1HEX  C0D   4542   4.105   9.267  12.924
    1HEX  C0F   4543   4.010   8.706  12.702
    1HEX  O0G   4544   3.963   8.582  12.650
    1HEX  C0H   4545   3.919   8.574  12.523
    1HEX  O0I   4546   3.889   8.669  12.451
    1HEX  C0J   4547   3.915   8.431  12.471
    1HEX  C0K   4548   3.798   8.353  12.530
    1HEX  C0N   4549   4.210   8.588  12.792
    1HEX  O0O   4550   4.348   8.572  12.825
    1HEX  C0P   4551   4.418   8.655  12.919
    1HEX  C0Q   4552   4.386   8.649  13.073
    1HEX  C0R   4553   4.384   8.501  13.118
    1HEX  O0S   4554   4.502   8.431  13.079
    1HEX  C0T   4555   4.588   8.385  13.171
    1HEX  O0U   4556   4.587   8.409  13.292
    1HEX  C0V   4557   4.695   8.295  13.111
    1HEX  C0W   4558   4.668   8.147  13.146
    1HEX  C0Y   4559   4.504   8.722  13.141
    1HEX  O0Z   4560   4.491   8.707  13.280
    1HEX  C10   4561   4.567   8.778  13.362
    1HEX  O11   4562   4.659   8.853  13.329
    1HEX  C12   4563   4.521   8.761  13.505
    1HEX  C13   4564   4.625   8.810  13.606
    1HEX  C15   4565   4.253   8.723  13.112
    1HEX  O16   4566   4.245   8.792  13.238
    1HEX  C17   4567   4.131   8.863  13.265
    1HEX  O18   4568   4.023   8.842  13.212
    1HEX  C19   4569   4.147   8.973  13.371
    1HEX  C1A   4570   4.174   9.117  13.316
    1HEX  H1C   4571   4.846   8.570  12.269
    1HEX  H1D   4572   4.599   8.477  12.341
    1HEX  H1E   4573   4.597   8.652  12.337
    1HEX  H1F   4574   4.596   8.657  12.590
    1HEX  H1G   4575   4.597   8.481  12.593
    1HEX  H1H   4576   4.170   8.613  12.501
    1HEX  H1I   4577   4.188   8.785  12.498
    1HEX  H1J   4578   4.321   8.857  12.725
    1HEX  H1K   4579   4.219   8.831  12.860
    1HEX  H1M   4580   4.012   9.210  12.735
    1HEX  H1N   4581   4.187   9.202  12.735
    1HEX  H1O   4582   4.184   9.231  12.991
    1HEX  H1P   4583   4.012   9.257  12.981
    1HEX  H1Q   4584   4.291   9.420  12.867
    1HEX  H1R   4585   3.969   8.792  12.648
    1HEX  H1S   4586   3.973   8.717  12.804
    1HEX  H1T   4587   4.010   8.383  12.495
    1HEX  H1U   4588   3.909   8.436  12.363
    1HEX  H1V   4589   3.704   8.407  12.512
    1HEX  H1W   4590   3.809   8.344  12.638
    1HEX  H1X   4591   3.788   8.202  12.318
    1HEX  H1Y   4592   4.184   8.496  12.740
    1HEX  H1Z   4593   4.151   8.584  12.884
    1HEX  H20   4594   4.425   8.758  12.885
    1HEX  H21   4595   4.520   8.619  12.907
    1HEX  H22   4596   4.300   8.449  13.071
    1HEX  H23   4597   4.366   8.494  13.226
    1HEX  H24   4598   4.792   8.327  13.149
    1HEX  H25   4599   4.697   8.307  13.003
    1HEX  H26   4600   4.644   8.137  13.252
    1HEX  H27   4601   4.756   8.085  13.127
    1HEX  H29   4602   4.504   8.828  13.115
    1HEX  H2A   4603   4.601   8.681  13.111
    1HEX  H2B   4604   4.497   8.656  13.521
    1HEX  H2C   4605   4.428   8.817  13.513
    1HEX  H2D   4606   4.654   8.913  13.584
    1HEX  H2E   4607   4.716   8.751  13.595
    1HEX  H2F   4608   4.424   8.905  13.779
    1HEX  H2G   4609   4.165   8.660  13.097
    1HEX  H2H   4610   4.241   8.810  13.049
    1HEX  H2I   4611   4.223   8.942  13.442
    1HEX  H2J   4612   4.053   8.973  13.427
    1HEX  H2K   4613   4.094   9.147  13.247
    1HEX  H2M   4614   4.267   9.121  13.261
    1STR  S00   4615   4.811   8.577  12.398
    1STR  S0E   4616   4.161   9.436  12.890
    1STR  S0M   4617   3.801   8.190  12.451
    1STR  S0X   4618   4.554   8.011  13.106
    1STR  S14   4619   4.532   8.828  13.761
    1STR  S1B   4620   4.199   9.302  13.304
    1HEX  C01   4621   4.513  13.476  17.070
    1HEX  C02   4622   4.554  13.329  17.028
    1HEX  C03   4623   4.460  13.213  16.987
    1HEX  O04   4624   4.510  13.103  16.965
    1HEX  O05   4625   4.329  13.238  16.978
    1HEX  C06   4626   4.235  13.130  16.957
    1HEX  C07   4627   4.168  13.079  17.089
    1HEX  C08   4628   4.173  13.191  17.193
    1HEX  O09   4629   4.124  13.314  17.141
    1HEX  C0A   4630   4.072  13.402  17.225
    1HEX  O0B   4631   4.018  13.375  17.332
    1HEX  C0C   4632   4.093  13.545  17.180
    1HEX  C0D   4633   4.110  13.638  17.301
    1HEX  C0F   4634   4.015  13.056  17.068
    1HEX  O0G   4635   3.989  12.934  16.999
    1HEX  C0H   4636   3.936  12.934  16.877
    1HEX  O0I   4637   3.901  13.033  16.813
    1HEX  C0J   4638   3.922  12.793  16.822
    1HEX  C0K   4639   3.802  12.720  16.884
    1HEX  C0N   4640   4.224  12.941  17.140
    1HEX  O0O   4641   4.360  12.919  17.178
    1HEX  C0P   4642   4.429  12.996  17.277
    1HEX  C0Q   4643   4.395  12.983  17.429
    1HEX  C0R   4644   4.428  12.840   0.039
    1HEX  O0S   4645   4.569  12.814   0.035
    1HEX  C0T   4646   4.641  12.807   0.148
    1HEX  O0U   4647   4.598  12.819   0.263
    1HEX  C0V   4648   4.789  12.784   0.122
    1HEX  C0W   4649   4.871  12.913   0.136
    1HEX  C0Y   4650   4.486  13.087   0.059
    1HEX  O0Z   4651   4.462  13.085   0.198
    1HEX  C10   4652   4.549  13.140   0.281
    1HEX  O11   4653   4.653  13.197   0.249
    1HEX  C12   4654   4.505  13.124   0.426
    1HEX  C13   4655   4.613  13.168   0.525
    1HEX  C15   4656   4.249  13.021   0.024
    1HEX  O16   4657   4.210  12.998   0.159
    1HEX  C17   4658   4.136  12.891   0.193
    1HEX  O18   4659   4.105  12.799   0.118
    1HEX  C19   4660   4.090  12.898   0.337
    1HEX  C1A   4661   4.007  13.026   0.360
    1HEX  H1D   4662   4.601  13.539  17.082
    1HEX  H1E   4663   4.451  13.521  16.991
    1HEX  H1F   4664   4.610  13.286  17.112
    1HEX  H1G   4665   4.626  13.333  16.947
    1HEX  H1H   4666   4.279  13.046  16.901
    1HEX  H1I   4667   4.158  13.169  16.890
    1HEX  H1J   4668   4.274  13.214  17.225
    1HEX  H1K   4669   4.116  13.162  17.281
    1HEX  H1M   4670   4.010  13.576  17.116
    1HEX  H1N   4671   4.184  13.549  17.119
    1HEX  H1O   4672   4.191  13.602  17.364
    1HEX  H1P   4673   4.019  13.634  17.362
    1HEX  H1Q   4674   4.244  13.771  17.237
    1HEX  H1R   4675   3.967  13.142  17.021
    1HEX  H1S   4676   3.965  13.046  17.164
    1HEX  H1T   4677   4.015  12.739  16.842
    1HEX  H1U   4678   3.912  12.800  16.714
    1HEX  H1V   4679   3.710  12.777  16.869
    1HEX  H1W   4680   3.815  12.709  16.992
    1HEX  H1X   4681   3.788  12.560  16.674
    1HEX  H1Y   4682   4.213  12.870  17.057
    1HEX  H1Z   4683   4.157  12.896  17.213
    1HEX  H20   4684   4.439  13.098  17.244
    1HEX  H21   4685   4.532  12.959  17.266
    1HEX  H22   4686   4.376  12.766  17.419
    1HEX  H23   4687   4.391  12.826   0.141
    1HEX  H24   4688   4.800  12.742   0.022
    1HEX  H25   4689   4.825  12.710   0.193
    1HEX  H26   4690   4.828  12.993   0.076
    1HEX  H27   4691   4.974  12.898   0.104
    1HEX  H28   4692   4.796  13.069   0.287
    1HEX  H29   4693   4.468  13.188   0.023
    1HEX  H2A   4694   4.591  13.066   0.039
    1HEX  H2B   4695   4.480  13.019   0.441
    1HEX  H2C   4696   4.413  13.181   0.438
    1HEX  H2D   4697   4.644  13.271   0.503
    1HEX  H2E   4698   4.702  13.106   0.513
    1HEX  H2F   4699   4.424  13.264   0.700
    1HEX  H2G   4700   4.176  12.972  17.400
    1HEX  H2H   4701   4.236  13.128   0.011
    1HEX  H2I   4702   4.177  12.896   0.402
    1HEX  H2J   4703   4.031  12.809   0.359
    1HEX  H2K   4704   3.926  13.032   0.287
    1HEX  H2M   4705   4.069  13.114   0.346
    1HEX  H2N   4706   3.853  12.951   0.545
    1STR  S00   4707   4.463  13.650  17.119
    1STR  S0E   4708   4.128  13.818  17.287
    1STR  S0M   4709   3.802  12.556  16.807
    1STR  S0X   4710   4.919  13.018   0.276
    1STR  S14   4711   4.529  13.182   0.685
    1STR  S1B   4712   3.940  13.051   0.526
    1HEX  C01   4713   4.632  12.927   3.673
    1HEX  C02   4714   4.571  12.929   3.813
    1HEX  C03   4715   4.420  12.930   3.804
    1HEX  O04   4716   4.358  12.830   3.766
    1HEX  O05   4717   4.367  13.048   3.838
    1HEX  C06   4718   4.225  13.063   3.844
    1HEX  C07   4719   4.176  13.057   3.991
    1HEX  C08   4720   4.226  13.185   4.061
    1HEX  O09   4721   4.161  13.306   4.024
    1HEX  C0A   4722   4.098  13.377   4.119
    1HEX  O0B   4723   4.050  13.331   4.223
    1HEX  C0C   4724   4.097  13.526   4.089
    1HEX  C0D   4725   4.099  13.610   4.218
    1HEX  C0F   4726   4.020  13.057   3.994
    1HEX  O0G   4727   3.972  12.936   3.936
    1HEX  C0H   4728   3.926  12.935   3.810
    1HEX  O0I   4729   3.898  13.034   3.742
    1HEX  C0J   4730   3.918  12.795   3.752
    1HEX  C0K   4731   3.799  12.718   3.810
    1HEX  C0N   4732   4.222  12.925   4.063
    1HEX  O0O   4733   4.358  12.905   4.104
    1HEX  C0P   4734   4.427  12.987   4.199
    1HEX  C0Q   4735   4.392  12.981   4.352
    1HEX  C0R   4736   4.426  12.839   4.405
    1HEX  O0S   4737   4.566  12.813   4.398
    1HEX  C0T   4738   4.641  12.808   4.511
    1HEX  O0U   4739   4.599  12.821   4.626
    1HEX  C0V   4740   4.788  12.785   4.483
    1HEX  C0W   4741   4.870  12.913   4.496
    1HEX  C0Y   4742   4.484  13.086   4.419
    1HEX  O0Z   4743   4.460  13.086   4.559
    1HEX  C10   4744   4.548  13.141   4.641
    1HEX  O11   4745   4.652  13.197   4.608
    1HEX  C12   4746   4.505  13.124   4.786
    1HEX  C13   4747   4.613  13.168   4.884
    1HEX  C15   4748   4.245  13.021   4.385
    1HEX  O16   4749   4.207  12.999   4.520
    1HEX  C17   4750   4.136  12.891   4.555
    1HEX  O18   4751   4.106  12.798   4.481
    1HEX  C19   4752   4.089  12.898   4.699
    1HEX  C1A   4753   4.006  13.026   4.721
    1HEX  H1C   4754   4.847  12.930   3.550
    1HEX  H1D   4755   4.598  12.838   3.619
    1HEX  H1E   4756   4.598  13.013   3.615
    1HEX  H1F   4757   4.604  13.017   3.868
    1HEX  H1G   4758   4.602  12.842   3.870
    1HEX  H1H   4759   4.177  12.988   3.782
    1HEX  H1I   4760   4.198  13.158   3.799
    1HEX  H1J   4761   4.329  13.202   4.034
    1HEX  H1K   4762   4.223  13.171   4.168
    1HEX  H1M   4763   4.012  13.552   4.026
    1HEX  H1N   4764   4.187  13.547   4.031
    1HEX  H1O   4765   4.176  13.573   4.286
    1HEX  H1P   4766   4.004  13.600   4.270
    1HEX  H1Q   4767   4.303  13.806   4.159
    1HEX  H1R   4768   3.979  13.145   3.945
    1HEX  H1S   4769   3.984  13.062   4.097
    1HEX  H1T   4770   4.012  12.744   3.773
    1HEX  H1U   4771   3.910  12.803   3.644
    1HEX  H1V   4772   3.706  12.773   3.794
    1HEX  H1W   4773   3.810  12.706   3.918
    1HEX  H1X   4774   3.788  12.561   3.594
    1HEX  H1Y   4775   4.205  12.844   3.991
    1HEX  H1Z   4776   4.153  12.894   4.141
    1HEX  H20   4777   4.437  13.089   4.166
    1HEX  H21   4778   4.529  12.951   4.190
    1HEX  H22   4779   4.372  12.763   4.348
    1HEX  H23   4780   4.391  12.828   4.508
    1HEX  H24   4781   4.798  12.742   4.383
    1HEX  H25   4782   4.825  12.710   4.553
    1HEX  H26   4783   4.828  12.993   4.435
    1HEX  H27   4784   4.973  12.897   4.464
    1HEX  H28   4785   4.795  13.068   4.647
    1HEX  H29   4786   4.465  13.187   4.382
    1HEX  H2A   4787   4.589  13.065   4.399
    1HEX  H2B   4788   4.480  13.019   4.801
    1HEX  H2C   4789   4.413  13.182   4.798
    1HEX  H2D   4790   4.645  13.271   4.863
    1HEX  H2E   4791   4.702  13.106   4.872
    1HEX  H2F   4792   4.424  13.264   5.061
    1HEX  H2G   4793   4.172  12.973   4.322
    1HEX  H2H   4794   4.231  13.128   4.371
    1HEX  H2I   4795   4.176  12.897   4.764
    1HEX  H2J   4796   4.030  12.809   4.721
    1HEX  H2K   4797   3.926  13.032   4.648
    1HEX  H2M   4798   4.068  13.114   4.707
    1HEX  H2N   4799   3.853  12.952   4.905
    1STR  S00   4800   4.813  12.936   3.679
    1STR  S0E   4801   4.181  13.771   4.201
    1STR  S0M   4802   3.800  12.557   3.727
    1STR  S0X   4803   4.919  13.017   4.636
    1STR  S14   4804   4.529  13.183   5.044
    1STR  S1B   4805   3.939  13.052   4.887
    1HEX  C01   4806   4.632  12.927   8.033
    1HEX  C02   4807   4.571  12.929   8.173
    1HEX  C03   4808   4.420  12.930   8.164
    1HEX  O04   4809   4.358  12.830   8.126
    1HEX  O05   4810   4.367  13.048   8.198
    1HEX  C06   4811   4.225  13.063   8.204
    1HEX  C07   4812   4.176  13.057   8.351
    1HEX  C08   4813   4.226  13.185   8.421
    1HEX  O09   4814   4.161  13.306   8.384
    1HEX  C0A   4815   4.098  13.377   8.479
    1HEX  O0B   4816   4.050  13.331   8.582
    1HEX  C0C   4817   4.097  13.526   8.449
    1HEX  C0D   4818   4.099  13.610   8.578
    1HEX  C0F   4819   4.020  13.057   8.354
    1HEX  O0G   4820   3.972  12.936   8.296
    1HEX  C0H   4821   3.926  12.935   8.170
    1HEX  O0I   4822   3.898  13.034   8.102
    1HEX  C0J   4823   3.918  12.795   8.112
    1HEX  C0K   4824   3.799  12.718   8.170
    1HEX  C0N   4825   4.222  12.925   8.423
    1HEX  O0O   4826   4.358  12.905   8.464
    1HEX  C0P   4827   4.427  12.987   8.559
    1HEX  C0Q   4828   4.392  12.981   8.712
    1HEX  C0R   4829   4.426  12.839   8.765
    1HEX  O0S   4830   4.566  12.813   8.758
    1HEX  C0T   4831   4.641  12.808   8.871
    1HEX  O0U   4832   4.599  12.821   8.986
    1HEX  C0V   4833   4.788  12.784   8.843
    1HEX  C0W   4834   4.870  12.913   8.856
    1HEX  C0Y   4835   4.484  13.086   8.779
    1HEX  O0Z   4836   4.460  13.086   8.919
    1HEX  C10   4837   4.548  13.141   9.001
    1HEX  O11   4838   4.652  13.197   8.968
    1HEX  C12   4839   4.505  13.124   9.146
    1HEX  C13   4840   4.613  13.168   9.244
    1HEX  C15   4841   4.245  13.021   8.745
    1HEX  O16   4842   4.207  12.999   8.880
    1HEX  C17   4843   4.136  12.891   8.915
    1HEX  O18   4844   4.106  12.798   8.841
    1HEX  C19   4845   4.089  12.898   9.059
    1HEX  C1A   4846   4.006  13.026   9.081
    1HEX  H1C   4847   4.847  12.930   7.909
    1HEX  H1D   4848   4.598  12.838   7.979
    1HEX  H1E   4849   4.598  13.013   7.975
    1HEX  H1F   4850   4.604  13.017   8.228
    1HEX  H1G   4851   4.602  12.842   8.230
    1HEX  H1H   4852   4.177  12.988   8.142
    1HEX  H1I   4853   4.198  13.158   8.159
    1HEX  H1J   4854   4.329  13.202   8.394
    1HEX  H1K   4855   4.223  13.171   8.528
    1HEX  H1M   4856   4.012  13.552   8.386
    1HEX  H1N   4857   4.187  13.547   8.391
    1HEX  H1O   4858   4.176  13.573   8.646
    1HEX  H1P   4859   4.004  13.600   8.630
    1HEX  H1Q   4860   4.303  13.806   8.519
    1HEX  H1R   4861   3.979  13.145   8.305
    1HEX  H1S   4862   3.984  13.062   8.457
    1HEX  H1T   4863   4.012  12.744   8.133
    1HEX  H1U   4864   3.910  12.803   8.004
    1HEX  H1V   4865   3.706  12.773   8.154
    1HEX  H1W   4866   3.810  12.706   8.278
    1HEX  H1X   4867   3.788  12.561   7.954
    1HEX  H1Y   4868   4.205  12.844   8.351
    1HEX  H1Z   4869   4.153  12.895   8.501
    1HEX  H20   4870   4.437  13.089   8.526
    1HEX  H21   4871   4.529  12.951   8.550
    1HEX  H22   4872   4.372  12.763   8.708
    1HEX  H23   4873   4.391  12.828   8.868
    1HEX  H24   4874   4.798  12.742   8.743
    1HEX  H25   4875   4.825  12.710   8.913
    1HEX  H26   4876   4.828  12.993   8.795
    1HEX  H27   4877   4.973  12.897   8.824
    1HEX  H28   4878   4.795  13.068   9.007
    1HEX  H29   4879   4.465  13.187   8.742
    1HEX  H2A   4880   4.589  13.065   8.759
    1HEX  H2B   4881   4.480  13.019   9.161
    1HEX  H2C   4882   4.413  13.182   9.158
    1HEX  H2D   4883   4.645  13.271   9.223
    1HEX  H2E   4884   4.702  13.106   9.232
    1HEX  H2F   4885   4.424  13.264   9.421
    1HEX  H2G   4886   4.172  12.973   8.682
    1HEX  H2H   4887   4.231  13.128   8.731
    1HEX  H2I   4888   4.176  12.897   9.124
    1HEX  H2J   4889   4.030  12.809   9.081
    1HEX  H2K   4890   3.926  13.032   9.008
    1HEX  H2M   4891   4.068  13.114   9.067
    1HEX  H2N   4892   3.853  12.952   9.266
    1STR  S00   4893   4.813  12.936   8.039
    1STR  S0E   4894   4.181  13.771   8.561
    1STR  S0M   4895   3.800  12.557   8.087
    1STR  S0X   4896   4.919  13.017   8.996
    1STR  S14   4897   4.528  13.183   9.404
    1STR  S1B   4898   3.939  13.052   9.247
    1HEX  C01   4899   4.628  12.929  12.392
    1HEX  C02   4900   4.559  12.934  12.529
    1HEX  C03   4901   4.407  12.934  12.512
    1HEX  O04   4902   4.348  12.834  12.474
    1HEX  O05   4903   4.352  13.053  12.543
    1HEX  C06   4904   4.211  13.064  12.560
    1HEX  C07   4905   4.178  13.065  12.712
    1HEX  C08   4906   4.238  13.192  12.775
    1HEX  O09   4907   4.176  13.315  12.742
    1HEX  C0A   4908   4.109  13.382  12.837
    1HEX  O0B   4909   4.063  13.334  12.940
    1HEX  C0C   4910   4.101  13.532  12.809
    1HEX  C0D   4911   4.100  13.613  12.939
    1HEX  C0F   4912   4.025  13.072  12.735
    1HEX  O0G   4913   3.955  12.951  12.709
    1HEX  C0H   4914   3.870  12.943  12.606
    1HEX  O0I   4915   3.870  13.017  12.507
    1HEX  C0J   4916   3.767  12.833  12.623
    1HEX  C0K   4917   3.666  12.869  12.735
    1HEX  C0N   4918   4.232  12.934  12.778
    1HEX  O0O   4919   4.371  12.925  12.817
    1HEX  C0P   4920   4.434  13.000  12.923
    1HEX  C0Q   4921   4.401  12.965  13.072
    1HEX  C0R   4922   4.447  12.819  13.095
    1HEX  O0S   4923   4.587  12.807  13.065
    1HEX  C0T   4924   4.677  12.768  13.158
    1HEX  O0U   4925   4.652  12.731  13.272
    1HEX  C0V   4926   4.821  12.774  13.110
    1HEX  C0W   4927   4.893  12.898  13.164
    1HEX  C0Y   4928   4.483  13.058  13.167
    1HEX  O0Z   4929   4.438  13.032  13.300
    1HEX  C10   4930   4.514  12.973  13.391
    1HEX  O11   4931   4.635  12.994  13.405
    1HEX  C12   4932   4.433  12.884  13.486
    1HEX  C13   4933   4.410  12.735  13.442
    1HEX  C15   4934   4.250  12.992  13.102
    1HEX  O16   4935   4.203  12.966  13.234
    1HEX  C17   4936   4.122  12.863  13.259
    1HEX  O18   4937   4.095  12.770  13.183
    1HEX  C19   4938   4.057  12.873  13.396
    1HEX  C1A   4939   3.998  13.013  13.419
    1HEX  H1C   4940   4.845  12.929  12.270
    1HEX  H1D   4941   4.597  12.839  12.338
    1HEX  H1E   4942   4.597  13.014  12.332
    1HEX  H1F   4943   4.589  13.022  12.585
    1HEX  H1G   4944   4.586  12.848  12.589
    1HEX  H1H   4945   4.156  12.985  12.508
    1HEX  H1I   4946   4.177  13.157  12.514
    1HEX  H1J   4947   4.342  13.202  12.743
    1HEX  H1K   4948   4.239  13.181  12.883
    1HEX  H1M   4949   4.014  13.554  12.747
    1HEX  H1N   4950   4.189  13.557  12.750
    1HEX  H1O   4951   4.178  13.578  13.007
    1HEX  H1P   4952   4.005  13.600  12.991
    1HEX  H1Q   4953   4.303  13.804  12.881
    1HEX  H1R   4954   3.981  13.156  12.679
    1HEX  H1S   4955   4.004  13.096  12.839
    1HEX  H1T   4956   3.818  12.739  12.644
    1HEX  H1U   4957   3.715  12.820  12.528
    1HEX  H1V   4958   3.565  12.835  12.713
    1HEX  H1W   4959   3.695  12.829  12.832
    1HEX  H1Y   4960   4.221  12.855  12.703
    1HEX  H1Z   4961   4.163  12.893  12.851
    1HEX  H20   4962   4.434  13.107  12.908
    1HEX  H21   4963   4.540  12.978  12.907
    1HEX  H22   4964   4.391  12.750  13.031
    1HEX  H23   4965   4.423  12.787  13.196
    1HEX  H24   4966   4.824  12.769  13.002
    1HEX  H25   4967   4.870  12.684  13.149
    1HEX  H26   4968   4.847  12.990  13.127
    1HEX  H27   4969   4.998  12.898  13.134
    1HEX  H28   4970   4.822  13.015  13.361
    1HEX  H29   4971   4.464  13.163  13.144
    1HEX  H2A   4972   4.590  13.044  13.157
    1HEX  H2B   4973   4.337  12.936  13.497
    1HEX  H2C   4974   4.481  12.890  13.584
    1HEX  H2D   4975   4.336  12.684  13.504
    1HEX  H2E   4976   4.502  12.677  13.452
    1HEX  H2G   4977   4.186  12.937  13.036
    1HEX  H2H   4978   4.227  13.097  13.084
    1HEX  H2I   4979   4.132  12.850  13.472
    1HEX  H2J   4980   3.980  12.797  13.404
    1HEX  H2K   4981   3.925  13.036  13.341
    1HEX  H2M   4982   4.075  13.090  13.413
    1HEX  H2N   4983   3.852  12.952  13.615
    1STR  S00   4984   4.809  12.937  12.399
    1STR  S0E   4985   4.179  13.776  12.924
    1STR  S0M   4986   3.558  12.913  12.875
    1STR  S0X   4987   4.943  13.001  13.305
    1STR  S14   4988   4.381  12.559  13.385
    1STR  S1B   4989   3.954  13.036  13.593
    1HEX  C01   4990   9.131  17.228  16.842
    1HEX  C02   4991   9.081  17.155  16.967
    1HEX  C03   4992   8.932  17.139  16.952
    1HEX  O04   4993   8.879  17.030  16.932
    1HEX  O05   4994   8.875  17.259  16.950
    1HEX  C06   4995   8.739  17.270  16.920
    1HEX  C07   4996   8.660  17.301  17.047
    1HEX  C08   4997   8.706   0.011  17.094
    1HEX  O09   4998   8.638   0.138  17.084
    1HEX  C0A   4999   8.658   0.245  17.172
    1HEX  O0B   5000   8.718   0.240  17.279
    1HEX  C0C   5001   8.593   0.378  17.129
    1HEX  C0D   5002   8.546   0.471  17.244
    1HEX  C0F   5003   8.515  17.276  16.998
    1HEX  O0G   5004   8.469  17.155  16.937
    1HEX  C0H   5005   8.347  17.165  16.874
    1HEX  O0I   5006   8.277  17.266  16.871
    1HEX  C0J   5007   8.299  17.040  16.804
    1HEX  C0K   5008   8.162  16.999  16.859
    1HEX  C0N   5009   8.679  17.190  17.155
    1HEX  O0O   5010   8.805  17.177  17.221
    1HEX  C0P   5011   8.855  17.281  17.303
    1HEX  C0Q   5012   8.776  17.323  17.433
    1HEX  C0R   5013   8.784  17.200   0.090
    1HEX  O0S   5014   8.917  17.145   0.092
    1HEX  C0T   5015   9.005  17.168   0.192
    1HEX  O0U   5016   8.977  17.210   0.304
    1HEX  C0V   5017   9.150  17.139   0.151
    1HEX  C0W   5018   9.238  17.264   0.150
    1HEX  C0Y   5019   8.866  17.434   0.056
    1HEX  O0Z   5020   8.827   0.018   0.190
    1HEX  C10   5021   8.916   0.066   0.277
    1HEX  O11   5022   9.027   0.112   0.249
    1HEX  C12   5023   8.866   0.054   0.420
    1HEX  C13   5024   8.973   0.092   0.524
    1HEX  C15   5025   8.630  17.393  17.422
    1HEX  O16   5026   8.513  17.322  17.375
    1HEX  C17   5027   8.403  17.362  17.292
    1HEX  O18   5028   8.312  17.282  17.276
    1HEX  C19   5029   8.387   0.063  17.221
    1HEX  C1A   5030   8.386   0.091  17.058
    1HEX  H1C   5031   9.234  17.290  16.665
    1HEX  H1D   5032   9.095  17.174  16.754
    1HEX  H1E   5033   9.087  17.327  16.837
    1HEX  H1F   5034   9.101  17.212  17.058
    1HEX  H1G   5035   9.125  17.056  16.978
    1HEX  H1H   5036   8.701  17.181  16.870
    1HEX  H1I   5037   8.726  17.350  16.848
    1HEX  H1J   5038   8.800   0.034  17.045
    1HEX  H1K   5039   8.730   0.011  17.197
    1HEX  H1M   5040   8.513   0.363  17.057
    1HEX  H1N   5041   8.671   0.430  17.074
    1HEX  H1O   5042   8.612   0.470  17.331
    1HEX  H1P   5043   8.444   0.451  17.278
    1HEX  H1Q   5044   8.659   0.723  17.250
    1HEX  H1R   5045   8.505  17.338  16.914
    1HEX  H1S   5046   8.439  17.295  17.070
    1HEX  H1T   5047   8.374  16.961  16.815
    1HEX  H1U   5048   8.292  17.064  16.698
    1HEX  H1V   5049   8.089  17.078  16.841
    1HEX  H1W   5050   8.168  16.988  16.968
    1HEX  H1X   5051   8.112  16.902  16.673
    1HEX  H1Y   5052   8.664  17.094  17.106
    1HEX  H1Z   5053   8.601  17.186  17.229
    1HEX  H20   5054   8.897  17.362  17.245
    1HEX  H21   5055   8.951  17.238  17.331
    1HEX  H22   5056   8.718  17.121   0.053
    1HEX  H23   5057   8.750  17.223   0.191
    1HEX  H24   5058   9.151  17.091   0.053
    1HEX  H25   5059   9.192  17.066   0.221
    1HEX  H26   5060   9.197  17.342   0.086
    1HEX  H27   5061   9.339  17.243   0.113
    1HEX  H28   5062   9.177  17.425   0.296
    1HEX  H29   5063   8.860   0.088  17.440
    1HEX  H2A   5064   8.971  17.405   0.053
    1HEX  H2B   5065   8.836  17.390   0.436
    1HEX  H2C   5066   8.777   0.116   0.430
    1HEX  H2D   5067   9.011   0.193   0.505
    1HEX  H2E   5068   9.059   0.025   0.515
    1HEX  H2F   5069   8.782   0.187   0.698
    1HEX  H2G   5070   8.633   0.045  17.367
    1HEX  H2H   5071   8.604  17.429   0.081
    1HEX  H2I   5072   8.446   0.135  17.277
    1HEX  H2J   5073   8.285   0.087  17.253
    1HEX  H2K   5074   8.303   0.039  17.011
    1HEX  H2M   5075   8.374   0.196  17.036
    1STR  S00   5076   9.296  17.238  16.771
    1STR  S0E   5077   8.547   0.651  17.262
    1STR  S0M   5078   8.116  16.839  16.790
    1STR  S0X   5079   9.302  17.378   0.276
    1STR  S14   5080   8.885   0.103   0.682
    1STR  S1B   5081   8.439   0.123  16.870
    1HEX  C01   5082   8.992  17.287   3.673
    1HEX  C02   5083   8.932  17.289   3.813
    1HEX  C03   5084   8.780  17.289   3.804
    1HEX  O04   5085   8.718  17.190   3.766
    1HEX  O05   5086   8.727  17.408   3.838
    1HEX  C06   5087   8.585  17.422   3.844
    1HEX  C07   5088   8.536  17.417   3.991
    1HEX  C08   5089   8.585   0.104   4.061
    1HEX  O09   5090   8.521   0.225   4.024
    1HEX  C0A   5091   8.458   0.297   4.119
    1HEX  O0B   5092   8.410   0.251   4.223
    1HEX  C0C   5093   8.457   0.446   4.089
    1HEX  C0D   5094   8.460   0.529   4.218
    1HEX  C0F   5095   8.380  17.416   3.994
    1HEX  O0G   5096   8.332  17.295   3.936
    1HEX  C0H   5097   8.286  17.294   3.810
    1HEX  O0I   5098   8.258  17.393   3.742
    1HEX  C0J   5099   8.278  17.154   3.752
    1HEX  C0K   5100   8.159  17.077   3.810
    1HEX  C0N   5101   8.582  17.284   4.063
    1HEX  O0O   5102   8.718  17.265   4.104
    1HEX  C0P   5103   8.787  17.346   4.199
    1HEX  C0Q   5104   8.752  17.340   4.352
    1HEX  C0R   5105   8.786  17.199   4.405
    1HEX  O0S   5106   8.926  17.172   4.398
    1HEX  C0T   5107   9.001  17.167   4.511
    1HEX  O0U   5108   8.959  17.180   4.626
    1HEX  C0V   5109   9.148  17.144   4.483
    1HEX  C0W   5110   9.230  17.273   4.496
    1HEX  C0Y   5111   8.844   0.005   4.419
    1HEX  O0Z   5112   8.820   0.005   4.559
    1HEX  C10   5113   8.908   0.060   4.641
    1HEX  O11   5114   9.012   0.117   4.608
    1HEX  C12   5115   8.865   0.044   4.786
    1HEX  C13   5116   8.973   0.088   4.884
    1HEX  C15   5117   8.605  17.380   4.385
    1HEX  O16   5118   8.567  17.358   4.520
    1HEX  C17   5119   8.496  17.251   4.555
    1HEX  O18   5120   8.466  17.157   4.481
    1HEX  C19   5121   8.449  17.258   4.699
    1HEX  C1A   5122   8.366  17.385   4.721
    1HEX  H1C   5123   9.207  17.290   3.550
    1HEX  H1D   5124   8.959  17.198   3.619
    1HEX  H1E   5125   8.958  17.373   3.615
    1HEX  H1F   5126   8.964  17.377   3.869
    1HEX  H1G   5127   8.962  17.202   3.870
    1HEX  H1H   5128   8.537  17.347   3.782
    1HEX  H1I   5129   8.558   0.078   3.799
    1HEX  H1J   5130   8.689   0.122   4.034
    1HEX  H1K   5131   8.582   0.091   4.168
    1HEX  H1M   5132   8.372   0.472   4.026
    1HEX  H1N   5133   8.547   0.466   4.031
    1HEX  H1O   5134   8.536   0.493   4.286
    1HEX  H1P   5135   8.364   0.520   4.270
    1HEX  H1Q   5136   8.663   0.726   4.159
    1HEX  H1R   5137   8.339   0.065   3.945
    1HEX  H1S   5138   8.344  17.421   4.097
    1HEX  H1T   5139   8.372  17.103   3.773
    1HEX  H1U   5140   8.270  17.163   3.644
    1HEX  H1V   5141   8.066  17.132   3.794
    1HEX  H1W   5142   8.170  17.065   3.918
    1HEX  H1X   5143   8.148  16.920   3.594
    1HEX  H1Y   5144   8.566  17.204   3.991
    1HEX  H1Z   5145   8.513  17.254   4.141
    1HEX  H20   5146   8.797   0.009   4.166
    1HEX  H21   5147   8.889  17.311   4.190
    1HEX  H22   5148   8.733  17.123   4.348
    1HEX  H23   5149   8.751  17.187   4.508
    1HEX  H24   5150   9.158  17.101   4.383
    1HEX  H25   5151   9.185  17.070   4.553
    1HEX  H26   5152   9.188  17.353   4.435
    1HEX  H27   5153   9.333  17.257   4.464
    1HEX  H28   5154   9.155  17.428   4.647
    1HEX  H29   5155   8.825   0.106   4.382
    1HEX  H2A   5156   8.949  17.425   4.399
    1HEX  H2B   5157   8.840  17.378   4.801
    1HEX  H2C   5158   8.773   0.101   4.798
    1HEX  H2D   5159   9.005   0.191   4.863
    1HEX  H2E   5160   9.062   0.026   4.873
    1HEX  H2F   5161   8.783   0.183   5.061
    1HEX  H2G   5162   8.532  17.332   4.322
    1HEX  H2H   5163   8.591   0.047   4.371
    1HEX  H2I   5164   8.536  17.256   4.764
    1HEX  H2J   5165   8.390  17.169   4.721
    1HEX  H2K   5166   8.285  17.391   4.648
    1HEX  H2M   5167   8.428   0.034   4.707
    1HEX  H2N   5168   8.213  17.311   4.906
    1STR  S00   5169   9.173  17.296   3.679
    1STR  S0E   5170   8.541   0.690   4.201
    1STR  S0M   5171   8.160  16.916   3.727
    1STR  S0X   5172   9.279  17.377   4.636
    1STR  S14   5173   8.888   0.102   5.044
    1STR  S1B   5174   8.299  17.412   4.887
    1HEX  C01   5175   8.992  17.287   8.033
    1HEX  C02   5176   8.932  17.289   8.173
    1HEX  C03   5177   8.780  17.289   8.164
    1HEX  O04   5178   8.718  17.190   8.126
    1HEX  O05   5179   8.727  17.408   8.198
    1HEX  C06   5180   8.585  17.422   8.204
    1HEX  C07   5181   8.536  17.417   8.351
    1HEX  C08   5182   8.585   0.104   8.421
    1HEX  O09   5183   8.521   0.225   8.384
    1HEX  C0A   5184   8.458   0.297   8.479
    1HEX  O0B   5185   8.410   0.251   8.583
    1HEX  C0C   5186   8.457   0.446   8.449
    1HEX  C0D   5187   8.459   0.529   8.578
    1HEX  C0F   5188   8.380  17.416   8.354
    1HEX  O0G   5189   8.332  17.295   8.296
    1HEX  C0H   5190   8.286  17.294   8.170
    1HEX  O0I   5191   8.258  17.393   8.102
    1HEX  C0J   5192   8.278  17.154   8.113
    1HEX  C0K   5193   8.159  17.077   8.170
    1HEX  C0N   5194   8.582  17.284   8.423
    1HEX  O0O   5195   8.718  17.265   8.464
    1HEX  C0P   5196   8.787  17.346   8.559
    1HEX  C0Q   5197   8.752  17.340   8.712
    1HEX  C0R   5198   8.786  17.199   8.765
    1HEX  O0S   5199   8.926  17.172   8.758
    1HEX  C0T   5200   9.001  17.167   8.871
    1HEX  O0U   5201   8.959  17.180   8.986
    1HEX  C0V   5202   9.148  17.144   8.843
    1HEX  C0W   5203   9.230  17.273   8.856
    1HEX  C0Y   5204   8.844   0.005   8.779
    1HEX  O0Z   5205   8.820   0.005   8.919
    1HEX  C10   5206   8.908   0.060   9.001
    1HEX  O11   5207   9.012   0.117   8.968
    1HEX  C12   5208   8.865   0.044   9.146
    1HEX  C13   5209   8.973   0.088   9.244
    1HEX  C15   5210   8.605  17.380   8.745
    1HEX  O16   5211   8.567  17.358   8.880
    1HEX  C17   5212   8.496  17.251   8.915
    1HEX  O18   5213   8.466  17.157   8.841
    1HEX  C19   5214   8.449  17.258   9.059
    1HEX  C1A   5215   8.366  17.385   9.081
    1HEX  H1C   5216   9.207  17.290   7.909
    1HEX  H1D   5217   8.959  17.198   7.979
    1HEX  H1E   5218   8.958  17.373   7.975
    1HEX  H1F   5219   8.964  17.377   8.229
    1HEX  H1G   5220   8.962  17.202   8.230
    1HEX  H1H   5221   8.537  17.347   8.142
    1HEX  H1I   5222   8.558   0.078   8.159
    1HEX  H1J   5223   8.689   0.122   8.394
    1HEX  H1K   5224   8.582   0.091   8.528
    1HEX  H1M   5225   8.372   0.472   8.386
    1HEX  H1N   5226   8.547   0.466   8.391
    1HEX  H1O   5227   8.536   0.493   8.646
    1HEX  H1P   5228   8.364   0.520   8.630
    1HEX  H1Q   5229   8.663   0.726   8.519
    1HEX  H1R   5230   8.339   0.065   8.305
    1HEX  H1S   5231   8.344  17.421   8.457
    1HEX  H1T   5232   8.372  17.103   8.133
    1HEX  H1U   5233   8.270  17.163   8.004
    1HEX  H1V   5234   8.066  17.132   8.154
    1HEX  H1W   5235   8.170  17.065   8.278
    1HEX  H1X   5236   8.148  16.920   7.954
    1HEX  H1Y   5237   8.566  17.204   8.351
    1HEX  H1Z   5238   8.513  17.254   8.501
    1HEX  H20   5239   8.797   0.009   8.526
    1HEX  H21   5240   8.889  17.311   8.550
    1HEX  H22   5241   8.733  17.123   8.708
    1HEX  H23   5242   8.751  17.187   8.868
    1HEX  H24   5243   9.158  17.101   8.743
    1HEX  H25   5244   9.185  17.070   8.913
    1HEX  H26   5245   9.188  17.353   8.795
    1HEX  H27   5246   9.333  17.257   8.824
    1HEX  H28   5247   9.155  17.428   9.007
    1HEX  H29   5248   8.825   0.106   8.742
    1HEX  H2A   5249   8.949  17.425   8.759
    1HEX  H2B   5250   8.840  17.378   9.161
    1HEX  H2C   5251   8.773   0.101   9.158
    1HEX  H2D   5252   9.005   0.191   9.223
    1HEX  H2E   5253   9.062   0.026   9.233
    1HEX  H2F   5254   8.783   0.183   9.421
    1HEX  H2G   5255   8.532  17.332   8.682
    1HEX  H2H   5256   8.591   0.047   8.731
    1HEX  H2I   5257   8.536  17.256   9.124
    1HEX  H2J   5258   8.390  17.169   9.081
    1HEX  H2K   5259   8.285  17.391   9.008
    1HEX  H2M   5260   8.428   0.034   9.067
    1HEX  H2N   5261   8.213  17.311   9.266
    1STR  S00   5262   9.173  17.296   8.039
    1STR  S0E   5263   8.541   0.690   8.561
    1STR  S0M   5264   8.160  16.916   8.087
    1STR  S0X   5265   9.279  17.377   8.996
    1STR  S14   5266   8.888   0.102   9.404
    1STR  S1B   5267   8.299  17.412   9.247
    1HEX  C01   5268   8.952  17.297  12.397
    1HEX  C02   5269   8.882  17.305  12.534
    1HEX  C03   5270   8.729  17.290  12.528
    1HEX  O04   5271   8.677  17.188  12.484
    1HEX  O05   5272   8.663  17.395  12.582
    1HEX  C06   5273   8.531  17.383  12.641
    1HEX  C07   5274   8.543  17.397  12.798
    1HEX  C08   5275   8.599   0.106  12.807
    1HEX  O09   5276   8.515   0.212  12.763
    1HEX  C0A   5277   8.465   0.295  12.856
    1HEX  O0B   5278   8.430   0.261  12.969
    1HEX  C0C   5279   8.463   0.441  12.812
    1HEX  C0D   5280   8.464   0.536  12.933
    1HEX  C0F   5281   8.411  17.367  12.889
    1HEX  O0G   5282   8.426  17.327  13.034
    1HEX  C0H   5283   8.387  17.201  13.089
    1HEX  O0I   5284   8.317  17.129  13.019
    1HEX  C0J   5285   8.447  17.130  13.225
    1HEX  C0K   5286   8.493  17.154  13.385
    1HEX  C0N   5287   8.639  17.280  12.839
    1HEX  O0O   5288   8.779  17.300  12.835
    1HEX  C0P   5289   8.842  17.391  12.926
    1HEX  C0Q   5290   8.810  17.388  13.079
    1HEX  C0R   5291   8.840  17.245  13.130
    1HEX  O0S   5292   8.978  17.216  13.125
    1HEX  C0T   5293   9.040  17.176  13.236
    1HEX  O0U   5294   8.991  17.163  13.348
    1HEX  C0V   5295   9.186  17.147  13.209
    1HEX  C0W   5296   9.269  17.275  13.217
    1HEX  C0Y   5297   8.901   0.058  13.137
    1HEX  O0Z   5298   8.876   0.068  13.275
    1HEX  C10   5299   8.971   0.081  13.363
    1HEX  O11   5300   9.089   0.108  13.339
    1HEX  C12   5301   8.917   0.060  13.503
    1HEX  C13   5302   9.003   0.127  13.610
    1HEX  C15   5303   8.662  17.418  13.119
    1HEX  O16   5304   8.616   0.064  13.224
    1HEX  C17   5305   8.607   0.013  13.346
    1HEX  O18   5306   8.679  17.363  13.387
    1HEX  C19   5307   8.499   0.074  13.436
    1HEX  C1A   5308   8.363   0.095  13.365
    1HEX  H1C   5309   9.200  17.288  12.279
    1HEX  H1D   5310   8.927  17.204  12.346
    1HEX  H1E   5311   8.925  17.380  12.333
    1HEX  H1F   5312   8.908  17.398  12.584
    1HEX  H1G   5313   8.919  17.225  12.598
    1HEX  H1H   5314   8.482  17.291  12.608
    1HEX  H1I   5315   8.471   0.024  12.598
    1HEX  H1J   5316   8.686   0.116  12.742
    1HEX  H1K   5317   8.643   0.140  12.900
    1HEX  H1M   5318   8.379   0.461  12.747
    1HEX  H1N   5319   8.553   0.459  12.753
    1HEX  H1O   5320   8.542   0.508  13.004
    1HEX  H1P   5321   8.369   0.530  12.987
    1HEX  H1Q   5322   8.665   0.727  12.880
    1HEX  H1R   5323   8.350  17.293  12.836
    1HEX  H1S   5324   8.349   0.017  12.885
    1HEX  H1T   5325   8.525  17.067  13.183
    1HEX  H1U   5326   8.364  17.060  13.239
    1HEX  H1V   5327   8.416  17.210  13.439
    1HEX  H1W   5328   8.503  17.058  13.438
    1HEX  H1Y   5329   8.620  17.197  12.771
    1HEX  H1Z   5330   8.614  17.235  12.934
    1HEX  H20   5331   8.839   0.052  12.886
    1HEX  H21   5332   8.947  17.365  12.915
    1HEX  H22   5333   8.789  17.171  13.069
    1HEX  H23   5334   8.800  17.230  13.230
    1HEX  H24   5335   9.193  17.102  13.110
    1HEX  H25   5336   9.221  17.073  13.281
    1HEX  H26   5337   9.220  17.356  13.163
    1HEX  H27   5338   9.367  17.260  13.174
    1HEX  H28   5339   9.200  17.413  13.373
    1HEX  H29   5340   8.879   0.155  13.093
    1HEX  H2A   5341   9.006   0.035  13.117
    1HEX  H2B   5342   8.905  17.392  13.520
    1HEX  H2C   5343   8.816   0.101  13.503
    1HEX  H2D   5344   9.023   0.230  13.581
    1HEX  H2E   5345   9.100   0.077  13.612
    1HEX  H2F   5346   8.771   0.243  13.760
    1HEX  H2G   5347   8.618  17.322  13.142
    1HEX  H2H   5348   8.606   0.016  13.038
    1HEX  H2I   5349   8.535   0.165  13.482
    1HEX  H2J   5350   8.486  17.443  13.517
    1HEX  H2K   5351   8.332   0.006  13.309
    1HEX  H2M   5352   8.370   0.177  13.294
    1HEX  H2N   5353   8.211  17.384  13.562
    1STR  S00   5354   9.134  17.297  12.395
    1STR  S0E   5355   8.539   0.701  12.918
    1STR  S0M   5356   8.548  17.183  13.576
    1STR  S0X   5357   9.318  17.347  13.376
    1STR  S14   5358   8.888   0.182  13.740
    1STR  S1B   5359   8.230   0.047  13.479
    1HEX  C01   5360   8.992   4.206  16.753
    1HEX  C02   5361   8.931   4.209  16.893
    1HEX  C03   5362   8.780   4.209  16.884
    1HEX  O04   5363   8.718   4.110  16.846
    1HEX  O05   5364   8.727   4.328  16.918
    1HEX  C06   5365   8.585   4.342  16.924
    1HEX  C07   5366   8.536   4.337  17.071
    1HEX  C08   5367   8.586   4.465  17.141
    1HEX  O09   5368   8.521   4.586  17.104
    1HEX  C0A   5369   8.458   4.657  17.199
    1HEX  O0B   5370   8.410   4.611  17.302
    1HEX  C0C   5371   8.457   4.806  17.169
    1HEX  C0D   5372   8.459   4.889  17.298
    1HEX  C0F   5373   8.380   4.337  17.074
    1HEX  O0G   5374   8.332   4.216  17.016
    1HEX  C0H   5375   8.286   4.215  16.890
    1HEX  O0I   5376   8.258   4.314  16.822
    1HEX  C0J   5377   8.278   4.075  16.832
    1HEX  C0K   5378   8.159   3.998  16.890
    1HEX  C0N   5379   8.582   4.205  17.143
    1HEX  O0O   5380   8.718   4.185  17.184
    1HEX  C0P   5381   8.787   4.267  17.279
    1HEX  C0Q   5382   8.752   4.261  17.432
    1HEX  C0R   5383   8.786   4.119   0.045
    1HEX  O0S   5384   8.926   4.093   0.038
    1HEX  C0T   5385   9.001   4.088   0.151
    1HEX  O0U   5386   8.959   4.101   0.266
    1HEX  C0V   5387   9.148   4.064   0.123
    1HEX  C0W   5388   9.230   4.193   0.136
    1HEX  C0Y   5389   8.844   4.366   0.059
    1HEX  O0Z   5390   8.820   4.366   0.199
    1HEX  C10   5391   8.908   4.421   0.281
    1HEX  O11   5392   9.012   4.477   0.248
    1HEX  C12   5393   8.865   4.404   0.426
    1HEX  C13   5394   8.973   4.448   0.524
    1HEX  C15   5395   8.605   4.301   0.025
    1HEX  O16   5396   8.567   4.279   0.160
    1HEX  C17   5397   8.496   4.171   0.195
    1HEX  O18   5398   8.466   4.077   0.121
    1HEX  C19   5399   8.449   4.178   0.339
    1HEX  C1A   5400   8.366   4.306   0.361
    1HEX  H1C   5401   9.207   4.209  16.630
    1HEX  H1D   5402   8.958   4.117  16.699
    1HEX  H1E   5403   8.958   4.293  16.695
    1HEX  H1F   5404   8.964   4.297  16.949
    1HEX  H1G   5405   8.962   4.121  16.950
    1HEX  H1H   5406   8.537   4.268  16.862
    1HEX  H1I   5407   8.558   4.438  16.879
    1HEX  H1J   5408   8.690   4.482  17.114
    1HEX  H1K   5409   8.583   4.451  17.248
    1HEX  H1M   5410   8.372   4.832  17.106
    1HEX  H1N   5411   8.547   4.827  17.111
    1HEX  H1O   5412   8.536   4.853  17.366
    1HEX  H1P   5413   8.364   4.880  17.350
    1HEX  H1Q   5414   8.663   5.086  17.239
    1HEX  H1R   5415   8.339   4.425  17.025
    1HEX  H1S   5416   8.344   4.342  17.177
    1HEX  H1T   5417   8.372   4.023  16.853
    1HEX  H1U   5418   8.269   4.083  16.724
    1HEX  H1V   5419   8.066   4.052  16.874
    1HEX  H1W   5420   8.170   3.986  16.998
    1HEX  H1X   5421   8.148   3.841  16.674
    1HEX  H1Y   5422   8.565   4.124  17.071
    1HEX  H1Z   5423   8.513   4.174  17.221
    1HEX  H20   5424   8.797   4.369  17.246
    1HEX  H21   5425   8.889   4.231  17.270
    1HEX  H22   5426   8.732   4.043  17.428
    1HEX  H23   5427   8.751   4.108   0.148
    1HEX  H24   5428   9.158   4.022   0.023
    1HEX  H25   5429   9.185   3.990   0.193
    1HEX  H26   5430   9.188   4.273   0.075
    1HEX  H27   5431   9.333   4.177   0.104
    1HEX  H28   5432   9.155   4.348   0.287
    1HEX  H29   5433   8.825   4.466   0.022
    1HEX  H2A   5434   8.949   4.345   0.039
    1HEX  H2B   5435   8.840   4.299   0.441
    1HEX  H2C   5436   8.773   4.462   0.438
    1HEX  H2D   5437   9.005   4.551   0.503
    1HEX  H2E   5438   9.062   4.386   0.512
    1HEX  H2F   5439   8.784   4.544   0.701
    1HEX  H2G   5440   8.532   4.253  17.402
    1HEX  H2H   5441   8.591   4.408   0.011
    1HEX  H2I   5442   8.536   4.177   0.404
    1HEX  H2J   5443   8.390   4.089   0.361
    1HEX  H2K   5444   8.286   4.312   0.288
    1HEX  H2M   5445   8.428   4.394   0.347
    1HEX  H2N   5446   8.213   4.232   0.545
    1STR  S00   5447   9.173   4.215  16.759
    1STR  S0E   5448   8.541   5.050  17.281
    1STR  S0M   5449   8.160   3.837  16.807
    1STR  S0X   5450   9.279   4.297   0.276
    1STR  S14   5451   8.889   4.462   0.684
    1STR  S1B   5452   8.299   4.332   0.527
    1HEX  C01   5453   8.389   4.478   3.840
    1HEX  C02   5454   8.547   4.493   3.825
    1HEX  C03   5455   8.644   4.374   3.813
    1HEX  O04   5456   8.724   4.366   3.721
    1HEX  O05   5457   8.646   4.293   3.919
    1HEX  C06   5458   8.535   4.210   3.934
    1HEX  C07   5459   8.478   4.205   4.077
    1HEX  C08   5460   8.476   4.341   4.156
    1HEX  O09   5461   8.454   4.470   4.101
    1HEX  C0A   5462   8.458   4.577   4.185
    1HEX  O0B   5463   8.460   4.569   4.308
    1HEX  C0C   5464   8.467   4.712   4.115
    1HEX  C0D   5465   8.470   4.831   4.213
    1HEX  C0F   5466   8.331   4.154   4.067
    1HEX  O0G   5467   8.309   4.046   3.976
    1HEX  C0H   5468   8.270   4.068   3.847
    1HEX  O0I   5469   8.258   4.176   3.791
    1HEX  C0J   5470   8.243   3.942   3.769
    1HEX  C0K   5471   8.106   3.883   3.805
    1HEX  C0N   5472   8.563   4.098   4.154
    1HEX  O0O   5473   8.707   4.113   4.160
    1HEX  C0P   5474   8.779   4.224   4.218
    1HEX  C0Q   5475   8.771   4.245   4.374
    1HEX  C0R   5476   8.821   4.115   4.441
    1HEX  O0S   5477   8.961   4.096   4.419
    1HEX  C0T   5478   9.048   4.108   4.522
    1HEX  O0U   5479   9.019   4.128   4.640
    1HEX  C0V   5480   9.193   4.089   4.479
    1HEX  C0W   5481   9.275   4.219   4.487
    1HEX  C0Y   5482   8.861   4.364   4.415
    1HEX  O0Z   5483   8.835   4.385   4.553
    1HEX  C10   5484   8.927   4.429   4.637
    1HEX  O11   5485   9.037   4.473   4.607
    1HEX  C12   5486   8.876   4.415   4.779
    1HEX  C13   5487   8.980   4.455   4.884
    1HEX  C15   5488   8.628   4.282   4.423
    1HEX  O16   5489   8.597   4.253   4.559
    1HEX  C17   5490   8.509   4.156   4.587
    1HEX  O18   5491   8.472   4.066   4.511
    1HEX  C19   5492   8.448   4.174   4.724
    1HEX  C1A   5493   8.366   4.304   4.727
    1HEX  H1D   5494   8.345   4.440   3.747
    1HEX  H1E   5495   8.341   4.572   3.865
    1HEX  H1F   5496   8.587   4.544   3.913
    1HEX  H1G   5497   8.572   4.558   3.741
    1HEX  H1H   5498   8.559   4.109   3.898
    1HEX  H1I   5499   8.460   4.244   3.865
    1HEX  H1J   5500   8.574   4.359   4.194
    1HEX  H1K   5501   8.408   4.331   4.241
    1HEX  H1M   5502   8.384   4.723   4.045
    1HEX  H1N   5503   8.560   4.714   4.058
    1HEX  H1O   5504   8.545   4.817   4.291
    1HEX  H1P   5505   8.373   4.843   4.263
    1HEX  H1Q   5506   8.649   5.073   4.159
    1HEX  H1R   5507   8.263   4.236   4.044
    1HEX  H1S   5508   8.297   4.121   4.166
    1HEX  H1T   5509   8.325   3.872   3.786
    1HEX  H1U   5510   8.246   3.971   3.663
    1HEX  H1V   5511   8.027   3.955   3.784
    1HEX  H1W   5512   8.101   3.862   3.912
    1HEX  H1X   5513   8.126   3.816   3.576
    1HEX  H1Y   5514   8.551   4.004   4.101
    1HEX  H1Z   5515   8.522   4.073   4.251
    1HEX  H20   5516   8.766   4.316   4.160
    1HEX  H21   5517   8.883   4.200   4.196
    1HEX  H22   5518   8.767   4.029   4.400
    1HEX  H23   5519   8.797   4.115   4.547
    1HEX  H24   5520   9.194   4.048   4.378
    1HEX  H25   5521   9.237   4.014   4.544
    1HEX  H26   5522   9.228   4.301   4.432
    1HEX  H27   5523   9.376   4.207   4.447
    1HEX  H29   5524   8.836   4.455   4.361
    1HEX  H2A   5525   8.967   4.345   4.396
    1HEX  H2B   5526   8.848   4.310   4.793
    1HEX  H2C   5527   8.785   4.474   4.788
    1HEX  H2D   5528   9.014   4.557   4.865
    1HEX  H2E   5529   9.068   4.391   4.874
    1HEX  H2F   5530   8.785   4.541   5.058
    1HEX  H2G   5531   8.552   4.234   4.365
    1HEX  H2H   5532   8.611   4.389   4.410
    1HEX  H2I   5533   8.528   4.176   4.798
    1HEX  H2J   5534   8.385   4.088   4.746
    1HEX  H2K   5535   8.291   4.304   4.647
    1HEX  H2M   5536   8.430   4.390   4.709
    1HEX  H2N   5537   8.210   4.232   4.906
    1STR  S00   5538   8.212   4.461   3.908
    1STR  S0E   5539   8.544   4.995   4.188
    1STR  S0M   5540   8.100   3.745   3.687
    1STR  S0X   5541   9.438   4.286   4.440
    1STR  S14   5542   8.890   4.460   5.042
    1STR  S1B   5543   8.295   4.334   4.891
    1HEX  C01   5544   9.036   4.299   7.921
    1HEX  C02   5545   8.984   4.308   8.065
    1HEX  C03   5546   8.852   4.382   8.082
    1HEX  O04   5547   8.794   4.435   7.987
    1HEX  O05   5548   8.808   4.374   8.209
    1HEX  C06   5549   8.678   4.420   8.240
    1HEX  C07   5550   8.602   4.344   8.355
    1HEX  C08   5551   8.530   4.455   8.440
    1HEX  O09   5552   8.481   4.578   8.385
    1HEX  C0A   5553   8.429   4.667   8.476
    1HEX  O0B   5554   8.378   4.634   8.583
    1HEX  C0C   5555   8.449   4.814   8.442
    1HEX  C0D   5556   8.461   4.900   8.569
    1HEX  C0F   5557   8.520   4.229   8.287
    1HEX  O0G   5558   8.604   4.110   8.268
    1HEX  C0H   5559   8.730   4.108   8.206
    1HEX  O0I   5560   8.739   4.122   8.085
    1HEX  C0J   5561   8.852   4.048   8.291
    1HEX  C0K   5562   9.001   4.112   8.324
    1HEX  C0N   5563   8.674   4.263   8.467
    1HEX  O0O   5564   8.806   4.291   8.496
    1HEX  C0P   5565   8.829   4.367   8.612
    1HEX  C0Q   5566   8.774   4.318   8.751
    1HEX  C0R   5567   8.800   4.166   8.773
    1HEX  O0S   5568   8.937   4.132   8.761
    1HEX  C0T   5569   9.009   4.102   8.871
    1HEX  O0U   5570   8.968   4.098   8.987
    1HEX  C0V   5571   9.155   4.073   8.838
    1HEX  C0W   5572   9.240   4.200   8.846
    1HEX  C0Y   5573   8.864   4.402   8.842
    1HEX  O0Z   5574   8.836   4.380   8.978
    1HEX  C10   5575   8.921   4.431   9.065
    1HEX  O11   5576   9.023   4.494   9.038
    1HEX  C12   5577   8.876   4.404   9.206
    1HEX  C13   5578   8.983   4.448   9.306
    1HEX  C15   5579   8.625   4.355   8.786
    1HEX  O16   5580   8.582   4.315   8.916
    1HEX  C17   5581   8.513   4.200   8.934
    1HEX  O18   5582   8.495   4.113   8.849
    1HEX  C19   5583   8.452   4.190   9.072
    1HEX  C1A   5584   8.357   4.308   9.095
    1HEX  H1C   5585   9.230   4.203   7.828
    1HEX  H1D   5586   8.990   4.214   7.870
    1HEX  H1E   5587   9.009   4.388   7.864
    1HEX  H1F   5588   9.055   4.354   8.134
    1HEX  H1G   5589   8.968   4.206   8.098
    1HEX  H1H   5590   8.616   4.411   8.150
    1HEX  H1I   5591   8.682   4.527   8.254
    1HEX  H1J   5592   8.609   4.497   8.502
    1HEX  H1K   5593   8.458   4.414   8.511
    1HEX  H1M   5594   8.369   4.851   8.378
    1HEX  H1N   5595   8.542   4.823   8.385
    1HEX  H1O   5596   8.535   4.859   8.639
    1HEX  H1P   5597   8.366   4.904   8.623
    1HEX  H1Q   5598   8.667   5.087   8.518
    1HEX  H1R   5599   8.469   4.260   8.195
    1HEX  H1S   5600   8.438   4.202   8.354
    1HEX  H1T   5601   8.873   3.959   8.231
    1HEX  H1U   5602   8.809   4.006   8.381
    1HEX  H1V   5603   9.082   4.043   8.301
    1HEX  H1W   5604   9.008   4.136   8.430
    1HEX  H1Y   5605   8.678   4.155   8.461
    1HEX  H1Z   5606   8.609   4.256   8.551
    1HEX  H20   5607   8.805   4.471   8.593
    1HEX  H21   5608   8.938   4.363   8.613
    1HEX  H22   5609   8.743   4.105   8.703
    1HEX  H23   5610   8.763   4.136   8.872
    1HEX  H24   5611   9.160   4.029   8.738
    1HEX  H25   5612   9.192   3.998   8.908
    1HEX  H26   5613   9.198   4.278   8.782
    1HEX  H27   5614   9.341   4.181   8.811
    1HEX  H28   5615   9.165   4.351   9.023
    1HEX  H29   5616   8.851   4.509   8.822
    1HEX  H2A   5617   8.969   4.379   8.824
    1HEX  H2B   5618   8.855   4.297   9.214
    1HEX  H2C   5619   8.782   4.457   9.217
    1HEX  H2D   5620   9.009   4.553   9.288
    1HEX  H2E   5621   9.074   4.391   9.288
    1HEX  H2F   5622   8.788   4.548   9.430
    1HEX  H2G   5623   8.547   4.317   8.721
    1HEX  H2H   5624   8.612   4.463   8.780
    1HEX  H2I   5625   8.532   4.189   9.146
    1HEX  H2J   5626   8.398   4.095   9.082
    1HEX  H2K   5627   8.281   4.311   9.016
    1HEX  H2M   5628   8.411   4.402   9.091
    1HEX  H2N   5629   8.212   4.229   9.268
    1STR  S00   5630   9.196   4.220   7.956
    1STR  S0E   5631   8.543   5.062   8.561
    1STR  S0M   5632   9.179   4.188   8.361
    1STR  S0X   5633   9.284   4.297   8.992
    1STR  S14   5634   8.887   4.463   9.459
    1STR  S1B   5635   8.291   4.336   9.261
    1HEX  C01   5636   8.992   4.206  12.393
    1HEX  C02   5637   8.931   4.209  12.533
    1HEX  C03   5638   8.780   4.209  12.524
    1HEX  O04   5639   8.718   4.110  12.486
    1HEX  O05   5640   8.727   4.328  12.558
    1HEX  C06   5641   8.585   4.342  12.564
    1HEX  C07   5642   8.536   4.337  12.711
    1HEX  C08   5643   8.586   4.465  12.781
    1HEX  O09   5644   8.521   4.586  12.744
    1HEX  C0A   5645   8.458   4.657  12.839
    1HEX  O0B   5646   8.410   4.611  12.942
    1HEX  C0C   5647   8.457   4.806  12.809
    1HEX  C0D   5648   8.459   4.889  12.938
    1HEX  C0F   5649   8.380   4.337  12.714
    1HEX  O0G   5650   8.332   4.216  12.656
    1HEX  C0H   5651   8.286   4.215  12.530
    1HEX  O0I   5652   8.258   4.314  12.462
    1HEX  C0J   5653   8.278   4.075  12.473
    1HEX  C0K   5654   8.159   3.998  12.530
    1HEX  C0N   5655   8.582   4.205  12.783
    1HEX  O0O   5656   8.718   4.185  12.824
    1HEX  C0P   5657   8.787   4.267  12.919
    1HEX  C0Q   5658   8.752   4.261  13.072
    1HEX  C0R   5659   8.786   4.119  13.125
    1HEX  O0S   5660   8.926   4.092  13.118
    1HEX  C0T   5661   9.001   4.088  13.231
    1HEX  O0U   5662   8.959   4.101  13.346
    1HEX  C0V   5663   9.148   4.064  13.203
    1HEX  C0W   5664   9.230   4.193  13.216
    1HEX  C0Y   5665   8.844   4.366  13.139
    1HEX  O0Z   5666   8.820   4.366  13.279
    1HEX  C10   5667   8.908   4.421  13.361
    1HEX  O11   5668   9.012   4.477  13.328
    1HEX  C12   5669   8.865   4.404  13.506
    1HEX  C13   5670   8.973   4.448  13.604
    1HEX  C15   5671   8.605   4.301  13.105
    1HEX  O16   5672   8.567   4.279  13.240
    1HEX  C17   5673   8.496   4.171  13.275
    1HEX  O18   5674   8.466   4.077  13.201
    1HEX  C19   5675   8.449   4.178  13.419
    1HEX  C1A   5676   8.366   4.306  13.441
    1HEX  H1C   5677   9.207   4.209  12.269
    1HEX  H1D   5678   8.958   4.117  12.339
    1HEX  H1E   5679   8.958   4.293  12.335
    1HEX  H1F   5680   8.964   4.297  12.589
    1HEX  H1G   5681   8.962   4.121  12.590
    1HEX  H1H   5682   8.537   4.268  12.502
    1HEX  H1I   5683   8.558   4.438  12.519
    1HEX  H1J   5684   8.690   4.482  12.754
    1HEX  H1K   5685   8.583   4.451  12.888
    1HEX  H1M   5686   8.372   4.832  12.746
    1HEX  H1N   5687   8.547   4.827  12.751
    1HEX  H1O   5688   8.536   4.853  13.006
    1HEX  H1P   5689   8.364   4.880  12.990
    1HEX  H1Q   5690   8.663   5.086  12.879
    1HEX  H1R   5691   8.339   4.425  12.665
    1HEX  H1S   5692   8.344   4.342  12.817
    1HEX  H1T   5693   8.372   4.023  12.493
    1HEX  H1U   5694   8.270   4.083  12.364
    1HEX  H1V   5695   8.066   4.052  12.514
    1HEX  H1W   5696   8.170   3.986  12.638
    1HEX  H1X   5697   8.148   3.841  12.314
    1HEX  H1Y   5698   8.565   4.124  12.711
    1HEX  H1Z   5699   8.513   4.174  12.861
    1HEX  H20   5700   8.797   4.369  12.886
    1HEX  H21   5701   8.889   4.231  12.910
    1HEX  H22   5702   8.732   4.043  13.068
    1HEX  H23   5703   8.751   4.108  13.228
    1HEX  H24   5704   9.158   4.022  13.103
    1HEX  H25   5705   9.185   3.990  13.273
    1HEX  H26   5706   9.188   4.273  13.155
    1HEX  H27   5707   9.333   4.177  13.184
    1HEX  H28   5708   9.155   4.348  13.367
    1HEX  H29   5709   8.825   4.466  13.102
    1HEX  H2A   5710   8.949   4.345  13.119
    1HEX  H2B   5711   8.840   4.299  13.521
    1HEX  H2C   5712   8.773   4.462  13.518
    1HEX  H2D   5713   9.005   4.551  13.583
    1HEX  H2E   5714   9.062   4.386  13.592
    1HEX  H2F   5715   8.784   4.544  13.781
    1HEX  H2G   5716   8.532   4.253  13.042
    1HEX  H2H   5717   8.591   4.408  13.091
    1HEX  H2I   5718   8.536   4.177  13.484
    1HEX  H2J   5719   8.390   4.089  13.441
    1HEX  H2K   5720   8.286   4.311  13.368
    1HEX  H2M   5721   8.428   4.394  13.427
    1HEX  H2N   5722   8.213   4.232  13.625
    1STR  S00   5723   9.173   4.215  12.399
    1STR  S0E   5724   8.541   5.050  12.921
    1STR  S0M   5725   8.160   3.837  12.447
    1STR  S0X   5726   9.279   4.297  13.356
    1STR  S14   5727   8.889   4.463  13.764
    1STR  S1B   5728   8.299   4.332  13.607
    1HEX  C01   5729   8.992   8.567  16.753
    1HEX  C02   5730   8.931   8.569  16.893
    1HEX  C03   5731   8.780   8.570  16.884
    1HEX  O04   5732   8.718   8.470  16.846
    1HEX  O05   5733   8.727   8.688  16.918
    1HEX  C06   5734   8.585   8.703  16.924
    1HEX  C07   5735   8.536   8.697  17.071
    1HEX  C08   5736   8.585   8.825  17.141
    1HEX  O09   5737   8.521   8.946  17.105
    1HEX  C0A   5738   8.458   9.017  17.199
    1HEX  O0B   5739   8.410   8.971  17.303
    1HEX  C0C   5740   8.457   9.166  17.169
    1HEX  C0D   5741   8.459   9.250  17.298
    1HEX  C0F   5742   8.380   8.697  17.074
    1HEX  O0G   5743   8.332   8.576  17.016
    1HEX  C0H   5744   8.286   8.575  16.890
    1HEX  O0I   5745   8.258   8.674  16.822
    1HEX  C0J   5746   8.278   8.435  16.832
    1HEX  C0K   5747   8.159   8.358  16.890
    1HEX  C0N   5748   8.582   8.565  17.143
    1HEX  O0O   5749   8.718   8.545  17.184
    1HEX  C0P   5750   8.787   8.627  17.279
    1HEX  C0Q   5751   8.752   8.621  17.432
    1HEX  C0R   5752   8.786   8.479   0.045
    1HEX  O0S   5753   8.926   8.452   0.038
    1HEX  C0T   5754   9.000   8.448   0.151
    1HEX  O0U   5755   8.959   8.461   0.266
    1HEX  C0V   5756   9.148   8.424   0.123
    1HEX  C0W   5757   9.230   8.553   0.136
    1HEX  C0Y   5758   8.844   8.726   0.059
    1HEX  O0Z   5759   8.820   8.726   0.199
    1HEX  C10   5760   8.908   8.780   0.281
    1HEX  O11   5761   9.012   8.837   0.248
    1HEX  C12   5762   8.865   8.764   0.426
    1HEX  C13   5763   8.973   8.808   0.525
    1HEX  C15   5764   8.605   8.661   0.025
    1HEX  O16   5765   8.567   8.639   0.160
    1HEX  C17   5766   8.496   8.531   0.195
    1HEX  O18   5767   8.466   8.438   0.121
    1HEX  C19   5768   8.449   8.538   0.339
    1HEX  C1A   5769   8.366   8.666   0.361
    1HEX  H1C   5770   9.207   8.570  16.630
    1HEX  H1D   5771   8.958   8.478  16.699
    1HEX  H1E   5772   8.958   8.653  16.695
    1HEX  H1F   5773   8.964   8.657  16.949
    1HEX  H1G   5774   8.962   8.482  16.950
    1HEX  H1H   5775   8.537   8.628  16.862
    1HEX  H1I   5776   8.558   8.798  16.879
    1HEX  H1J   5777   8.689   8.842  17.114
    1HEX  H1K   5778   8.582   8.811  17.248
    1HEX  H1M   5779   8.372   9.192  17.106
    1HEX  H1N   5780   8.547   9.187  17.111
    1HEX  H1O   5781   8.536   9.213  17.366
    1HEX  H1P   5782   8.364   9.240  17.350
    1HEX  H1Q   5783   8.663   9.445  17.239
    1HEX  H1R   5784   8.339   8.785  17.025
    1HEX  H1S   5785   8.344   8.702  17.177
    1HEX  H1T   5786   8.372   8.383  16.853
    1HEX  H1U   5787   8.270   8.443  16.724
    1HEX  H1V   5788   8.066   8.412  16.874
    1HEX  H1W   5789   8.170   8.346  16.998
    1HEX  H1X   5790   8.148   8.201  16.674
    1HEX  H1Y   5791   8.565   8.484  17.071
    1HEX  H1Z   5792   8.513   8.534  17.221
    1HEX  H20   5793   8.797   8.729  17.246
    1HEX  H21   5794   8.889   8.591  17.270
    1HEX  H22   5795   8.732   8.403  17.428
    1HEX  H23   5796   8.751   8.468   0.148
    1HEX  H24   5797   9.158   8.382   0.023
    1HEX  H25   5798   9.185   8.350   0.193
    1HEX  H26   5799   9.188   8.633   0.075
    1HEX  H27   5800   9.333   8.537   0.104
    1HEX  H28   5801   9.155   8.708   0.287
    1HEX  H29   5802   8.825   8.826   0.022
    1HEX  H2A   5803   8.949   8.705   0.039
    1HEX  H2B   5804   8.840   8.659   0.441
    1HEX  H2C   5805   8.773   8.821   0.438
    1HEX  H2D   5806   9.005   8.910   0.503
    1HEX  H2E   5807   9.062   8.745   0.513
    1HEX  H2F   5808   8.784   8.904   0.701
    1HEX  H2G   5809   8.532   8.613  17.402
    1HEX  H2H   5810   8.591   8.768   0.011
    1HEX  H2I   5811   8.536   8.537   0.404
    1HEX  H2J   5812   8.390   8.449   0.361
    1HEX  H2K   5813   8.286   8.672   0.288
    1HEX  H2M   5814   8.428   8.754   0.347
    1HEX  H2N   5815   8.213   8.592   0.546
    1STR  S00   5816   9.173   8.576  16.759
    1STR  S0E   5817   8.541   9.411  17.281
    1STR  S0M   5818   8.160   8.196  16.807
    1STR  S0X   5819   9.279   8.657   0.276
    1STR  S14   5820   8.888   8.822   0.684
    1STR  S1B   5821   8.299   8.692   0.527
    1HEX  C01   5822   8.365   8.914   3.867
    1HEX  C02   5823   8.522   8.909   3.841
    1HEX  C03   5824   8.592   8.776   3.813
    1HEX  O04   5825   8.644   8.750   3.705
    1HEX  O05   5826   8.600   8.698   3.920
    1HEX  C06   5827   8.488   8.617   3.942
    1HEX  C07   5828   8.449   8.605   4.090
    1HEX  C08   5829   8.465   8.735   4.174
    1HEX  O09   5830   8.451   8.866   4.123
    1HEX  C0A   5831   8.468   8.970   4.208
    1HEX  O0B   5832   8.479   8.960   4.331
    1HEX  C0C   5833   8.481   9.107   4.140
    1HEX  C0D   5834   8.478   9.224   4.239
    1HEX  C0F   5835   8.298   8.568   4.093
    1HEX  O0G   5836   8.269   8.467   3.996
    1HEX  C0H   5837   8.200   8.497   3.884
    1HEX  O0I   5838   8.135   8.598   3.863
    1HEX  C0J   5839   8.216   8.392   3.776
    1HEX  C0K   5840   8.113   8.280   3.794
    1HEX  C0N   5841   8.529   8.485   4.154
    1HEX  O0O   5842   8.674   8.487   4.154
    1HEX  C0P   5843   8.757   8.585   4.219
    1HEX  C0Q   5844   8.753   8.599   4.375
    1HEX  C0R   5845   8.792   8.463   4.437
    1HEX  O0S   5846   8.932   8.437   4.420
    1HEX  C0T   5847   9.014   8.442   4.527
    1HEX  O0U   5848   8.982   8.461   4.644
    1HEX  C0V   5849   9.160   8.422   4.488
    1HEX  C0W   5850   9.240   8.552   4.498
    1HEX  C0Y   5851   8.854   8.710   4.419
    1HEX  O0Z   5852   8.833   8.726   4.557
    1HEX  C10   5853   8.923   8.780   4.637
    1HEX  O11   5854   9.030   8.830   4.603
    1HEX  C12   5855   8.876   8.770   4.781
    1HEX  C13   5856   8.982   8.814   4.883
    1HEX  C15   5857   8.615   8.646   4.430
    1HEX  O16   5858   8.586   8.618   4.566
    1HEX  C17   5859   8.500   8.519   4.595
    1HEX  O18   5860   8.464   8.429   4.519
    1HEX  C19   5861   8.441   8.536   4.733
    1HEX  C1A   5862   8.358   8.665   4.737
    1HEX  H1D   5863   8.311   8.872   3.782
    1HEX  H1E   5864   8.331   9.016   3.882
    1HEX  H1F   5865   8.576   8.946   3.927
    1HEX  H1G   5866   8.550   8.974   3.758
    1HEX  H1H   5867   8.505   8.519   3.897
    1HEX  H1I   5868   8.404   8.658   3.886
    1HEX  H1J   5869   8.567   8.742   4.206
    1HEX  H1K   5870   8.402   8.730   4.263
    1HEX  H1M   5871   8.401   9.119   4.068
    1HEX  H1N   5872   8.575   9.108   4.085
    1HEX  H1O   5873   8.553   9.210   4.318
    1HEX  H1P   5874   8.381   9.231   4.287
    1HEX  H1Q   5875   8.659   9.438   4.153
    1HEX  H1R   5876   8.238   8.658   4.074
    1HEX  H1S   5877   8.267   8.533   4.191
    1HEX  H1T   5878   8.318   8.353   3.781
    1HEX  H1U   5879   8.205   8.440   3.678
    1HEX  H1V   5880   8.012   8.320   3.779
    1HEX  H1W   5881   8.117   8.241   3.895
    1HEX  H1X   5882   8.162   8.197   3.575
    1HEX  H1Y   5883   8.506   8.397   4.094
    1HEX  H1Z   5884   8.491   8.454   4.250
    1HEX  H20   5885   8.754   8.680   4.165
    1HEX  H21   5886   8.858   8.552   4.194
    1HEX  H22   5887   8.735   8.383   4.390
    1HEX  H23   5888   8.766   8.459   4.542
    1HEX  H24   5889   9.164   8.381   4.387
    1HEX  H25   5890   9.202   8.347   4.555
    1HEX  H26   5891   9.194   8.632   4.439
    1HEX  H27   5892   9.342   8.539   4.461
    1HEX  H28   5893   9.169   8.702   4.648
    1HEX  H29   5894   8.834   8.805   4.369
    1HEX  H2A   5895   8.957   8.683   4.396
    1HEX  H2B   5896   8.847   8.667   4.799
    1HEX  H2C   5897   8.786   8.831   4.789
    1HEX  H2D   5898   9.017   8.915   4.861
    1HEX  H2E   5899   9.070   8.749   4.874
    1HEX  H2F   5900   8.785   8.902   5.059
    1HEX  H2G   5901   8.534   8.606   4.374
    1HEX  H2H   5902   8.606   8.755   4.420
    1HEX  H2I   5903   8.523   8.539   4.806
    1HEX  H2J   5904   8.380   8.448   4.756
    1HEX  H2K   5905   8.285   8.665   4.656
    1HEX  H2M   5906   8.422   8.752   4.721
    1HEX  H2N   5907   8.206   8.592   4.906
    1STR  S00   5908   8.200   8.929   3.959
    1STR  S0E   5909   8.541   9.387   4.192
    1STR  S0M   5910   8.171   8.140   3.695
    1STR  S0X   5911   9.294   8.653   4.639
    1STR  S14   5912   8.891   8.824   5.039
    1STR  S1B   5913   8.285   8.700   4.898
    1HEX  C01   5914   8.992   8.567   8.033
    1HEX  C02   5915   8.931   8.569   8.173
    1HEX  C03   5916   8.780   8.570   8.164
    1HEX  O04   5917   8.718   8.470   8.126
    1HEX  O05   5918   8.727   8.688   8.198
    1HEX  C06   5919   8.585   8.703   8.204
    1HEX  C07   5920   8.536   8.697   8.351
    1HEX  C08   5921   8.585   8.825   8.421
    1HEX  O09   5922   8.521   8.946   8.385
    1HEX  C0A   5923   8.458   9.017   8.479
    1HEX  O0B   5924   8.410   8.971   8.583
    1HEX  C0C   5925   8.457   9.166   8.449
    1HEX  C0D   5926   8.459   9.250   8.578
    1HEX  C0F   5927   8.380   8.697   8.354
    1HEX  O0G   5928   8.332   8.576   8.296
    1HEX  C0H   5929   8.286   8.575   8.170
    1HEX  O0I   5930   8.258   8.674   8.102
    1HEX  C0J   5931   8.278   8.435   8.112
    1HEX  C0K   5932   8.159   8.358   8.170
    1HEX  C0N   5933   8.582   8.565   8.423
    1HEX  O0O   5934   8.718   8.545   8.464
    1HEX  C0P   5935   8.787   8.627   8.559
    1HEX  C0Q   5936   8.752   8.621   8.712
    1HEX  C0R   5937   8.786   8.479   8.765
    1HEX  O0S   5938   8.926   8.452   8.758
    1HEX  C0T   5939   9.000   8.448   8.871
    1HEX  O0U   5940   8.959   8.461   8.986
    1HEX  C0V   5941   9.148   8.424   8.843
    1HEX  C0W   5942   9.230   8.553   8.856
    1HEX  C0Y   5943   8.844   8.726   8.779
    1HEX  O0Z   5944   8.820   8.726   8.919
    1HEX  C10   5945   8.908   8.780   9.001
    1HEX  O11   5946   9.012   8.837   8.968
    1HEX  C12   5947   8.865   8.764   9.146
    1HEX  C13   5948   8.973   8.808   9.245
    1HEX  C15   5949   8.605   8.661   8.745
    1HEX  O16   5950   8.567   8.639   8.880
    1HEX  C17   5951   8.496   8.531   8.915
    1HEX  O18   5952   8.466   8.438   8.841
    1HEX  C19   5953   8.449   8.538   9.059
    1HEX  C1A   5954   8.366   8.666   9.081
    1HEX  H1C   5955   9.207   8.570   7.909
    1HEX  H1D   5956   8.958   8.478   7.979
    1HEX  H1E   5957   8.958   8.653   7.975
    1HEX  H1F   5958   8.964   8.657   8.229
    1HEX  H1G   5959   8.962   8.482   8.230
    1HEX  H1H   5960   8.537   8.628   8.142
    1HEX  H1I   5961   8.558   8.798   8.159
    1HEX  H1J   5962   8.689   8.842   8.394
    1HEX  H1K   5963   8.582   8.811   8.528
    1HEX  H1M   5964   8.372   9.192   8.386
    1HEX  H1N   5965   8.547   9.187   8.391
    1HEX  H1O   5966   8.536   9.213   8.646
    1HEX  H1P   5967   8.364   9.240   8.630
    1HEX  H1Q   5968   8.663   9.445   8.519
    1HEX  H1R   5969   8.339   8.785   8.305
    1HEX  H1S   5970   8.344   8.702   8.457
    1HEX  H1T   5971   8.372   8.383   8.133
    1HEX  H1U   5972   8.270   8.443   8.004
    1HEX  H1V   5973   8.066   8.412   8.154
    1HEX  H1W   5974   8.170   8.346   8.278
    1HEX  H1X   5975   8.148   8.201   7.954
    1HEX  H1Y   5976   8.565   8.484   8.351
    1HEX  H1Z   5977   8.513   8.534   8.501
    1HEX  H20   5978   8.797   8.729   8.526
    1HEX  H21   5979   8.889   8.591   8.550
    1HEX  H22   5980   8.732   8.403   8.708
    1HEX  H23   5981   8.751   8.468   8.868
    1HEX  H24   5982   9.158   8.382   8.743
    1HEX  H25   5983   9.185   8.350   8.913
    1HEX  H26   5984   9.188   8.633   8.795
    1HEX  H27   5985   9.333   8.537   8.824
    1HEX  H28   5986   9.155   8.708   9.007
    1HEX  H29   5987   8.825   8.826   8.742
    1HEX  H2A   5988   8.949   8.705   8.759
    1HEX  H2B   5989   8.840   8.659   9.161
    1HEX  H2C   5990   8.773   8.821   9.158
    1HEX  H2D   5991   9.005   8.910   9.223
    1HEX  H2E   5992   9.062   8.745   9.233
    1HEX  H2F   5993   8.784   8.904   9.421
    1HEX  H2G   5994   8.532   8.613   8.682
    1HEX  H2H   5995   8.591   8.768   8.731
    1HEX  H2I   5996   8.536   8.537   9.124
    1HEX  H2J   5997   8.390   8.449   9.081
    1HEX  H2K   5998   8.286   8.672   9.008
    1HEX  H2M   5999   8.428   8.754   9.067
    1HEX  H2N   6000   8.213   8.592   9.266
    1STR  S00   6001   9.173   8.576   8.039
    1STR  S0E   6002   8.541   9.411   8.561
    1STR  S0M   6003   8.160   8.196   8.087
    1STR  S0X   6004   9.279   8.657   8.996
    1STR  S14   6005   8.889   8.822   9.404
    1STR  S1B   6006   8.299   8.692   9.247
    1HEX  C01   6007   8.992   8.567  12.393
    1HEX  C02   6008   8.931   8.569  12.533
    1HEX  C03   6009   8.780   8.570  12.524
    1HEX  O04   6010   8.718   8.470  12.486
    1HEX  O05   6011   8.727   8.688  12.558
    1HEX  C06   6012   8.585   8.703  12.564
    1HEX  C07   6013   8.536   8.697  12.711
    1HEX  C08   6014   8.585   8.825  12.781
    1HEX  O09   6015   8.521   8.946  12.745
    1HEX  C0A   6016   8.458   9.017  12.839
    1HEX  O0B   6017   8.410   8.971  12.943
    1HEX  C0C   6018   8.457   9.166  12.809
    1HEX  C0D   6019   8.459   9.250  12.938
    1HEX  C0F   6020   8.380   8.697  12.714
    1HEX  O0G   6021   8.332   8.576  12.656
    1HEX  C0H   6022   8.286   8.575  12.530
    1HEX  O0I   6023   8.258   8.674  12.462
    1HEX  C0J   6024   8.278   8.435  12.472
    1HEX  C0K   6025   8.159   8.358  12.530
    1HEX  C0N   6026   8.582   8.565  12.783
    1HEX  O0O   6027   8.718   8.545  12.824
    1HEX  C0P   6028   8.787   8.627  12.919
    1HEX  C0Q   6029   8.752   8.621  13.072
    1HEX  C0R   6030   8.786   8.479  13.125
    1HEX  O0S   6031   8.926   8.452  13.118
    1HEX  C0T   6032   9.000   8.448  13.231
    1HEX  O0U   6033   8.959   8.461  13.346
    1HEX  C0V   6034   9.148   8.424  13.203
    1HEX  C0W   6035   9.230   8.553  13.216
    1HEX  C0Y   6036   8.844   8.726  13.139
    1HEX  O0Z   6037   8.820   8.726  13.279
    1HEX  C10   6038   8.908   8.780  13.361
    1HEX  O11   6039   9.012   8.837  13.328
    1HEX  C12   6040   8.865   8.764  13.506
    1HEX  C13   6041   8.973   8.808  13.605
    1HEX  C15   6042   8.605   8.661  13.105
    1HEX  O16   6043   8.567   8.639  13.240
    1HEX  C17   6044   8.496   8.531  13.275
    1HEX  O18   6045   8.466   8.438  13.201
    1HEX  C19   6046   8.449   8.538  13.419
    1HEX  C1A   6047   8.366   8.666  13.441
    1HEX  H1C   6048   9.207   8.570  12.270
    1HEX  H1D   6049   8.958   8.478  12.339
    1HEX  H1E   6050   8.958   8.653  12.335
    1HEX  H1F   6051   8.964   8.657  12.589
    1HEX  H1G   6052   8.962   8.482  12.590
    1HEX  H1H   6053   8.537   8.628  12.502
    1HEX  H1I   6054   8.558   8.798  12.519
    1HEX  H1J   6055   8.689   8.842  12.754
    1HEX  H1K   6056   8.582   8.811  12.888
    1HEX  H1M   6057   8.372   9.192  12.746
    1HEX  H1N   6058   8.547   9.187  12.751
    1HEX  H1O   6059   8.536   9.213  13.006
    1HEX  H1P   6060   8.364   9.240  12.990
    1HEX  H1Q   6061   8.663   9.445  12.879
    1HEX  H1R   6062   8.339   8.785  12.665
    1HEX  H1S   6063   8.344   8.702  12.817
    1HEX  H1T   6064   8.372   8.383  12.493
    1HEX  H1U   6065   8.270   8.443  12.364
    1HEX  H1V   6066   8.066   8.412  12.514
    1HEX  H1W   6067   8.170   8.346  12.638
    1HEX  H1X   6068   8.148   8.201  12.314
    1HEX  H1Y   6069   8.565   8.484  12.711
    1HEX  H1Z   6070   8.513   8.534  12.861
    1HEX  H20   6071   8.797   8.729  12.886
    1HEX  H21   6072   8.889   8.591  12.910
    1HEX  H22   6073   8.732   8.403  13.068
    1HEX  H23   6074   8.751   8.468  13.228
    1HEX  H24   6075   9.158   8.382  13.103
    1HEX  H25   6076   9.185   8.350  13.273
    1HEX  H26   6077   9.188   8.633  13.155
    1HEX  H27   6078   9.333   8.537  13.184
    1HEX  H28   6079   9.155   8.708  13.367
    1HEX  H29   6080   8.825   8.826  13.102
    1HEX  H2A   6081   8.949   8.705  13.119
    1HEX  H2B   6082   8.840   8.659  13.521
    1HEX  H2C   6083   8.773   8.821  13.518
    1HEX  H2D   6084   9.005   8.910  13.583
    1HEX  H2E   6085   9.062   8.745  13.593
    1HEX  H2F   6086   8.784   8.904  13.781
    1HEX  H2G   6087   8.532   8.613  13.042
    1HEX  H2H   6088   8.591   8.768  13.091
    1HEX  H2I   6089   8.536   8.537  13.484
    1HEX  H2J   6090   8.390   8.449  13.441
    1HEX  H2K   6091   8.286   8.672  13.368
    1HEX  H2M   6092   8.428   8.754  13.427
    1HEX  H2N   6093   8.213   8.592  13.625
    1STR  S00   6094   9.173   8.576  12.399
    1STR  S0E   6095   8.541   9.411  12.921
    1STR  S0M   6096   8.160   8.196  12.447
    1STR  S0X   6097   9.279   8.657  13.356
    1STR  S14   6098   8.888   8.822  13.764
    1STR  S1B   6099   8.299   8.692  13.607
    1HEX  C01   6100   8.992  12.927  16.753
    1HEX  C02   6101   8.931  12.929  16.893
    1HEX  C03   6102   8.780  12.930  16.884
    1HEX  O04   6103   8.718  12.830  16.846
    1HEX  O05   6104   8.727  13.048  16.918
    1HEX  C06   6105   8.585  13.063  16.924
    1HEX  C07   6106   8.536  13.057  17.071
    1HEX  C08   6107   8.586  13.185  17.141
    1HEX  O09   6108   8.521  13.306  17.104
    1HEX  C0A   6109   8.458  13.377  17.199
    1HEX  O0B   6110   8.410  13.331  17.302
    1HEX  C0C   6111   8.457  13.526  17.169
    1HEX  C0D   6112   8.459  13.610  17.298
    1HEX  C0F   6113   8.380  13.057  17.074
    1HEX  O0G   6114   8.332  12.936  17.016
    1HEX  C0H   6115   8.286  12.935  16.890
    1HEX  O0I   6116   8.258  13.034  16.822
    1HEX  C0J   6117   8.278  12.795  16.832
    1HEX  C0K   6118   8.159  12.718  16.890
    1HEX  C0N   6119   8.582  12.925  17.143
    1HEX  O0O   6120   8.718  12.905  17.184
    1HEX  C0P   6121   8.787  12.987  17.279
    1HEX  C0Q   6122   8.752  12.981  17.432
    1HEX  C0R   6123   8.786  12.839   0.045
    1HEX  O0S   6124   8.926  12.813   0.038
    1HEX  C0T   6125   9.001  12.808   0.151
    1HEX  O0U   6126   8.959  12.821   0.266
    1HEX  C0V   6127   9.148  12.785   0.123
    1HEX  C0W   6128   9.230  12.913   0.136
    1HEX  C0Y   6129   8.844  13.086   0.059
    1HEX  O0Z   6130   8.820  13.086   0.199
    1HEX  C10   6131   8.908  13.141   0.281
    1HEX  O11   6132   9.012  13.197   0.248
    1HEX  C12   6133   8.865  13.124   0.426
    1HEX  C13   6134   8.973  13.168   0.524
    1HEX  C15   6135   8.605  13.021   0.025
    1HEX  O16   6136   8.567  12.999   0.160
    1HEX  C17   6137   8.496  12.891   0.195
    1HEX  O18   6138   8.466  12.798   0.121
    1HEX  C19   6139   8.449  12.898   0.339
    1HEX  C1A   6140   8.366  13.026   0.361
    1HEX  H1C   6141   9.207  12.930  16.630
    1HEX  H1D   6142   8.958  12.838  16.699
    1HEX  H1E   6143   8.958  13.013  16.695
    1HEX  H1F   6144   8.964  13.017  16.948
    1HEX  H1G   6145   8.962  12.842  16.950
    1HEX  H1H   6146   8.537  12.988  16.862
    1HEX  H1I   6147   8.558  13.158  16.879
    1HEX  H1J   6148   8.689  13.202  17.114
    1HEX  H1K   6149   8.583  13.171  17.248
    1HEX  H1M   6150   8.372  13.552  17.106
    1HEX  H1N   6151   8.547  13.547  17.111
    1HEX  H1O   6152   8.536  13.573  17.366
    1HEX  H1P   6153   8.364  13.600  17.350
    1HEX  H1Q   6154   8.663  13.806  17.239
    1HEX  H1R   6155   8.339  13.145  17.025
    1HEX  H1S   6156   8.344  13.062  17.177
    1HEX  H1T   6157   8.372  12.744  16.853
    1HEX  H1U   6158   8.270  12.803  16.724
    1HEX  H1V   6159   8.066  12.773  16.874
    1HEX  H1W   6160   8.170  12.706  16.998
    1HEX  H1X   6161   8.148  12.561  16.674
    1HEX  H1Y   6162   8.565  12.844  17.071
    1HEX  H1Z   6163   8.513  12.895  17.221
    1HEX  H20   6164   8.797  13.089  17.246
    1HEX  H21   6165   8.889  12.951  17.270
    1HEX  H22   6166   8.732  12.763  17.428
    1HEX  H23   6167   8.751  12.828   0.148
    1HEX  H24   6168   9.158  12.742   0.023
    1HEX  H25   6169   9.185  12.710   0.193
    1HEX  H26   6170   9.188  12.993   0.075
    1HEX  H27   6171   9.333  12.897   0.104
    1HEX  H28   6172   9.155  13.068   0.287
    1HEX  H29   6173   8.825  13.187   0.022
    1HEX  H2A   6174   8.949  13.065   0.039
    1HEX  H2B   6175   8.840  13.019   0.441
    1HEX  H2C   6176   8.773  13.182   0.438
    1HEX  H2D   6177   9.005  13.271   0.503
    1HEX  H2E   6178   9.062  13.106   0.512
    1HEX  H2F   6179   8.784  13.264   0.701
    1HEX  H2G   6180   8.532  12.973  17.402
    1HEX  H2H   6181   8.591  13.128   0.011
    1HEX  H2I   6182   8.536  12.897   0.404
    1HEX  H2J   6183   8.390  12.809   0.361
    1HEX  H2K   6184   8.286  13.032   0.288
    1HEX  H2M   6185   8.428  13.114   0.347
    1HEX  H2N   6186   8.213  12.952   0.546
    1STR  S00   6187   9.173  12.936  16.759
    1STR  S0E   6188   8.541  13.771  17.281
    1STR  S0M   6189   8.160  12.557  16.807
    1STR  S0X   6190   9.279  13.017   0.276
    1STR  S14   6191   8.889  13.183   0.684
    1STR  S1B   6192   8.299  13.052   0.527
    1HEX  C01   6193   8.992  12.927   3.673
    1HEX  C02   6194   8.931  12.929   3.813
    1HEX  C03   6195   8.780  12.930   3.804
    1HEX  O04   6196   8.718  12.830   3.766
    1HEX  O05   6197   8.727  13.048   3.838
    1HEX  C06   6198   8.585  13.063   3.844
    1HEX  C07   6199   8.536  13.057   3.991
    1HEX  C08   6200   8.586  13.185   4.061
    1HEX  O09   6201   8.521  13.306   4.024
    1HEX  C0A   6202   8.458  13.377   4.119
    1HEX  O0B   6203   8.410  13.331   4.223
    1HEX  C0C   6204   8.457  13.526   4.089
    1HEX  C0D   6205   8.459  13.610   4.218
    1HEX  C0F   6206   8.380  13.057   3.994
    1HEX  O0G   6207   8.332  12.936   3.936
    1HEX  C0H   6208   8.286  12.935   3.810
    1HEX  O0I   6209   8.258  13.034   3.742
    1HEX  C0J   6210   8.278  12.795   3.752
    1HEX  C0K   6211   8.159  12.718   3.810
    1HEX  C0N   6212   8.582  12.925   4.063
    1HEX  O0O   6213   8.718  12.905   4.104
    1HEX  C0P   6214   8.787  12.987   4.199
    1HEX  C0Q   6215   8.752  12.981   4.352
    1HEX  C0R   6216   8.786  12.839   4.405
    1HEX  O0S   6217   8.926  12.813   4.398
    1HEX  C0T   6218   9.001  12.808   4.511
    1HEX  O0U   6219   8.959  12.821   4.626
    1HEX  C0V   6220   9.148  12.785   4.483
    1HEX  C0W   6221   9.230  12.913   4.496
    1HEX  C0Y   6222   8.844  13.086   4.419
    1HEX  O0Z   6223   8.820  13.086   4.559
    1HEX  C10   6224   8.908  13.141   4.641
    1HEX  O11   6225   9.012  13.197   4.608
    1HEX  C12   6226   8.865  13.124   4.786
    1HEX  C13   6227   8.973  13.168   4.884
    1HEX  C15   6228   8.605  13.021   4.385
    1HEX  O16   6229   8.567  12.999   4.520
    1HEX  C17   6230   8.496  12.891   4.555
    1HEX  O18   6231   8.466  12.798   4.481
    1HEX  C19   6232   8.449  12.898   4.699
    1HEX  C1A   6233   8.366  13.026   4.721
    1HEX  H1C   6234   9.207  12.930   3.550
    1HEX  H1D   6235   8.958  12.838   3.619
    1HEX  H1E   6236   8.958  13.013   3.615
    1HEX  H1F   6237   8.964  13.017   3.868
    1HEX  H1G   6238   8.962  12.842   3.870
    1HEX  H1H   6239   8.537  12.988   3.782
    1HEX  H1I   6240   8.558  13.158   3.799
    1HEX  H1J   6241   8.689  13.202   4.034
    1HEX  H1K   6242   8.583  13.171   4.168
    1HEX  H1M   6243   8.372  13.552   4.026
    1HEX  H1N   6244   8.547  13.547   4.031
    1HEX  H1O   6245   8.536  13.573   4.286
    1HEX  H1P   6246   8.364  13.600   4.270
    1HEX  H1Q   6247   8.663  13.806   4.159
    1HEX  H1R   6248   8.339  13.145   3.945
    1HEX  H1S   6249   8.344  13.062   4.097
    1HEX  H1T   6250   8.372  12.744   3.773
    1HEX  H1U   6251   8.270  12.803   3.644
    1HEX  H1V   6252   8.066  12.773   3.794
    1HEX  H1W   6253   8.170  12.706   3.918
    1HEX  H1X   6254   8.148  12.561   3.594
    1HEX  H1Y   6255   8.565  12.844   3.991
    1HEX  H1Z   6256   8.513  12.895   4.141
    1HEX  H20   6257   8.797  13.089   4.166
    1HEX  H21   6258   8.889  12.951   4.190
    1HEX  H22   6259   8.732  12.763   4.348
    1HEX  H23   6260   8.751  12.828   4.508
    1HEX  H24   6261   9.158  12.742   4.383
    1HEX  H25   6262   9.185  12.710   4.553
    1HEX  H26   6263   9.188  12.993   4.435
    1HEX  H27   6264   9.333  12.897   4.464
    1HEX  H28   6265   9.155  13.068   4.647
    1HEX  H29   6266   8.825  13.187   4.382
    1HEX  H2A   6267   8.949  13.065   4.399
    1HEX  H2B   6268   8.840  13.019   4.801
    1HEX  H2C   6269   8.773  13.182   4.798
    1HEX  H2D   6270   9.005  13.271   4.863
    1HEX  H2E   6271   9.062  13.106   4.872
    1HEX  H2F   6272   8.784  13.264   5.061
    1HEX  H2G   6273   8.532  12.973   4.322
    1HEX  H2H   6274   8.591  13.128   4.371
    1HEX  H2I   6275   8.536  12.897   4.764
    1HEX  H2J   6276   8.390  12.809   4.721
    1HEX  H2K   6277   8.286  13.032   4.648
    1HEX  H2M   6278   8.428  13.114   4.707
    1HEX  H2N   6279   8.213  12.952   4.906
    1STR  S00   6280   9.173  12.936   3.679
    1STR  S0E   6281   8.541  13.771   4.201
    1STR  S0M   6282   8.160  12.557   3.727
    1STR  S0X   6283   9.279  13.017   4.636
    1STR  S14   6284   8.889  13.182   5.044
    1STR  S1B   6285   8.299  13.052   4.887
    1HEX  C01   6286   8.935  13.073   8.940
    1HEX  C02   6287   8.974  13.085   8.773
    1HEX  C03   6288   8.910  13.027   8.633
    1HEX  O04   6289   8.943  12.915   8.596
    1HEX  O05   6290   8.827  13.111   8.544
    1HEX  C06   6291   8.751  13.068   8.418
    1HEX  C07   6292   8.586  13.060   8.413
    1HEX  C08   6293   8.531  13.176   8.501
    1HEX  O09   6294   8.513  13.300   8.436
    1HEX  C0A   6295   8.436  13.392   8.497
    1HEX  O0B   6296   8.355  13.368   8.587
    1HEX  C0C   6297   8.463  13.534   8.452
    1HEX  C0D   6298   8.473  13.626   8.574
    1HEX  C0F   6299   8.507  13.078   8.276
    1HEX  O0G   6300   8.471  12.958   8.203
    1HEX  C0H   6301   8.347  12.946   8.145
    1HEX  O0I   6302   8.265  13.037   8.132
    1HEX  C0J   6303   8.313  12.806   8.094
    1HEX  C0K   6304   8.187  12.747   8.161
    1HEX  C0N   6305   8.527  12.922   8.459
    1HEX  O0O   6306   8.513  12.899   8.597
    1HEX  C0P   6307   8.632  12.912   8.670
    1HEX  C0Q   6308   8.623  12.967   8.813
    1HEX  C0R   6309   8.707  12.863   8.895
    1HEX  O0S   6310   8.838  12.831   8.843
    1HEX  C0T   6311   8.920  12.743   8.908
    1HEX  O0U   6312   8.891  12.685   9.013
    1HEX  C0V   6313   9.058  12.721   8.844
    1HEX  C0W   6314   9.171  12.801   8.913
    1HEX  C0Y   6315   8.660  13.124   8.822
    1HEX  O0Z   6316   8.687  13.195   8.944
    1HEX  C10   6317   8.765  13.311   8.942
    1HEX  O11   6318   8.823  13.356   8.843
    1HEX  C12   6319   8.781  13.381   9.077
    1HEX  C13   6320   8.925  13.401   9.128
    1HEX  C15   6321   8.472  12.962   8.842
    1HEX  O16   6322   8.451  12.967   8.978
    1HEX  C17   6323   8.422  12.856   9.043
    1HEX  O18   6324   8.415  12.742   8.996
    1HEX  C19   6325   8.391  12.886   9.187
    1HEX  C1A   6326   8.325  13.024   9.197
    1HEX  H1D   6327   8.968  12.980   8.985
    1HEX  H1E   6328   8.990  13.149   8.993
    1HEX  H1F   6329   8.989  13.190   8.750
    1HEX  H1G   6330   9.074  13.045   8.764
    1HEX  H1H   6331   8.790  12.972   8.383
    1HEX  H1I   6332   8.779  13.138   8.340
    1HEX  H1J   6333   8.604  13.201   8.577
    1HEX  H1K   6334   8.441  13.144   8.554
    1HEX  H1M   6335   8.384  13.567   8.384
    1HEX  H1N   6336   8.557  13.535   8.396
    1HEX  H1O   6337   8.543  13.585   8.647
    1HEX  H1P   6338   8.376  13.632   8.624
    1HEX  H1Q   6339   8.669  13.803   8.514
    1HEX  H1R   6340   8.548  13.154   8.209
    1HEX  H1S   6341   8.410  13.121   8.303
    1HEX  H1T   6342   8.398  12.740   8.110
    1HEX  H1U   6343   8.297  12.812   7.986
    1HEX  H1V   6344   8.099  12.808   8.142
    1HEX  H1W   6345   8.198  12.739   8.269
    1HEX  H1X   6346   8.143  12.560   7.963
    1HEX  H1Y   6347   8.576  12.838   8.409
    1HEX  H1Z   6348   8.422  12.913   8.430
    1HEX  H20   6349   8.671  12.997   8.627
    1HEX  H21   6350   8.704  12.833   8.649
    1HEX  H22   6351   8.654  12.767   8.894
    1HEX  H23   6352   8.713  12.891   9.000
    1HEX  H24   6353   9.055  12.737   8.736
    1HEX  H25   6354   9.082  12.616   8.858
    1HEX  H26   6355   9.187  12.896   8.862
    1HEX  H27   6356   9.267  12.750   8.902
    1HEX  H28   6357   9.184  13.029   9.057
    1HEX  H29   6358   8.579  13.183   8.782
    1HEX  H2A   6359   8.739  13.151   8.755
    1HEX  H2B   6360   8.724  13.320   9.146
    1HEX  H2C   6361   8.731  13.478   9.071
    1HEX  H2D   6362   8.983  13.470   9.067
    1HEX  H2E   6363   8.984  13.310   9.137
    1HEX  H2F   6364   8.918  13.301   9.382
    1HEX  H2G   6365   8.422  12.874   8.800
    1HEX  H2H   6366   8.420  13.045   8.794
    1HEX  H2I   6367   8.486  12.883   9.241
    1HEX  H2J   6368   8.327  12.806   9.222
    1HEX  H2K   6369   8.251  13.036   9.117
    1HEX  H2M   6370   8.400  13.102   9.178
    1HEX  H2N   6371   8.201  12.971   9.269
    1STR  S00   6372   8.885  13.060   9.138
    1STR  S0E   6373   8.543  13.792   8.556
    1STR  S0M   6374   8.163  12.580   8.094
    1STR  S0X   6375   9.260  12.936   8.996
    1STR  S14   6376   8.975  13.393   9.303
    1STR  S1B   6377   8.234  13.076   9.343
    1HEX  C01   6378   8.973  12.936  12.366
    1HEX  C02   6379   8.930  12.932  12.513
    1HEX  C03   6380   8.779  12.927  12.524
    1HEX  O04   6381   8.717  12.824  12.498
    1HEX  O05   6382   8.727  13.045  12.560
    1HEX  C06   6383   8.586  13.061  12.565
    1HEX  C07   6384   8.535  13.057  12.711
    1HEX  C08   6385   8.585  13.185  12.781
    1HEX  O09   6386   8.520  13.306  12.745
    1HEX  C0A   6387   8.458  13.377  12.839
    1HEX  O0B   6388   8.411  13.332  12.944
    1HEX  C0C   6389   8.458  13.526  12.809
    1HEX  C0D   6390   8.460  13.610  12.938
    1HEX  C0F   6391   8.380  13.058  12.713
    1HEX  O0G   6392   8.331  12.937  12.655
    1HEX  C0H   6393   8.285  12.936  12.529
    1HEX  O0I   6394   8.256  13.035  12.462
    1HEX  C0J   6395   8.278  12.796  12.471
    1HEX  C0K   6396   8.160  12.718  12.529
    1HEX  C0N   6397   8.579  12.925  12.784
    1HEX  O0O   6398   8.715  12.904  12.826
    1HEX  C0P   6399   8.785  12.986  12.920
    1HEX  C0Q   6400   8.752  12.981  13.072
    1HEX  C0R   6401   8.786  12.840  13.126
    1HEX  O0S   6402   8.926  12.813  13.119
    1HEX  C0T   6403   9.000  12.808  13.232
    1HEX  O0U   6404   8.959  12.821  13.347
    1HEX  C0V   6405   9.148  12.785  13.203
    1HEX  C0W   6406   9.230  12.913  13.217
    1HEX  C0Y   6407   8.843  13.086  13.139
    1HEX  O0Z   6408   8.820  13.087  13.278
    1HEX  C10   6409   8.908  13.141  13.361
    1HEX  O11   6410   9.013  13.196  13.328
    1HEX  C12   6411   8.865  13.124  13.506
    1HEX  C13   6412   8.973  13.169  13.604
    1HEX  C15   6413   8.605  13.021  13.106
    1HEX  O16   6414   8.567  12.999  13.241
    1HEX  C17   6415   8.496  12.891  13.276
    1HEX  O18   6416   8.466  12.797  13.202
    1HEX  C19   6417   8.448  12.899  13.420
    1HEX  C1A   6418   8.366  13.026  13.441
    1HEX  H1D   6419   8.902  12.881  12.303
    1HEX  H1E   6420   8.977  13.038  12.329
    1HEX  H1F   6421   8.968  13.019  12.567
    1HEX  H1G   6422   8.970  12.843  12.563
    1HEX  H1H   6423   8.537  12.987  12.502
    1HEX  H1I   6424   8.561  13.157  12.519
    1HEX  H1J   6425   8.689  13.203  12.754
    1HEX  H1K   6426   8.582  13.172  12.888
    1HEX  H1M   6427   8.373  13.552  12.746
    1HEX  H1N   6428   8.548  13.547  12.751
    1HEX  H1O   6429   8.537  13.574  13.006
    1HEX  H1P   6430   8.365  13.601  12.990
    1HEX  H1Q   6431   8.662  13.804  12.879
    1HEX  H1R   6432   8.339  13.146  12.663
    1HEX  H1S   6433   8.342  13.063  12.816
    1HEX  H1T   6434   8.373  12.745  12.492
    1HEX  H1U   6435   8.271  12.804  12.363
    1HEX  H1V   6436   8.067  12.772  12.512
    1HEX  H1W   6437   8.171  12.706  12.637
    1HEX  H1X   6438   8.149  12.562  12.314
    1HEX  H1Y   6439   8.563  12.844  12.713
    1HEX  H1Z   6440   8.510  12.895  12.862
    1HEX  H20   6441   8.796  13.088  12.885
    1HEX  H21   6442   8.888  12.950  12.910
    1HEX  H22   6443   8.732  12.764  13.069
    1HEX  H23   6444   8.750  12.828  13.229
    1HEX  H24   6445   9.158  12.742  13.104
    1HEX  H25   6446   9.185  12.710  13.274
    1HEX  H26   6447   9.188  12.993  13.156
    1HEX  H27   6448   9.333  12.898  13.184
    1HEX  H28   6449   9.156  13.068  13.367
    1HEX  H29   6450   8.825  13.187  13.101
    1HEX  H2A   6451   8.948  13.065  13.119
    1HEX  H2B   6452   8.840  13.019  13.521
    1HEX  H2C   6453   8.773  13.182  13.518
    1HEX  H2D   6454   9.005  13.271  13.583
    1HEX  H2E   6455   9.062  13.106  13.593
    1HEX  H2F   6456   8.784  13.264  13.781
    1HEX  H2G   6457   8.532  12.973  13.043
    1HEX  H2H   6458   8.591  13.128  13.092
    1HEX  H2I   6459   8.536  12.897  13.485
    1HEX  H2J   6460   8.390  12.810  13.442
    1HEX  H2K   6461   8.285  13.032  13.368
    1HEX  H2M   6462   8.428  13.115  13.427
    1HEX  H2N   6463   8.213  12.951  13.625
    1STR  S00   6464   8.906  13.047  12.238
    1STR  S0E   6465   8.540  13.772  12.921
    1STR  S0M   6466   8.161  12.556  12.447
    1STR  S0X   6467   9.280  13.017  13.356
    1STR  S14   6468   8.889  13.182  13.764
    1STR  S1B   6469   8.299  13.052  13.608
    1HEX  C01   6470  13.352  17.287  16.753
    1HEX  C02   6471  13.292  17.289  16.893
    1HEX  C03   6472  13.140  17.289  16.884
    1HEX  O04   6473  13.078  17.190  16.846
    1HEX  O05   6474  13.087  17.408  16.918
    1HEX  C06   6475  12.945  17.422  16.924
    1HEX  C07   6476  12.896  17.417  17.071
    1HEX  C08   6477  12.945   0.104  17.141
    1HEX  O09   6478  12.881   0.225  17.104
    1HEX  C0A   6479  12.818   0.297  17.199
    1HEX  O0B   6480  12.770   0.251  17.303
    1HEX  C0C   6481  12.817   0.446  17.169
    1HEX  C0D   6482  12.819   0.529  17.298
    1HEX  C0F   6483  12.740  17.416  17.074
    1HEX  O0G   6484  12.692  17.295  17.016
    1HEX  C0H   6485  12.646  17.294  16.890
    1HEX  O0I   6486  12.618  17.393  16.822
    1HEX  C0J   6487  12.638  17.154  16.833
    1HEX  C0K   6488  12.519  17.077  16.890
    1HEX  C0N   6489  12.942  17.284  17.143
    1HEX  O0O   6490  13.078  17.265  17.184
    1HEX  C0P   6491  13.147  17.346  17.279
    1HEX  C0Q   6492  13.112  17.340  17.432
    1HEX  C0R   6493  13.146  17.199   0.045
    1HEX  O0S   6494  13.286  17.172   0.038
    1HEX  C0T   6495  13.361  17.167   0.151
    1HEX  O0U   6496  13.319  17.180   0.266
    1HEX  C0V   6497  13.508  17.144   0.123
    1HEX  C0W   6498  13.590  17.273   0.136
    1HEX  C0Y   6499  13.204   0.005   0.059
    1HEX  O0Z   6500  13.180   0.005   0.199
    1HEX  C10   6501  13.268   0.060   0.281
    1HEX  O11   6502  13.372   0.117   0.248
    1HEX  C12   6503  13.225   0.044   0.426
    1HEX  C13   6504  13.333   0.088   0.524
    1HEX  C15   6505  12.965  17.380   0.025
    1HEX  O16   6506  12.927  17.358   0.160
    1HEX  C17   6507  12.856  17.251   0.195
    1HEX  O18   6508  12.826  17.157   0.121
    1HEX  C19   6509  12.809  17.258   0.339
    1HEX  C1A   6510  12.726  17.385   0.361
    1HEX  H1C   6511  13.567  17.290  16.629
    1HEX  H1D   6512  13.319  17.198  16.699
    1HEX  H1E   6513  13.318  17.373  16.695
    1HEX  H1F   6514  13.324  17.377  16.949
    1HEX  H1G   6515  13.322  17.202  16.950
    1HEX  H1H   6516  12.897  17.347  16.862
    1HEX  H1I   6517  12.918   0.078  16.879
    1HEX  H1J   6518  13.049   0.122  17.114
    1HEX  H1K   6519  12.942   0.091  17.248
    1HEX  H1M   6520  12.732   0.472  17.106
    1HEX  H1N   6521  12.907   0.466  17.111
    1HEX  H1O   6522  12.896   0.493  17.366
    1HEX  H1P   6523  12.724   0.520  17.350
    1HEX  H1Q   6524  13.023   0.726  17.239
    1HEX  H1R   6525  12.699   0.065  17.025
    1HEX  H1S   6526  12.704  17.421  17.177
    1HEX  H1T   6527  12.732  17.103  16.853
    1HEX  H1U   6528  12.630  17.163  16.724
    1HEX  H1V   6529  12.426  17.132  16.873
    1HEX  H1W   6530  12.530  17.065  16.998
    1HEX  H1X   6531  12.508  16.920  16.674
    1HEX  H1Y   6532  12.926  17.204  17.071
    1HEX  H1Z   6533  12.873  17.254  17.221
    1HEX  H20   6534  13.157   0.009  17.246
    1HEX  H21   6535  13.249  17.311  17.270
    1HEX  H22   6536  13.093  17.123  17.428
    1HEX  H23   6537  13.111  17.187   0.148
    1HEX  H24   6538  13.518  17.101   0.023
    1HEX  H25   6539  13.545  17.070   0.193
    1HEX  H26   6540  13.548  17.353   0.075
    1HEX  H27   6541  13.693  17.257   0.104
    1HEX  H28   6542  13.515  17.428   0.287
    1HEX  H29   6543  13.185   0.106   0.022
    1HEX  H2A   6544  13.309  17.425   0.039
    1HEX  H2B   6545  13.200  17.378   0.441
    1HEX  H2C   6546  13.133   0.101   0.438
    1HEX  H2D   6547  13.365   0.191   0.503
    1HEX  H2E   6548  13.422   0.026   0.513
    1HEX  H2F   6549  13.143   0.183   0.701
    1HEX  H2G   6550  12.892  17.332  17.402
    1HEX  H2H   6551  12.951   0.047   0.011
    1HEX  H2I   6552  12.896  17.256   0.404
    1HEX  H2J   6553  12.750  17.169   0.361
    1HEX  H2K   6554  12.645  17.391   0.288
    1HEX  H2M   6555  12.788   0.034   0.347
    1HEX  H2N   6556  12.573  17.311   0.546
    1STR  S00   6557  13.533  17.296  16.759
    1STR  S0E   6558  12.901   0.690  17.281
    1STR  S0M   6559  12.520  16.916  16.807
    1STR  S0X   6560  13.639  17.377   0.276
    1STR  S14   6561  13.248   0.102   0.684
    1STR  S1B   6562  12.659  17.412   0.527
    1HEX  C01   6563  13.353  17.287   3.673
    1HEX  C02   6564  13.294  17.287   3.814
    1HEX  C03   6565  13.142  17.282   3.808
    1HEX  O04   6566  13.083  17.180   3.774
    1HEX  O05   6567  13.086  17.400   3.838
    1HEX  C06   6568  12.944  17.412   3.841
    1HEX  C07   6569  12.892  17.420   3.987
    1HEX  C08   6570  12.939   0.115   4.043
    1HEX  O09   6571  12.874   0.233   3.998
    1HEX  C0A   6572  12.812   0.310   4.090
    1HEX  O0B   6573  12.761   0.271   4.194
    1HEX  C0C   6574  12.818   0.458   4.056
    1HEX  C0D   6575  12.828   0.544   4.183
    1HEX  C0F   6576  12.737  17.417   3.987
    1HEX  O0G   6577  12.691  17.295   3.931
    1HEX  C0H   6578  12.644  17.291   3.805
    1HEX  O0I   6579  12.616  17.389   3.736
    1HEX  C0J   6580  12.636  17.150   3.750
    1HEX  C0K   6581  12.517  17.074   3.809
    1HEX  C0N   6582  12.937  17.299   4.078
    1HEX  O0O   6583  13.074  17.278   4.113
    1HEX  C0P   6584  13.147  17.362   4.204
    1HEX  C0Q   6585  13.118  17.361   4.358
    1HEX  C0R   6586  13.142  17.218   4.414
    1HEX  O0S   6587  13.280  17.182   4.404
    1HEX  C0T   6588  13.356  17.168   4.515
    1HEX  O0U   6589  13.317  17.176   4.631
    1HEX  C0V   6590  13.503  17.143   4.483
    1HEX  C0W   6591  13.589  17.269   4.498
    1HEX  C0Y   6592  13.222   0.017   4.420
    1HEX  O0Z   6593  13.208   0.006   4.560
    1HEX  C10   6594  13.290   0.067   4.642
    1HEX  O11   6595  13.390   0.130   4.611
    1HEX  C12   6596  13.243   0.048   4.785
    1HEX  C13   6597  13.347   0.092   4.888
    1HEX  C15   6598  12.976  17.414   4.396
    1HEX  O16   6599  12.959   0.060   4.510
    1HEX  C17   6600  12.843   0.132   4.520
    1HEX  O18   6601  12.740   0.105   4.459
    1HEX  C19   6602  12.848   0.250   4.619
    1HEX  C1A   6603  12.874   0.393   4.557
    1HEX  H1C   6604  13.567  17.290   3.549
    1HEX  H1D   6605  13.319  17.198   3.619
    1HEX  H1E   6606  13.317  17.373   3.617
    1HEX  H1F   6607  13.325  17.376   3.870
    1HEX  H1G   6608  13.327  17.200   3.871
    1HEX  H1H   6609  12.898  17.331   3.785
    1HEX  H1I   6610  12.916   0.063   3.788
    1HEX  H1J   6611  13.045   0.130   4.024
    1HEX  H1K   6612  12.927   0.112   4.148
    1HEX  H1M   6613  12.731   0.485   3.996
    1HEX  H1N   6614  12.907   0.473   3.994
    1HEX  H1O   6615  12.910   0.511   4.247
    1HEX  H1P   6616  12.737   0.533   4.243
    1HEX  H1Q   6617  13.025   0.699   4.124
    1HEX  H1R   6618  12.695   0.064   3.935
    1HEX  H1S   6619  12.698  17.425   4.089
    1HEX  H1T   6620  12.730  17.099   3.771
    1HEX  H1U   6621  12.628  17.157   3.641
    1HEX  H1V   6622  12.425  17.130   3.792
    1HEX  H1W   6623  12.529  17.064   3.917
    1HEX  H1X   6624  12.508  16.920   3.595
    1HEX  H1Y   6625  12.911  17.208   4.022
    1HEX  H1Z   6626  12.876  17.293   4.168
    1HEX  H20   6627  13.153   0.023   4.167
    1HEX  H21   6628  13.249  17.325   4.192
    1HEX  H22   6629  13.084  17.145   4.358
    1HEX  H23   6630  13.107  17.212   4.517
    1HEX  H24   6631  13.510  17.102   4.383
    1HEX  H25   6632  13.540  17.066   4.552
    1HEX  H26   6633  13.549  17.350   4.437
    1HEX  H27   6634  13.691  17.251   4.466
    1HEX  H28   6635  13.524  17.428   4.649
    1HEX  H29   6636  13.205   0.121   4.390
    1HEX  H2A   6637  13.324  17.432   4.392
    1HEX  H2B   6638  13.217  17.383   4.799
    1HEX  H2C   6639  13.150   0.105   4.794
    1HEX  H2D   6640  13.380   0.194   4.868
    1HEX  H2E   6641  13.436   0.029   4.879
    1HEX  H2F   6642  13.143   0.186   5.060
    1HEX  H2G   6643  12.899  17.337   4.390
    1HEX  H2H   6644  12.951   0.046   4.321
    1HEX  H2I   6645  12.919   0.226   4.698
    1HEX  H2J   6646  12.750   0.249   4.667
    1HEX  H2K   6647  12.797   0.464   4.585
    1HEX  H2M   6648  12.970   0.432   4.590
    1STR  S00   6649  13.534  17.294   3.679
    1STR  S0E   6650  12.893   0.708   4.143
    1STR  S0M   6651  12.520  16.912   3.727
    1STR  S0X   6652  13.644  17.369   4.638
    1STR  S14   6653  13.250   0.109   5.041
    1STR  S1B   6654  12.878   0.578   4.532
    1HEX  C01   6655  13.355  17.287   8.032
    1HEX  C02   6656  13.290  17.292   8.170
    1HEX  C03   6657  13.139  17.296   8.156
    1HEX  O04   6658  13.076  17.198   8.115
    1HEX  O05   6659  13.086  17.415   8.191
    1HEX  C06   6660  12.945  17.430   8.200
    1HEX  C07   6661  12.898  17.420   8.347
    1HEX  C08   6662  12.944   0.107   8.421
    1HEX  O09   6663  12.879   0.228   8.384
    1HEX  C0A   6664  12.816   0.299   8.478
    1HEX  O0B   6665  12.767   0.253   8.582
    1HEX  C0C   6666  12.816   0.448   8.449
    1HEX  C0D   6667  12.820   0.530   8.579
    1HEX  C0F   6668  12.743  17.414   8.354
    1HEX  O0G   6669  12.698  17.293   8.295
    1HEX  C0H   6670  12.648  17.292   8.170
    1HEX  O0I   6671  12.616  17.391   8.105
    1HEX  C0J   6672  12.639  17.152   8.112
    1HEX  C0K   6673  12.519  17.076   8.170
    1HEX  C0N   6674  12.954  17.291   8.415
    1HEX  O0O   6675  13.093  17.285   8.457
    1HEX  C0P   6676  13.152  17.361   8.565
    1HEX  C0Q   6677  13.120  17.322   8.712
    1HEX  C0R   6678  13.167  17.175   8.730
    1HEX  O0S   6679  13.308  17.167   8.702
    1HEX  C0T   6680  13.397  17.122   8.793
    1HEX  O0U   6681  13.371  17.075   8.903
    1HEX  C0V   6682  13.542  17.133   8.748
    1HEX  C0W   6683  13.609  17.259   8.805
    1HEX  C0Y   6684  13.201  17.411   8.811
    1HEX  O0Z   6685  13.157  17.378   8.943
    1HEX  C10   6686  13.234  17.313   9.030
    1HEX  O11   6687  13.355  17.332   9.044
    1HEX  C12   6688  13.153  17.219   9.121
    1HEX  C13   6689  13.129  17.071   9.072
    1HEX  C15   6690  12.969  17.347   8.743
    1HEX  O16   6691  12.922  17.321   8.874
    1HEX  C17   6692  12.839  17.220   8.900
    1HEX  O18   6693  12.811  17.128   8.823
    1HEX  C19   6694  12.774  17.231   9.037
    1HEX  C1A   6695  12.721  17.373   9.061
    1HEX  H1C   6696  13.567  17.290   7.909
    1HEX  H1D   6697  13.321  17.198   7.979
    1HEX  H1E   6698  13.323  17.373   7.973
    1HEX  H1F   6699  13.322  17.379   8.227
    1HEX  H1G   6700  13.316  17.204   8.229
    1HEX  H1H   6701  12.895  17.356   8.137
    1HEX  H1I   6702  12.917   0.087   8.158
    1HEX  H1J   6703  13.049   0.125   8.397
    1HEX  H1K   6704  12.938   0.092   8.528
    1HEX  H1M   6705  12.732   0.475   8.386
    1HEX  H1N   6706  12.907   0.468   8.392
    1HEX  H1O   6707  12.896   0.493   8.647
    1HEX  H1P   6708  12.725   0.521   8.632
    1HEX  H1Q   6709  13.022   0.725   8.519
    1HEX  H1R   6710  12.698   0.062   8.307
    1HEX  H1S   6711  12.709  17.416   8.457
    1HEX  H1T   6712  12.732  17.100   8.133
    1HEX  H1U   6713  12.630  17.161   8.004
    1HEX  H1V   6714  12.427  17.131   8.153
    1HEX  H1W   6715  12.531  17.064   8.278
    1HEX  H1X   6716  12.507  16.920   7.952
    1HEX  H1Y   6717  12.946  17.212   8.340
    1HEX  H1Z   6718  12.885  17.250   8.488
    1HEX  H20   6719  13.145   0.029   8.552
    1HEX  H21   6720  13.259  17.345   8.549
    1HEX  H22   6721  13.113  17.108   8.664
    1HEX  H23   6722  13.144  17.140   8.830
    1HEX  H24   6723  13.547  17.130   8.639
    1HEX  H25   6724  13.593  17.045   8.785
    1HEX  H26   6725  13.561  17.350   8.768
    1HEX  H27   6726  13.714  17.262   8.778
    1HEX  H28   6727  13.539  17.371   9.002
    1HEX  H29   6728  13.181   0.077   8.793
    1HEX  H2A   6729  13.309  17.399   8.800
    1HEX  H2B   6730  13.058  17.271   9.135
    1HEX  H2C   6731  13.202  17.221   9.218
    1HEX  H2D   6732  13.056  17.019   9.135
    1HEX  H2E   6733  13.221  17.012   9.079
    1HEX  H2G   6734  12.904  17.294   8.675
    1HEX  H2H   6735  12.947   0.013   8.727
    1HEX  H2I   6736  12.848  17.204   9.112
    1HEX  H2J   6737  12.694  17.158   9.044
    1HEX  H2K   6738  12.648  17.400   8.984
    1HEX  H2M   6739  12.801   0.007   9.057
    1HEX  H2N   6740  12.570  17.316   9.262
    1STR  S00   6741  13.536  17.297   8.039
    1STR  S0E   6742  12.900   0.692   8.562
    1STR  S0M   6743  12.518  16.915   8.085
    1STR  S0X   6744  13.660  17.365   8.943
    1STR  S14   6745  13.099  16.896   9.011
    1STR  S1B   6746  12.675  17.395   9.235
    1HEX  C01   6747  13.413  17.294  12.355
    1HEX  C02   6748  13.337  17.288  12.487
    1HEX  C03   6749  13.189  17.282  12.459
    1HEX  O04   6750  13.140  17.184  12.403
    1HEX  O05   6751  13.124  17.387  12.510
    1HEX  C06   6752  12.983  17.379  12.524
    1HEX  C07   6753  12.941  17.356  12.673
    1HEX  C08   6754  12.949   0.050  12.750
    1HEX  O09   6755  12.846   0.079  12.847
    1HEX  C0A   6756  12.766  17.432  12.920
    1HEX  O0B   6757  12.648   0.019  12.942
    1HEX  C0C   6758  12.832  17.315  12.993
    1HEX  C0D   6759  12.830  17.154  12.964
    1HEX  C0F   6760  12.788  17.322  12.655
    1HEX  O0G   6761  12.760  17.218  12.564
    1HEX  C0H   6762  12.663  17.234  12.474
    1HEX  O0I   6763  12.608  17.340  12.442
    1HEX  C0J   6764  12.622  17.102  12.413
    1HEX  C0K   6765  12.505  17.044  12.494
    1HEX  C0N   6766  13.031  17.242  12.741
    1HEX  O0O   6767  13.082  17.239  12.879
    1HEX  C0P   6768  13.177  17.323  12.950
    1HEX  C0Q   6769  13.187  17.297  13.109
    1HEX  C0R   6770  13.246  17.157  13.135
    1HEX  O0S   6771  13.388  17.155  13.133
    1HEX  C0T   6772  13.455  17.152  13.250
    1HEX  O0U   6773  13.406  17.155  13.363
    1HEX  C0V   6774  13.604  17.147  13.230
    1HEX  C0W   6775  13.664  17.288  13.219
    1HEX  C0Y   6776  13.270  17.413  13.170
    1HEX  O0Z   6777  13.257  17.409  13.310
    1HEX  C10   6778  13.298   0.069  13.385
    1HEX  O11   6779  13.370   0.162  13.348
    1HEX  C12   6780  13.242   0.060  13.526
    1HEX  C13   6781  13.346   0.099  13.631
    1HEX  C15   6782  13.051  17.298  13.184
    1HEX  O16   6783  13.032  17.274  13.324
    1HEX  C17   6784  12.911  17.225  13.364
    1HEX  O18   6785  12.836  17.155  13.296
    1HEX  C19   6786  12.862  17.277  13.498
    1HEX  C1A   6787  12.763  17.392  13.473
    1HEX  H1C   6788  13.584  17.292  12.272
    1HEX  H1D   6789  13.390  17.205  12.296
    1HEX  H1E   6790  13.378  17.379  12.297
    1HEX  H1F   6791  13.357  17.375  12.550
    1HEX  H1G   6792  13.363  17.200  12.545
    1HEX  H1H   6793  12.944  17.302  12.458
    1HEX  H1I   6794  12.938   0.029  12.482
    1HEX  H1J   6795  12.939   0.131  12.677
    1HEX  H1K   6796  13.050   0.069  12.785
    1HEX  H1M   6797  12.803  17.331  13.097
    1HEX  H1N   6798  12.930  17.356  12.982
    1HEX  H1O   6799  12.927  17.107  12.970
    1HEX  H1P   6800  12.770  17.105  13.040
    1HEX  H1R   6801  12.734  17.414  12.630
    1HEX  H1S   6802  12.739  17.283  12.743
    1HEX  H1T   6803  12.709  17.037  12.416
    1HEX  H1U   6804  12.595  17.118  12.309
    1HEX  H1V   6805  12.419  17.112  12.490
    1HEX  H1W   6806  12.532  17.034  12.599
    1HEX  H1X   6807  12.484  16.908  12.313
    1HEX  H1Y   6808  13.108  17.203  12.675
    1HEX  H1Z   6809  12.963  17.157  12.738
    1HEX  H20   6810  13.151  17.428  12.938
    1HEX  H21   6811  13.276  17.313  12.905
    1HEX  H22   6812  13.208  17.086  13.061
    1HEX  H23   6813  13.209  17.117  13.231
    1HEX  H24   6814  13.624  17.089  13.140
    1HEX  H25   6815  13.649  17.094  13.314
    1HEX  H26   6816  13.602  17.352  13.156
    1HEX  H27   6817  13.763  17.284  13.175
    1HEX  H28   6818  13.539  17.417  13.384
    1HEX  H29   6819  13.232   0.070  13.136
    1HEX  H2A   6820  13.375  17.409  13.141
    1HEX  H2B   6821  13.208  17.398  13.542
    1HEX  H2C   6822  13.155   0.125  13.530
    1HEX  H2D   6823  13.382   0.200  13.614
    1HEX  H2E   6824  13.433   0.034  13.623
    1HEX  H2F   6825  13.145   0.186  13.785
    1HEX  H2G   6826  12.998  17.216  13.138
    1HEX  H2H   6827  13.003  17.395  13.170
    1HEX  H2I   6828  12.944  17.307  13.562
    1HEX  H2J   6829  12.809  17.196  13.548
    1HEX  H2K   6830  12.684  17.362  13.403
    1HEX  H2M   6831  12.814   0.037  13.427
    1HEX  H2N   6832  12.564  17.332  13.621
    1STR  S00   6833  13.587  17.292  12.406
    1STR  S0E   6834  12.931  16.988  12.982
    1STR  S0M   6835  12.501  16.871  12.440
    1STR  S0X   6836  13.670  17.407  13.356
    1STR  S14   6837  13.247   0.100  13.784
    1STR  S1B   6838  12.640  -0.000  13.597
    1HEX  C01   6839  13.334   3.990  16.881
    1HEX  C02   6840  13.229   3.989  16.997
    1HEX  C03   6841  13.086   4.048  16.982
    1HEX  O04   6842  12.990   3.972  16.970
    1HEX  O05   6843  13.075   4.185  16.984
    1HEX  C06   6844  12.952   4.255  16.952
    1HEX  C07   6845  12.869   4.314  17.071
    1HEX  C08   6846  12.915   4.455  17.116
    1HEX  O09   6847  12.845   4.574  17.082
    1HEX  C0A   6848  12.801   4.652  17.184
    1HEX  O0B   6849  12.757   4.612  17.291
    1HEX  C0C   6850  12.821   4.801  17.157
    1HEX  C0D   6851  12.827   4.882  17.288
    1HEX  C0F   6852  12.719   4.331  17.037
    1HEX  O0G   6853  12.666   4.209  16.988
    1HEX  C0H   6854  12.633   4.199  16.859
    1HEX  O0I   6855  12.613   4.292  16.781
    1HEX  C0J   6856  12.628   4.055  16.814
    1HEX  C0K   6857  12.511   3.981  16.880
    1HEX  C0N   6858  12.877   4.212  17.187
    1HEX  O0O   6859  13.008   4.183  17.238
    1HEX  C0P   6860  13.097   4.286  17.284
    1HEX  C0Q   6861  13.125   4.282  17.435
    1HEX  C0R   6862  13.208   4.151   0.013
    1HEX  O0S   6863  13.295   4.124  17.338
    1HEX  C0T   6864  13.404   4.201  17.306
    1HEX  O0U   6865  13.473   4.256  17.391
    1HEX  C0V   6866  13.446   4.210  17.155
    1HEX  C0W   6867  13.361   4.284  17.041
    1HEX  C0Y   6868  13.203   4.411   0.040
    1HEX  O0Z   6869  13.164   4.474   0.162
    1HEX  C10   6870  13.242   4.574   0.210
    1HEX  O11   6871  13.355   4.601   0.169
    1HEX  C12   6872  13.180   4.658   0.322
    1HEX  C13   6873  13.182   4.811   0.291
    1HEX  C15   6874  12.983   4.287   0.060
    1HEX  O16   6875  12.966   4.251   0.196
    1HEX  C17   6876  12.871   4.160   0.227
    1HEX  O18   6877  12.824   4.074   0.152
    1HEX  C19   6878  12.814   4.179   0.366
    1HEX  C1A   6879  12.728   4.306   0.371
    1HEX  H1C   6880  13.493   4.131  16.665
    1HEX  H1D   6881  13.300   3.956  16.783
    1HEX  H1E   6882  13.396   4.078  16.870
    1HEX  H1F   6883  13.270   4.028  17.089
    1HEX  H1G   6884  13.213   3.883  17.018
    1HEX  H1H   6885  12.890   4.186  16.897
    1HEX  H1I   6886  12.975   4.334  16.880
    1HEX  H1J   6887  13.018   4.471  17.083
    1HEX  H1K   6888  12.911   4.452  17.225
    1HEX  H1M   6889  12.742   4.837  17.092
    1HEX  H1N   6890  12.915   4.812  17.104
    1HEX  H1O   6891  12.904   4.843  17.356
    1HEX  H1P   6892  12.732   4.876  17.342
    1HEX  H1Q   6893  13.017   5.074  17.246
    1HEX  H1R   6894  12.704   4.414  16.967
    1HEX  H1S   6895  12.663   4.360  17.126
    1HEX  H1T   6896  12.723   4.009  16.839
    1HEX  H1U   6897  12.620   4.056  16.705
    1HEX  H1V   6898  12.419   4.038  16.867
    1HEX  H1W   6899  12.528   3.974  16.987
    1HEX  H1X   6900  12.502   3.846  16.670
    1HEX  H1Y   6901  12.842   4.115  17.150
    1HEX  H1Z   6902  12.806   4.236  17.266
    1HEX  H20   6903  13.089   4.388  17.256
    1HEX  H21   6904  13.182   4.268  17.220
    1HEX  H22   6905  13.138   4.068   0.021
    1HEX  H23   6906  13.263   4.152   0.107
    1HEX  H24   6907  13.473   4.109  17.126
    1HEX  H25   6908  13.543   4.261  17.161
    1HEX  H26   6909  13.326   4.382  17.075
    1HEX  H27   6910  13.422   4.302  16.952
    1HEX  H29   6911  13.195   4.490  17.406
    1HEX  H2A   6912  13.310   4.391   0.047
    1HEX  H2B   6913  13.236   4.636   0.412
    1HEX  H2C   6914  13.078   4.623   0.339
    1HEX  H2D   6915  13.280   4.843   0.255
    1HEX  H2E   6916  13.160   4.871   0.379
    1HEX  H2G   6917  12.913   4.227   0.002
    1HEX  H2H   6918  12.942   4.388   0.049
    1HEX  H2I   6919  12.895   4.183   0.438
    1HEX  H2J   6920  12.753   4.091   0.390
    1HEX  H2K   6921  12.650   4.303   0.294
    1HEX  H2M   6922  12.789   4.394   0.352
    1HEX  H2N   6923  12.573   4.232   0.545
    1STR  S00   6924  13.460   4.039  16.758
    1STR  S0E   6925  12.890   5.052  17.281
    1STR  S0M   6926  12.520   3.819  16.799
    1STR  S0X   6927  13.294   4.325  16.866
    1STR  S14   6928  13.182   4.991   0.250
    1STR  S1B   6929  12.657   4.336   0.535
    1HEX  C01   6930  13.349   4.207   3.672
    1HEX  C02   6931  13.283   4.209   3.810
    1HEX  C03   6932  13.131   4.203   3.798
    1HEX  O04   6933  13.075   4.103   3.755
    1HEX  O05   6934  13.071   4.317   3.837
    1HEX  C06   6935  12.929   4.320   3.851
    1HEX  C07   6936  12.888   4.309   4.001
    1HEX  C08   6937  12.916   4.448   4.066
    1HEX  O09   6938  12.804   4.538   4.067
    1HEX  C0A   6939  12.741   4.564   4.184
    1HEX  O0B   6940  12.765   4.511   4.292
    1HEX  C0C   6941  12.631   4.670   4.175
    1HEX  C0D   6942  12.506   4.626   4.255
    1HEX  C0F   6943  12.736   4.277   4.012
    1HEX  O0G   6944  12.713   4.139   3.987
    1HEX  C0H   6945  12.679   4.095   3.865
    1HEX  O0I   6946  12.633   4.165   3.775
    1HEX  C0J   6947  12.711   3.947   3.842
    1HEX  C0K   6948  12.725   3.861   3.970
    1HEX  C0N   6949  12.961   4.189   4.072
    1HEX  O0O   6950  13.101   4.193   4.100
    1HEX  C0P   6951  13.158   4.279   4.198
    1HEX  C0Q   6952  13.122   4.264   4.350
    1HEX  C0R   6953  13.153   4.120   4.398
    1HEX  O0S   6954  13.293   4.093   4.394
    1HEX  C0T   6955  13.364   4.086   4.509
    1HEX  O0U   6956  13.321   4.097   4.623
    1HEX  C0V   6957  13.512   4.063   4.483
    1HEX  C0W   6958  13.593   4.193   4.496
    1HEX  C0Y   6959  13.213   4.366   4.422
    1HEX  O0Z   6960  13.187   4.362   4.561
    1HEX  C10   6961  13.271   4.421   4.645
    1HEX  O11   6962  13.373   4.483   4.614
    1HEX  C12   6963  13.225   4.404   4.788
    1HEX  C13   6964  13.333   4.448   4.888
    1HEX  C15   6965  12.976   4.305   4.386
    1HEX  O16   6966  12.936   4.278   4.519
    1HEX  C17   6967  12.858   4.173   4.549
    1HEX  O18   6968  12.828   4.082   4.473
    1HEX  C19   6969  12.806   4.180   4.691
    1HEX  C1A   6970  12.721   4.307   4.709
    1HEX  H1C   6971  13.566   4.210   3.549
    1HEX  H1D   6972  13.319   4.117   3.618
    1HEX  H1E   6973  13.315   4.292   3.613
    1HEX  H1F   6974  13.311   4.298   3.866
    1HEX  H1G   6975  13.314   4.123   3.870
    1HEX  H1H   6976  12.883   4.242   3.791
    1HEX  H1I   6977  12.892   4.413   3.808
    1HEX  H1J   6978  12.999   4.498   4.015
    1HEX  H1K   6979  12.952   4.437   4.167
    1HEX  H1M   6980  12.607   4.688   4.070
    1HEX  H1N   6981  12.673   4.762   4.215
    1HEX  H1O   6982  12.531   4.587   4.354
    1HEX  H1P   6983  12.437   4.709   4.269
    1HEX  H1R   6984  12.677   4.342   3.947
    1HEX  H1S   6985  12.701   4.297   4.113
    1HEX  H1T   6986  12.805   3.945   3.788
    1HEX  H1U   6987  12.635   3.907   3.775
    1HEX  H1V   6988  12.700   3.756   3.951
    1HEX  H1W   6989  12.662   3.896   4.051
    1HEX  H1Y   6990  12.954   4.105   4.003
    1HEX  H1Z   6991  12.906   4.150   4.157
    1HEX  H20   6992  13.155   4.382   4.165
    1HEX  H21   6993  13.265   4.256   4.190
    1HEX  H22   6994  13.101   4.047   4.336
    1HEX  H23   6995  13.114   4.104   4.498
    1HEX  H24   6996  13.524   4.020   4.384
    1HEX  H25   6997  13.548   3.990   4.555
    1HEX  H26   6998  13.550   4.272   4.435
    1HEX  H27   6999  13.696   4.178   4.464
    1HEX  H28   7000  13.515   4.348   4.648
    1HEX  H29   7001  13.196   4.468   4.387
    1HEX  H2A   7002  13.318   4.345   4.403
    1HEX  H2B   7003  13.200   4.298   4.803
    1HEX  H2C   7004  13.133   4.461   4.800
    1HEX  H2D   7005  13.364   4.550   4.868
    1HEX  H2E   7006  13.422   4.386   4.876
    1HEX  H2F   7007  13.143   4.544   5.059
    1HEX  H2G   7008  12.899   4.266   4.320
    1HEX  H2H   7009  12.967   4.413   4.378
    1HEX  H2I   7010  12.891   4.181   4.759
    1HEX  H2J   7011  12.748   4.091   4.712
    1HEX  H2K   7012  12.642   4.311   4.634
    1HEX  H2M   7013  12.782   4.396   4.695
    1HEX  H2N   7014  12.579   4.234   4.896
    1STR  S00   7015  13.529   4.217   3.678
    1STR  S0E   7016  12.365   4.528   4.314
    1STR  S0M   7017  12.785   3.709   4.052
    1STR  S0X   7018  13.639   4.298   4.636
    1STR  S14   7019  13.248   4.462   5.049
    1STR  S1B   7020  12.668   4.333   4.881
    1HEX  C01   7021  13.354   4.206   8.031
    1HEX  C02   7022  13.292   4.208   8.171
    1HEX  C03   7023  13.140   4.210   8.161
    1HEX  O04   7024  13.078   4.111   8.121
    1HEX  O05   7025  13.086   4.328   8.197
    1HEX  C06   7026  12.945   4.342   8.205
    1HEX  C07   7027  12.896   4.336   8.352
    1HEX  C08   7028  12.941   4.467   8.422
    1HEX  O09   7029  12.847   4.575   8.419
    1HEX  C0A   7030  12.771   4.600   8.528
    1HEX  O0B   7031  12.769   4.532   8.630
    1HEX  C0C   7032  12.685   4.725   8.516
    1HEX  C0D   7033  12.553   4.711   8.596
    1HEX  C0F   7034  12.741   4.329   8.355
    1HEX  O0G   7035  12.696   4.209   8.293
    1HEX  C0H   7036  12.645   4.211   8.169
    1HEX  O0I   7037  12.613   4.311   8.106
    1HEX  C0J   7038  12.635   4.072   8.110
    1HEX  C0K   7039  12.517   3.995   8.170
    1HEX  C0N   7040  12.946   4.204   8.422
    1HEX  O0O   7041  13.083   4.186   8.461
    1HEX  C0P   7042  13.151   4.269   8.556
    1HEX  C0Q   7043  13.115   4.261   8.709
    1HEX  C0R   7044  13.149   4.119   8.762
    1HEX  O0S   7045  13.289   4.093   8.756
    1HEX  C0T   7046  13.362   4.087   8.870
    1HEX  O0U   7047  13.320   4.100   8.985
    1HEX  C0V   7048  13.510   4.064   8.843
    1HEX  C0W   7049  13.591   4.193   8.856
    1HEX  C0Y   7050  13.206   4.366   8.777
    1HEX  O0Z   7051  13.182   4.365   8.917
    1HEX  C10   7052  13.268   4.421   9.000
    1HEX  O11   7053  13.372   4.478   8.968
    1HEX  C12   7054  13.224   4.403   9.144
    1HEX  C13   7055  13.332   4.448   9.244
    1HEX  C15   7056  12.968   4.301   8.743
    1HEX  O16   7057  12.930   4.278   8.878
    1HEX  C17   7058  12.857   4.171   8.912
    1HEX  O18   7059  12.829   4.077   8.839
    1HEX  C19   7060  12.807   4.180   9.055
    1HEX  C1A   7061  12.724   4.308   9.074
    1HEX  H1C   7062  13.568   4.210   7.908
    1HEX  H1D   7063  13.321   4.117   7.978
    1HEX  H1E   7064  13.320   4.292   7.974
    1HEX  H1F   7065  13.325   4.296   8.227
    1HEX  H1G   7066  13.321   4.121   8.228
    1HEX  H1H   7067  12.897   4.266   8.143
    1HEX  H1I   7068  12.916   4.437   8.159
    1HEX  H1J   7069  13.034   4.503   8.379
    1HEX  H1K   7070  12.965   4.448   8.525
    1HEX  H1M   7071  12.664   4.744   8.411
    1HEX  H1N   7072  12.744   4.809   8.552
    1HEX  H1O   7073  12.569   4.675   8.698
    1HEX  H1P   7074  12.500   4.806   8.604
    1HEX  H1R   7075  12.696   4.417   8.308
    1HEX  H1S   7076  12.704   4.329   8.458
    1HEX  H1T   7077  12.729   4.020   8.129
    1HEX  H1U   7078  12.625   4.082   8.002
    1HEX  H1V   7079  12.424   4.051   8.156
    1HEX  H1W   7080  12.530   3.983   8.278
    1HEX  H1X   7081  12.507   3.841   7.951
    1HEX  H1Y   7082  12.930   4.124   8.350
    1HEX  H1Z   7083  12.879   4.172   8.501
    1HEX  H20   7084  13.160   4.371   8.520
    1HEX  H21   7085  13.254   4.234   8.548
    1HEX  H22   7086  13.095   4.044   8.704
    1HEX  H23   7087  13.112   4.108   8.864
    1HEX  H24   7088  13.520   4.021   8.743
    1HEX  H25   7089  13.546   3.990   8.914
    1HEX  H26   7090  13.548   4.273   8.795
    1HEX  H27   7091  13.694   4.178   8.823
    1HEX  H28   7092  13.515   4.348   9.007
    1HEX  H29   7093  13.186   4.467   8.740
    1HEX  H2A   7094  13.311   4.346   8.758
    1HEX  H2B   7095  13.199   4.298   9.159
    1HEX  H2C   7096  13.132   4.461   9.156
    1HEX  H2D   7097  13.363   4.550   9.222
    1HEX  H2E   7098  13.421   4.385   9.232
    1HEX  H2F   7099  13.144   4.544   9.420
    1HEX  H2G   7100  12.894   4.255   8.680
    1HEX  H2H   7101  12.955   4.408   8.731
    1HEX  H2I   7102  12.893   4.180   9.122
    1HEX  H2J   7103  12.748   4.092   9.078
    1HEX  H2K   7104  12.644   4.313   9.000
    1HEX  H2M   7105  12.786   4.396   9.059
    1HEX  H2N   7106  12.579   4.233   9.260
    1STR  S00   7107  13.535   4.215   8.038
    1STR  S0E   7108  12.396   4.636   8.652
    1STR  S0M   7109  12.519   3.835   8.084
    1STR  S0X   7110  13.639   4.298   8.996
    1STR  S14   7111  13.249   4.463   9.404
    1STR  S1B   7112  12.667   4.333   9.244
    1HEX  C01   7113  13.399   4.260  12.332
    1HEX  C02   7114  13.341   4.297  12.468
    1HEX  C03   7115  13.201   4.357  12.459
    1HEX  O04   7116  13.138   4.368  12.354
    1HEX  O05   7117  13.158   4.392  12.580
    1HEX  C06   7118  13.026   4.439  12.604
    1HEX  C07   7119  12.976   4.379  12.739
    1HEX  C08   7120  12.879   4.481  12.815
    1HEX  O09   7121  12.861   4.616  12.767
    1HEX  C0A   7122  12.827   4.716  12.857
    1HEX  O0B   7123  12.785   4.696  12.971
    1HEX  C0C   7124  12.846   4.860  12.805
    1HEX  C0D   7125  12.871   4.971  12.912
    1HEX  C0F   7126  12.924   4.232  12.711
    1HEX  O0G   7127  13.022   4.128  12.749
    1HEX  C0H   7128  13.139   4.098  12.678
    1HEX  O0I   7129  13.138   4.089  12.556
    1HEX  C0J   7130  13.262   4.047  12.766
    1HEX  C0K   7131  13.405   4.117  12.818
    1HEX  C0N   7132  13.091   4.351  12.837
    1HEX  O0O   7133  13.139   4.459  12.907
    1HEX  C0P   7134  13.213   4.417  13.018
    1HEX  C0Q   7135  13.138   4.341  13.135
    1HEX  C0R   7136  13.156   4.185  13.135
    1HEX  O0S   7137  13.292   4.145  13.140
    1HEX  C0T   7138  13.337   4.076  13.247
    1HEX  O0U   7139  13.271   4.038  13.343
    1HEX  C0V   7140  13.486   4.048  13.239
    1HEX  C0W   7141  13.566   4.159  13.306
    1HEX  C0Y   7142  13.215   4.401  13.252
    1HEX  O0Z   7143  13.178   4.356  13.378
    1HEX  C10   7144  13.243   4.411  13.478
    1HEX  O11   7145  13.341   4.486  13.469
    1HEX  C12   7146  13.181   4.375  13.610
    1HEX  C13   7147  13.276   4.410  13.725
    1HEX  C15   7148  12.985   4.373  13.148
    1HEX  O16   7149  12.928   4.330  13.273
    1HEX  C17   7150  12.863   4.212  13.286
    1HEX  O18   7151  12.847   4.128  13.198
    1HEX  C19   7152  12.806   4.192  13.426
    1HEX  C1A   7153  12.710   4.307  13.460
    1HEX  H1C   7154  13.570   4.194  12.247
    1HEX  H1D   7155  13.342   4.177  12.289
    1HEX  H1E   7156  13.387   4.344  12.263
    1HEX  H1F   7157  13.403   4.369  12.521
    1HEX  H1G   7158  13.338   4.209  12.531
    1HEX  H1H   7159  12.958   4.414  12.523
    1HEX  H1I   7160  13.030   4.548  12.607
    1HEX  H1J   7161  12.927   4.508  12.909
    1HEX  H1K   7162  12.787   4.437  12.855
    1HEX  H1M   7163  12.759   4.888  12.746
    1HEX  H1N   7164  12.931   4.859  12.738
    1HEX  H1O   7165  12.951   4.944  12.981
    1HEX  H1P   7166  12.782   4.986  12.975
    1HEX  H1R   7167  12.886   4.218  12.609
    1HEX  H1S   7168  12.835   4.215  12.773
    1HEX  H1T   7169  13.294   3.963  12.703
    1HEX  H1U   7170  13.214   3.998  12.850
    1HEX  H1V   7171  13.491   4.053  12.799
    1HEX  H1W   7172  13.400   4.138  12.925
    1HEX  H1Y   7173  13.178   4.305  12.793
    1HEX  H1Z   7174  13.050   4.280  12.908
    1HEX  H20   7175  13.245   4.516  13.050
    1HEX  H21   7176  13.305   4.366  12.990
    1HEX  H22   7177  13.108   4.135  13.051
    1HEX  H23   7178  13.103   4.145  13.221
    1HEX  H24   7179  13.515   4.038  13.135
    1HEX  H25   7180  13.506   3.953  13.288
    1HEX  H26   7181  13.536   4.256  13.267
    1HEX  H27   7182  13.670   4.145  13.278
    1HEX  H28   7183  13.463   4.335  13.451
    1HEX  H29   7184  13.202   4.509  13.253
    1HEX  H2A   7185  13.322   4.381  13.238
    1HEX  H2B   7186  13.158   4.269  13.609
    1HEX  H2C   7187  13.087   4.430  13.615
    1HEX  H2D   7188  13.306   4.515  13.720
    1HEX  H2E   7189  13.366   4.350  13.719
    1HEX  H2G   7190  12.925   4.328  13.069
    1HEX  H2H   7191  12.968   4.480  13.140
    1HEX  H2I   7192  12.888   4.188  13.497
    1HEX  H2J   7193  12.754   4.096  13.432
    1HEX  H2K   7194  12.633   4.315  13.384
    1HEX  H2M   7195  12.764   4.402  13.461
    1HEX  H2N   7196  12.574   4.228  13.628
    1STR  S00   7197  13.563   4.200  12.380
    1STR  S0E   7198  12.958   5.093  13.018
    1STR  S0M   7199  13.575   4.201  12.879
    1STR  S0X   7200  13.553   4.237  13.470
    1STR  S14   7201  13.166   4.381  13.865
    1STR  S1B   7202  12.651   4.337  13.629
    1HEX  C01   7203  13.323   8.581  16.766
    1HEX  C02   7204  13.266   8.598  16.907
    1HEX  C03   7205  13.114   8.612  16.907
    1HEX  O04   7206  13.044   8.532  16.845
    1HEX  O05   7207  13.068   8.714  16.986
    1HEX  C06   7208  12.928   8.722  17.021
    1HEX  C07   7209  12.899   8.686  17.173
    1HEX  C08   7210  12.931   8.819  17.268
    1HEX  O09   7211  12.851   8.896  17.370
    1HEX  C0A   7212  12.845   8.888   0.076
    1HEX  O0B   7213  12.761   8.817   0.129
    1HEX  C0C   7214  12.935   8.984   0.169
    1HEX  C0D   7215  12.962   8.969   0.332
    1HEX  C0F   7216  12.749   8.633  17.179
    1HEX  O0G   7217  12.738   8.487  17.177
    1HEX  C0H   7218  12.733   8.415  17.061
    1HEX  O0I   7219  12.699   8.464  16.954
    1HEX  C0J   7220  12.780   8.266  17.064
    1HEX  C0K   7221  12.839   8.194  17.192
    1HEX  C0N   7222  12.983   8.553  17.195
    1HEX  O0O   7223  13.124   8.547  17.194
    1HEX  C0P   7224  13.193   8.615  17.294
    1HEX  C0Q   7225  13.154   8.595   0.004
    1HEX  C0R   7226  13.184   8.450   0.047
    1HEX  O0S   7227  13.324   8.426   0.041
    1HEX  C0T   7228  13.396   8.425   0.154
    1HEX  O0U   7229  13.353   8.434   0.269
    1HEX  C0V   7230  13.544   8.413   0.126
    1HEX  C0W   7231  13.614   8.549   0.136
    1HEX  C0Y   7232  13.243   8.702   0.070
    1HEX  O0Z   7233  13.213   8.701   0.206
    1HEX  C10   7234  13.287   8.766   0.290
    1HEX  O11   7235  13.375   8.848   0.263
    1HEX  C12   7236  13.252   8.721   0.429
    1HEX  C13   7237  13.346   8.778   0.535
    1HEX  C15   7238  13.008   8.626   0.050
    1HEX  O16   7239  12.972   8.591   0.184
    1HEX  C17   7240  12.865   8.513   0.206
    1HEX  O18   7241  12.808   8.442   0.123
    1HEX  C19   7242  12.814   8.523   0.349
    1HEX  C1A   7243  12.731   8.651   0.368
    1HEX  H1C   7244  13.560   8.567  16.636
    1HEX  H1D   7245  13.287   8.489  16.720
    1HEX  H1E   7246  13.293   8.664  16.702
    1HEX  H1F   7247  13.310   8.684  16.957
    1HEX  H1G   7248  13.290   8.510  16.968
    1HEX  H1H   7249  12.872   8.657  16.955
    1HEX  H1I   7250  12.892   8.822  16.994
    1HEX  H1J   7251  12.941   8.899  17.194
    1HEX  H1K   7252  13.033   8.819  17.303
    1HEX  H1M   7253  12.895   9.084   0.151
    1HEX  H1N   7254  13.033   8.986   0.121
    1HEX  H1O   7255  13.039   9.039   0.367
    1HEX  H1P   7256  12.872   8.994   0.388
    1HEX  H1R   7257  12.689   8.676  17.098
    1HEX  H1S   7258  12.702   8.669  17.271
    1HEX  H1T   7259  12.856   8.261  16.986
    1HEX  H1U   7260  12.697   8.208  17.024
    1HEX  H1V   7261  12.859   8.089  17.174
    1HEX  H1W   7262  12.769   8.200  17.275
    1HEX  H1Y   7263  12.967   8.492  17.106
    1HEX  H1Z   7264  12.947   8.485  17.272
    1HEX  H20   7265  13.202   8.719  17.262
    1HEX  H21   7266  13.295   8.579  17.282
    1HEX  H22   7267  13.132   8.379  17.422
    1HEX  H23   7268  13.145   8.430   0.147
    1HEX  H24   7269  13.556   8.370   0.027
    1HEX  H25   7270  13.586   8.344   0.198
    1HEX  H26   7271  13.563   8.624   0.076
    1HEX  H27   7272  13.716   8.543   0.100
    1HEX  H28   7273  13.521   8.699   0.294
    1HEX  H29   7274  13.222   8.802   0.032
    1HEX  H2A   7275  13.348   8.684   0.053
    1HEX  H2B   7276  13.256   8.612   0.425
    1HEX  H2C   7277  13.148   8.746   0.447
    1HEX  H2D   7278  13.347   8.887   0.527
    1HEX  H2E   7279  13.448   8.745   0.513
    1HEX  H2F   7280  13.218   8.781   0.695
    1HEX  H2G   7281  12.924   8.604  17.426
    1HEX  H2H   7282  13.010   8.731   0.055
    1HEX  H2I   7283  12.899   8.523   0.416
    1HEX  H2J   7284  12.753   8.436   0.371
    1HEX  H2K   7285  12.655   8.659   0.290
    1HEX  H2M   7286  12.795   8.738   0.359
    1HEX  H2N   7287  12.584   8.599   0.536
    1STR  S00   7288  13.505   8.579  16.757
    1STR  S0E   7289  12.994   8.950   0.526
    1STR  S0M   7290  12.918   8.042  17.270
    1STR  S0X   7291  13.648   8.661   0.275
    1STR  S14   7292  13.290   8.671   0.671
    1STR  S1B   7293  12.673   8.698   0.533
    1HEX  C01   7294  13.333   8.547   3.663
    1HEX  C02   7295  13.290   8.562   3.809
    1HEX  C03   7296  13.139   8.561   3.816
    1HEX  O04   7297  13.076   8.456   3.798
    1HEX  O05   7298  13.088   8.682   3.840
    1HEX  C06   7299  12.947   8.699   3.846
    1HEX  C07   7300  12.895   8.696   3.992
    1HEX  C08   7301  12.945   8.824   4.061
    1HEX  O09   7302  12.881   8.946   4.025
    1HEX  C0A   7303  12.818   9.017   4.119
    1HEX  O0B   7304  12.771   8.972   4.224
    1HEX  C0C   7305  12.816   9.166   4.088
    1HEX  C0D   7306  12.819   9.250   4.217
    1HEX  C0F   7307  12.739   8.698   3.993
    1HEX  O0G   7308  12.691   8.577   3.935
    1HEX  C0H   7309  12.645   8.576   3.809
    1HEX  O0I   7310  12.614   8.675   3.743
    1HEX  C0J   7311  12.639   8.436   3.751
    1HEX  C0K   7312  12.521   8.357   3.808
    1HEX  C0N   7313  12.938   8.565   4.067
    1HEX  O0O   7314  13.074   8.543   4.109
    1HEX  C0P   7315  13.145   8.626   4.201
    1HEX  C0Q   7316  13.112   8.621   4.354
    1HEX  C0R   7317  13.145   8.480   4.408
    1HEX  O0S   7318  13.286   8.453   4.400
    1HEX  C0T   7319  13.360   8.448   4.513
    1HEX  O0U   7320  13.320   8.461   4.628
    1HEX  C0V   7321  13.508   8.424   4.484
    1HEX  C0W   7322  13.590   8.552   4.497
    1HEX  C0Y   7323  13.204   8.726   4.420
    1HEX  O0Z   7324  13.180   8.727   4.559
    1HEX  C10   7325  13.268   8.781   4.642
    1HEX  O11   7326  13.373   8.837   4.609
    1HEX  C12   7327  13.225   8.764   4.786
    1HEX  C13   7328  13.334   8.809   4.885
    1HEX  C15   7329  12.965   8.662   4.388
    1HEX  O16   7330  12.927   8.640   4.523
    1HEX  C17   7331  12.856   8.532   4.557
    1HEX  O18   7332  12.827   8.438   4.484
    1HEX  C19   7333  12.808   8.539   4.701
    1HEX  C1A   7334  12.725   8.666   4.722
    1HEX  H1D   7335  13.278   8.466   3.614
    1HEX  H1E   7336  13.309   8.637   3.606
    1HEX  H1F   7337  13.328   8.655   3.852
    1HEX  H1G   7338  13.328   8.480   3.869
    1HEX  H1H   7339  12.899   8.623   3.783
    1HEX  H1I   7340  12.921   8.793   3.798
    1HEX  H1J   7341  13.049   8.841   4.034
    1HEX  H1K   7342  12.943   8.811   4.169
    1HEX  H1M   7343  12.731   9.191   4.026
    1HEX  H1N   7344  12.906   9.187   4.030
    1HEX  H1O   7345  12.896   9.214   4.285
    1HEX  H1P   7346  12.724   9.241   4.270
    1HEX  H1Q   7347  13.024   9.445   4.160
    1HEX  H1R   7348  12.700   8.786   3.942
    1HEX  H1S   7349  12.702   8.704   4.095
    1HEX  H1T   7350  12.734   8.386   3.772
    1HEX  H1U   7351  12.632   8.444   3.643
    1HEX  H1V   7352  12.428   8.411   3.790
    1HEX  H1W   7353  12.531   8.345   3.915
    1HEX  H1X   7354  12.510   8.203   3.595
    1HEX  H1Y   7355  12.920   8.483   3.997
    1HEX  H1Z   7356  12.867   8.537   4.145
    1HEX  H20   7357  13.155   8.728   4.166
    1HEX  H21   7358  13.247   8.589   4.191
    1HEX  H22   7359  13.092   8.404   4.350
    1HEX  H23   7360  13.110   8.468   4.510
    1HEX  H24   7361  13.517   8.381   4.384
    1HEX  H25   7362  13.544   8.349   4.554
    1HEX  H26   7363  13.548   8.633   4.436
    1HEX  H27   7364  13.693   8.537   4.464
    1HEX  H28   7365  13.516   8.708   4.648
    1HEX  H29   7366  13.185   8.827   4.382
    1HEX  H2A   7367  13.309   8.705   4.400
    1HEX  H2B   7368  13.200   8.659   4.802
    1HEX  H2C   7369  13.134   8.822   4.799
    1HEX  H2D   7370  13.365   8.911   4.864
    1HEX  H2E   7371  13.422   8.746   4.873
    1HEX  H2F   7372  13.144   8.904   5.061
    1HEX  H2G   7373  12.891   8.614   4.325
    1HEX  H2H   7374  12.951   8.769   4.373
    1HEX  H2I   7375  12.895   8.537   4.767
    1HEX  H2J   7376  12.749   8.450   4.723
    1HEX  H2K   7377  12.645   8.671   4.648
    1HEX  H2M   7378  12.787   8.754   4.708
    1HEX  H2N   7379  12.573   8.592   4.905
    1STR  S00   7380  13.326   8.584   3.486
    1STR  S0E   7381  12.902   9.410   4.201
    1STR  S0M   7382  12.520   8.194   3.728
    1STR  S0X   7383  13.640   8.658   4.635
    1STR  S14   7384  13.249   8.823   5.045
    1STR  S1B   7385  12.659   8.693   4.888
    1HEX  C01   7386  13.352   8.567   8.033
    1HEX  C02   7387  13.291   8.569   8.173
    1HEX  C03   7388  13.140   8.570   8.164
    1HEX  O04   7389  13.078   8.470   8.126
    1HEX  O05   7390  13.087   8.688   8.198
    1HEX  C06   7391  12.945   8.703   8.204
    1HEX  C07   7392  12.896   8.697   8.351
    1HEX  C08   7393  12.945   8.825   8.421
    1HEX  O09   7394  12.881   8.946   8.385
    1HEX  C0A   7395  12.818   9.017   8.479
    1HEX  O0B   7396  12.770   8.971   8.583
    1HEX  C0C   7397  12.817   9.166   8.449
    1HEX  C0D   7398  12.819   9.250   8.578
    1HEX  C0F   7399  12.740   8.697   8.354
    1HEX  O0G   7400  12.692   8.576   8.296
    1HEX  C0H   7401  12.646   8.575   8.170
    1HEX  O0I   7402  12.618   8.674   8.102
    1HEX  C0J   7403  12.638   8.435   8.112
    1HEX  C0K   7404  12.519   8.358   8.170
    1HEX  C0N   7405  12.942   8.565   8.423
    1HEX  O0O   7406  13.078   8.545   8.464
    1HEX  C0P   7407  13.147   8.627   8.559
    1HEX  C0Q   7408  13.112   8.621   8.712
    1HEX  C0R   7409  13.146   8.479   8.765
    1HEX  O0S   7410  13.286   8.452   8.758
    1HEX  C0T   7411  13.360   8.448   8.871
    1HEX  O0U   7412  13.319   8.461   8.986
    1HEX  C0V   7413  13.508   8.424   8.843
    1HEX  C0W   7414  13.590   8.553   8.856
    1HEX  C0Y   7415  13.204   8.726   8.779
    1HEX  O0Z   7416  13.180   8.726   8.919
    1HEX  C10   7417  13.268   8.780   9.001
    1HEX  O11   7418  13.372   8.837   8.968
    1HEX  C12   7419  13.225   8.764   9.146
    1HEX  C13   7420  13.333   8.808   9.245
    1HEX  C15   7421  12.965   8.661   8.745
    1HEX  O16   7422  12.927   8.639   8.880
    1HEX  C17   7423  12.856   8.531   8.915
    1HEX  O18   7424  12.826   8.438   8.841
    1HEX  C19   7425  12.809   8.538   9.059
    1HEX  C1A   7426  12.726   8.666   9.081
    1HEX  H1C   7427  13.567   8.570   7.910
    1HEX  H1D   7428  13.318   8.478   7.979
    1HEX  H1E   7429  13.318   8.653   7.975
    1HEX  H1F   7430  13.324   8.657   8.229
    1HEX  H1G   7431  13.322   8.482   8.230
    1HEX  H1H   7432  12.897   8.628   8.142
    1HEX  H1I   7433  12.918   8.798   8.159
    1HEX  H1J   7434  13.049   8.842   8.394
    1HEX  H1K   7435  12.942   8.811   8.528
    1HEX  H1M   7436  12.732   9.192   8.386
    1HEX  H1N   7437  12.907   9.187   8.391
    1HEX  H1O   7438  12.896   9.213   8.646
    1HEX  H1P   7439  12.724   9.240   8.630
    1HEX  H1Q   7440  13.023   9.445   8.519
    1HEX  H1R   7441  12.699   8.785   8.305
    1HEX  H1S   7442  12.704   8.702   8.457
    1HEX  H1T   7443  12.732   8.383   8.133
    1HEX  H1U   7444  12.630   8.443   8.004
    1HEX  H1V   7445  12.426   8.412   8.154
    1HEX  H1W   7446  12.530   8.346   8.278
    1HEX  H1X   7447  12.508   8.201   7.954
    1HEX  H1Y   7448  12.925   8.484   8.351
    1HEX  H1Z   7449  12.873   8.534   8.501
    1HEX  H20   7450  13.157   8.729   8.526
    1HEX  H21   7451  13.249   8.591   8.550
    1HEX  H22   7452  13.092   8.403   8.708
    1HEX  H23   7453  13.111   8.468   8.868
    1HEX  H24   7454  13.518   8.382   8.743
    1HEX  H25   7455  13.545   8.350   8.913
    1HEX  H26   7456  13.548   8.633   8.795
    1HEX  H27   7457  13.693   8.537   8.824
    1HEX  H28   7458  13.515   8.708   9.007
    1HEX  H29   7459  13.185   8.826   8.742
    1HEX  H2A   7460  13.309   8.705   8.759
    1HEX  H2B   7461  13.200   8.659   9.161
    1HEX  H2C   7462  13.133   8.821   9.158
    1HEX  H2D   7463  13.365   8.910   9.223
    1HEX  H2E   7464  13.422   8.745   9.233
    1HEX  H2F   7465  13.144   8.904   9.421
    1HEX  H2G   7466  12.892   8.613   8.682
    1HEX  H2H   7467  12.951   8.768   8.731
    1HEX  H2I   7468  12.896   8.537   9.124
    1HEX  H2J   7469  12.750   8.449   9.081
    1HEX  H2K   7470  12.646   8.672   9.008
    1HEX  H2M   7471  12.788   8.754   9.067
    1HEX  H2N   7472  12.573   8.592   9.266
    1STR  S00   7473  13.533   8.575   8.039
    1STR  S0E   7474  12.901   9.411   8.561
    1STR  S0M   7475  12.520   8.196   8.087
    1STR  S0X   7476  13.639   8.657   8.997
    1STR  S14   7477  13.248   8.822   9.404
    1STR  S1B   7478  12.659   8.692   9.247
    1HEX  C01   7479  13.347   8.569  12.392
    1HEX  C02   7480  13.283   8.569  12.531
    1HEX  C03   7481  13.132   8.560  12.519
    1HEX  O04   7482  13.077   8.457  12.483
    1HEX  O05   7483  13.071   8.675  12.553
    1HEX  C06   7484  12.930   8.678  12.568
    1HEX  C07   7485  12.892   8.671  12.718
    1HEX  C08   7486  12.931   8.807  12.781
    1HEX  O09   7487  12.856   8.922  12.743
    1HEX  C0A   7488  12.810   9.002  12.841
    1HEX  O0B   7489  12.773   8.965  12.952
    1HEX  C0C   7490  12.816   9.150  12.805
    1HEX  C0D   7491  12.820   9.240  12.930
    1HEX  C0F   7492  12.739   8.647  12.734
    1HEX  O0G   7493  12.711   8.506  12.725
    1HEX  C0H   7494  12.684   8.448  12.607
    1HEX  O0I   7495  12.644   8.508  12.508
    1HEX  C0J   7496  12.715   8.298  12.602
    1HEX  C0K   7497  12.738   8.226  12.737
    1HEX  C0N   7498  12.962   8.550  12.791
    1HEX  O0O   7499  13.102   8.554  12.822
    1HEX  C0P   7500  13.157   8.639  12.923
    1HEX  C0Q   7501  13.117   8.626  13.073
    1HEX  C0R   7502  13.148   8.482  13.122
    1HEX  O0S   7503  13.288   8.455  13.117
    1HEX  C0T   7504  13.361   8.448  13.230
    1HEX  O0U   7505  13.319   8.461  13.345
    1HEX  C0V   7506  13.509   8.424  13.203
    1HEX  C0W   7507  13.591   8.552  13.216
    1HEX  C0Y   7508  13.208   8.728  13.146
    1HEX  O0Z   7509  13.183   8.726  13.284
    1HEX  C10   7510  13.269   8.782  13.367
    1HEX  O11   7511  13.372   8.841  13.335
    1HEX  C12   7512  13.225   8.764  13.511
    1HEX  C13   7513  13.334   8.808  13.610
    1HEX  C15   7514  12.970   8.667  13.106
    1HEX  O16   7515  12.930   8.643  13.240
    1HEX  C17   7516  12.857   8.535  13.271
    1HEX  O18   7517  12.825   8.445  13.195
    1HEX  C19   7518  12.810   8.539  13.416
    1HEX  C1A   7519  12.726   8.665  13.440
    1HEX  H1C   7520  13.567   8.570  12.270
    1HEX  H1D   7521  13.317   8.479  12.337
    1HEX  H1E   7522  13.313   8.655  12.334
    1HEX  H1F   7523  13.311   8.659  12.587
    1HEX  H1G   7524  13.317   8.484  12.589
    1HEX  H1H   7525  12.883   8.600  12.509
    1HEX  H1I   7526  12.893   8.771  12.525
    1HEX  H1J   7527  13.033   8.831  12.751
    1HEX  H1K   7528  12.932   8.797  12.888
    1HEX  H1M   7529  12.734   9.178  12.739
    1HEX  H1N   7530  12.908   9.165  12.748
    1HEX  H1O   7531  12.897   9.205  13.000
    1HEX  H1P   7532  12.725   9.236  12.983
    1HEX  H1Q   7533  13.022   9.444  12.878
    1HEX  H1R   7534  12.681   8.705  12.662
    1HEX  H1S   7535  12.705   8.680  12.832
    1HEX  H1T   7536  12.805   8.289  12.541
    1HEX  H1U   7537  12.635   8.250  12.545
    1HEX  H1V   7538  12.730   8.117  12.728
    1HEX  H1W   7539  12.666   8.257  12.813
    1HEX  H1Y   7540  12.955   8.465  12.723
    1HEX  H1Z   7541  12.906   8.512  12.876
    1HEX  H20   7542  13.156   8.743  12.892
    1HEX  H21   7543  13.263   8.614  12.917
    1HEX  H22   7544  13.095   8.409  13.062
    1HEX  H23   7545  13.111   8.468  13.224
    1HEX  H24   7546  13.519   8.380  13.104
    1HEX  H25   7547  13.545   8.349  13.274
    1HEX  H26   7548  13.549   8.632  13.155
    1HEX  H27   7549  13.694   8.536  13.184
    1HEX  H28   7550  13.515   8.708  13.368
    1HEX  H29   7551  13.191   8.830  13.110
    1HEX  H2A   7552  13.313   8.707  13.127
    1HEX  H2B   7553  13.201   8.659  13.526
    1HEX  H2C   7554  13.134   8.821  13.524
    1HEX  H2D   7555  13.365   8.910  13.589
    1HEX  H2E   7556  13.423   8.746  13.597
    1HEX  H2F   7557  13.144   8.905  13.781
    1HEX  H2G   7558  12.895   8.624  13.041
    1HEX  H2H   7559  12.958   8.775  13.095
    1HEX  H2I   7560  12.897   8.537  13.481
    1HEX  H2J   7561  12.752   8.449  13.436
    1HEX  H2K   7562  12.645   8.671  13.368
    1HEX  H2M   7563  12.787   8.754  13.427
    1HEX  H2N   7564  12.575   8.592  13.623
    1STR  S00   7565  13.528   8.574  12.398
    1STR  S0E   7566  12.901   9.402  12.916
    1STR  S0M   7567  12.799   8.075  12.823
    1STR  S0X   7568  13.639   8.658  13.355
    1STR  S14   7569  13.249   8.823  13.770
    1STR  S1B   7570  12.660   8.693  13.606
    1HEX  C01   7571  13.352  12.927  16.753
    1HEX  C02   7572  13.291  12.929  16.893
    1HEX  C03   7573  13.140  12.930  16.884
    1HEX  O04   7574  13.078  12.830  16.846
    1HEX  O05   7575  13.087  13.048  16.918
    1HEX  C06   7576  12.945  13.063  16.924
    1HEX  C07   7577  12.896  13.057  17.071
    1HEX  C08   7578  12.946  13.185  17.141
    1HEX  O09   7579  12.881  13.306  17.104
    1HEX  C0A   7580  12.818  13.377  17.199
    1HEX  O0B   7581  12.770  13.331  17.303
    1HEX  C0C   7582  12.817  13.526  17.169
    1HEX  C0D   7583  12.819  13.610  17.298
    1HEX  C0F   7584  12.740  13.057  17.074
    1HEX  O0G   7585  12.692  12.936  17.016
    1HEX  C0H   7586  12.646  12.935  16.890
    1HEX  O0I   7587  12.618  13.034  16.822
    1HEX  C0J   7588  12.638  12.795  16.832
    1HEX  C0K   7589  12.519  12.718  16.890
    1HEX  C0N   7590  12.942  12.925  17.143
    1HEX  O0O   7591  13.078  12.905  17.184
    1HEX  C0P   7592  13.147  12.987  17.279
    1HEX  C0Q   7593  13.112  12.981  17.432
    1HEX  C0R   7594  13.146  12.839   0.045
    1HEX  O0S   7595  13.286  12.813   0.038
    1HEX  C0T   7596  13.361  12.808   0.151
    1HEX  O0U   7597  13.319  12.821   0.266
    1HEX  C0V   7598  13.508  12.785   0.123
    1HEX  C0W   7599  13.590  12.913   0.136
    1HEX  C0Y   7600  13.204  13.086   0.059
    1HEX  O0Z   7601  13.180  13.086   0.199
    1HEX  C10   7602  13.268  13.141   0.281
    1HEX  O11   7603  13.372  13.197   0.248
    1HEX  C12   7604  13.225  13.124   0.426
    1HEX  C13   7605  13.333  13.168   0.524
    1HEX  C15   7606  12.965  13.021   0.025
    1HEX  O16   7607  12.927  12.999   0.160
    1HEX  C17   7608  12.856  12.891   0.195
    1HEX  O18   7609  12.826  12.798   0.121
    1HEX  C19   7610  12.809  12.898   0.339
    1HEX  C1A   7611  12.726  13.026   0.361
    1HEX  H1C   7612  13.567  12.930  16.630
    1HEX  H1D   7613  13.318  12.838  16.699
    1HEX  H1E   7614  13.318  13.013  16.695
    1HEX  H1F   7615  13.324  13.017  16.948
    1HEX  H1G   7616  13.322  12.842  16.950
    1HEX  H1H   7617  12.897  12.988  16.862
    1HEX  H1I   7618  12.918  13.158  16.879
    1HEX  H1J   7619  13.049  13.202  17.114
    1HEX  H1K   7620  12.943  13.171  17.248
    1HEX  H1M   7621  12.732  13.552  17.106
    1HEX  H1N   7622  12.907  13.547  17.111
    1HEX  H1O   7623  12.896  13.573  17.366
    1HEX  H1P   7624  12.724  13.600  17.350
    1HEX  H1Q   7625  13.023  13.806  17.239
    1HEX  H1R   7626  12.699  13.145  17.025
    1HEX  H1S   7627  12.704  13.062  17.177
    1HEX  H1T   7628  12.732  12.744  16.853
    1HEX  H1U   7629  12.630  12.803  16.724
    1HEX  H1V   7630  12.426  12.773  16.874
    1HEX  H1W   7631  12.530  12.706  16.998
    1HEX  H1X   7632  12.508  12.561  16.674
    1HEX  H1Y   7633  12.925  12.844  17.071
    1HEX  H1Z   7634  12.873  12.895  17.221
    1HEX  H20   7635  13.157  13.089  17.246
    1HEX  H21   7636  13.249  12.951  17.270
    1HEX  H22   7637  13.092  12.763  17.428
    1HEX  H23   7638  13.111  12.828   0.148
    1HEX  H24   7639  13.518  12.742   0.023
    1HEX  H25   7640  13.545  12.710   0.193
    1HEX  H26   7641  13.548  12.993   0.075
    1HEX  H27   7642  13.693  12.897   0.104
    1HEX  H28   7643  13.515  13.068   0.287
    1HEX  H29   7644  13.185  13.187   0.022
    1HEX  H2A   7645  13.309  13.065   0.039
    1HEX  H2B   7646  13.200  13.019   0.441
    1HEX  H2C   7647  13.133  13.182   0.438
    1HEX  H2D   7648  13.365  13.271   0.503
    1HEX  H2E   7649  13.422  13.106   0.512
    1HEX  H2F   7650  13.144  13.264   0.701
    1HEX  H2G   7651  12.892  12.973  17.402
    1HEX  H2H   7652  12.951  13.128   0.011
    1HEX  H2I   7653  12.896  12.897   0.404
    1HEX  H2J   7654  12.750  12.809   0.361
    1HEX  H2K   7655  12.646  13.032   0.288
    1HEX  H2M   7656  12.788  13.114   0.347
    1HEX  H2N   7657  12.573  12.952   0.546
    1STR  S00   7658  13.533  12.936  16.759
    1STR  S0E   7659  12.901  13.771  17.281
    1STR  S0M   7660  12.520  12.557  16.807
    1STR  S0X   7661  13.639  13.017   0.276
    1STR  S14   7662  13.249  13.183   0.684
    1STR  S1B   7663  12.659  13.052   0.527
    1HEX  C01   7664  13.352  12.927   3.673
    1HEX  C02   7665  13.291  12.929   3.813
    1HEX  C03   7666  13.140  12.930   3.804
    1HEX  O04   7667  13.078  12.830   3.766
    1HEX  O05   7668  13.087  13.048   3.838
    1HEX  C06   7669  12.945  13.063   3.844
    1HEX  C07   7670  12.896  13.057   3.991
    1HEX  C08   7671  12.946  13.185   4.061
    1HEX  O09   7672  12.881  13.306   4.024
    1HEX  C0A   7673  12.818  13.377   4.119
    1HEX  O0B   7674  12.770  13.331   4.223
    1HEX  C0C   7675  12.817  13.526   4.089
    1HEX  C0D   7676  12.819  13.610   4.218
    1HEX  C0F   7677  12.740  13.057   3.994
    1HEX  O0G   7678  12.692  12.936   3.936
    1HEX  C0H   7679  12.646  12.935   3.810
    1HEX  O0I   7680  12.618  13.034   3.742
    1HEX  C0J   7681  12.638  12.795   3.752
    1HEX  C0K   7682  12.519  12.718   3.810
    1HEX  C0N   7683  12.942  12.925   4.063
    1HEX  O0O   7684  13.078  12.905   4.104
    1HEX  C0P   7685  13.147  12.987   4.199
    1HEX  C0Q   7686  13.112  12.981   4.352
    1HEX  C0R   7687  13.146  12.839   4.405
    1HEX  O0S   7688  13.286  12.813   4.398
    1HEX  C0T   7689  13.361  12.808   4.511
    1HEX  O0U   7690  13.319  12.821   4.626
    1HEX  C0V   7691  13.508  12.785   4.483
    1HEX  C0W   7692  13.590  12.913   4.496
    1HEX  C0Y   7693  13.204  13.086   4.419
    1HEX  O0Z   7694  13.180  13.086   4.559
    1HEX  C10   7695  13.268  13.141   4.641
    1HEX  O11   7696  13.372  13.197   4.608
    1HEX  C12   7697  13.225  13.124   4.786
    1HEX  C13   7698  13.333  13.168   4.884
    1HEX  C15   7699  12.965  13.021   4.385
    1HEX  O16   7700  12.927  12.999   4.520
    1HEX  C17   7701  12.856  12.891   4.555
    1HEX  O18   7702  12.826  12.798   4.481
    1HEX  C19   7703  12.809  12.898   4.699
    1HEX  C1A   7704  12.726  13.026   4.721
    1HEX  H1C   7705  13.567  12.930   3.550
    1HEX  H1D   7706  13.318  12.838   3.619
    1HEX  H1E   7707  13.318  13.013   3.615
    1HEX  H1F   7708  13.324  13.017   3.868
    1HEX  H1G   7709  13.322  12.842   3.870
    1HEX  H1H   7710  12.897  12.988   3.782
    1HEX  H1I   7711  12.918  13.158   3.799
    1HEX  H1J   7712  13.049  13.202   4.034
    1HEX  H1K   7713  12.943  13.171   4.168
    1HEX  H1M   7714  12.732  13.552   4.026
    1HEX  H1N   7715  12.907  13.547   4.031
    1HEX  H1O   7716  12.896  13.573   4.286
    1HEX  H1P   7717  12.724  13.600   4.270
    1HEX  H1Q   7718  13.023  13.806   4.159
    1HEX  H1R   7719  12.699  13.145   3.945
    1HEX  H1S   7720  12.704  13.062   4.097
    1HEX  H1T   7721  12.732  12.744   3.773
    1HEX  H1U   7722  12.630  12.803   3.644
    1HEX  H1V   7723  12.426  12.773   3.794
    1HEX  H1W   7724  12.530  12.706   3.918
    1HEX  H1X   7725  12.508  12.561   3.594
    1HEX  H1Y   7726  12.925  12.844   3.991
    1HEX  H1Z   7727  12.873  12.895   4.141
    1HEX  H20   7728  13.157  13.089   4.166
    1HEX  H21   7729  13.249  12.951   4.190
    1HEX  H22   7730  13.092  12.763   4.348
    1HEX  H23   7731  13.111  12.828   4.508
    1HEX  H24   7732  13.518  12.742   4.383
    1HEX  H25   7733  13.545  12.710   4.553
    1HEX  H26   7734  13.548  12.993   4.435
    1HEX  H27   7735  13.693  12.898   4.464
    1HEX  H28   7736  13.515  13.068   4.647
    1HEX  H29   7737  13.185  13.187   4.382
    1HEX  H2A   7738  13.309  13.065   4.399
    1HEX  H2B   7739  13.200  13.019   4.801
    1HEX  H2C   7740  13.133  13.182   4.798
    1HEX  H2D   7741  13.365  13.271   4.863
    1HEX  H2E   7742  13.422  13.106   4.872
    1HEX  H2F   7743  13.144  13.264   5.061
    1HEX  H2G   7744  12.892  12.973   4.322
    1HEX  H2H   7745  12.951  13.128   4.371
    1HEX  H2I   7746  12.896  12.897   4.764
    1HEX  H2J   7747  12.750  12.809   4.721
    1HEX  H2K   7748  12.646  13.032   4.648
    1HEX  H2M   7749  12.788  13.114   4.707
    1HEX  H2N   7750  12.573  12.952   4.905
    1STR  S00   7751  13.533  12.936   3.679
    1STR  S0E   7752  12.901  13.771   4.201
    1STR  S0M   7753  12.520  12.557   3.727
    1STR  S0X   7754  13.639  13.017   4.636
    1STR  S14   7755  13.249  13.182   5.044
    1STR  S1B   7756  12.659  13.052   4.887
    1HEX  C01   7757  13.349  12.928   8.035
    1HEX  C02   7758  13.288  12.933   8.175
    1HEX  C03   7759  13.136  12.935   8.167
    1HEX  O04   7760  13.074  12.835   8.131
    1HEX  O05   7761  13.083  13.054   8.199
    1HEX  C06   7762  12.942  13.070   8.203
    1HEX  C07   7763  12.888  13.070   8.349
    1HEX  C08   7764  12.931  13.201   8.418
    1HEX  O09   7765  12.861  13.318   8.382
    1HEX  C0A   7766  12.806  13.390   8.481
    1HEX  O0B   7767  12.760  13.344   8.585
    1HEX  C0C   7768  12.814  13.539   8.455
    1HEX  C0D   7769  12.823  13.618   8.587
    1HEX  C0F   7770  12.733  13.063   8.349
    1HEX  O0G   7771  12.691  12.939   8.292
    1HEX  C0H   7772  12.644  12.935   8.166
    1HEX  O0I   7773  12.615  13.032   8.097
    1HEX  C0J   7774  12.638  12.794   8.112
    1HEX  C0K   7775  12.519  12.717   8.170
    1HEX  C0N   7776  12.940  12.947   8.430
    1HEX  O0O   7777  13.076  12.945   8.478
    1HEX  C0P   7778  13.134  13.040   8.571
    1HEX  C0Q   7779  13.100  13.035   8.725
    1HEX  C0R   7780  13.234  12.995   8.793
    1HEX  O0S   7781  13.323  13.106   8.764
    1HEX  C0T   7782  13.373  13.188   8.862
    1HEX  O0U   7783  13.391  13.149   8.977
    1HEX  C0V   7784  13.426  13.326   8.813
    1HEX  C0W   7785  13.349  13.467   8.824
    1HEX  C0Y   7786  13.061  13.173   8.790
    1HEX  O0Z   7787  13.053  13.149   8.932
    1HEX  C10   7788  13.109  13.226   9.026
    1HEX  O11   7789  13.143  13.343   9.012
    1HEX  C12   7790  13.131  13.147   9.156
    1HEX  C13   7791  13.257  13.186   9.236
    1HEX  C15   7792  12.981  12.938   8.751
    1HEX  O16   7793  12.950  12.924   8.889
    1HEX  C17   7794  12.847  12.849   8.927
    1HEX  O18   7795  12.789  12.765   8.858
    1HEX  C19   7796  12.803  12.882   9.069
    1HEX  C1A   7797  12.733  13.019   9.075
    1HEX  H1C   7798  13.567  12.931   7.909
    1HEX  H1D   7799  13.316  12.838   7.983
    1HEX  H1E   7800  13.315  13.014   7.976
    1HEX  H1F   7801  13.322  13.021   8.230
    1HEX  H1G   7802  13.318  12.846   8.233
    1HEX  H1H   7803  12.894  12.994   8.143
    1HEX  H1I   7804  12.916  13.164   8.155
    1HEX  H1J   7805  13.034  13.222   8.389
    1HEX  H1K   7806  12.929  13.186   8.525
    1HEX  H1M   7807  12.731  13.572   8.393
    1HEX  H1N   7808  12.905  13.556   8.397
    1HEX  H1O   7809  12.900  13.577   8.652
    1HEX  H1P   7810  12.729  13.610   8.641
    1HEX  H1Q   7811  13.028  13.794   8.515
    1HEX  H1R   7812  12.690  13.149   8.297
    1HEX  H1S   7813  12.695  13.069   8.451
    1HEX  H1T   7814  12.732  12.743   8.134
    1HEX  H1U   7815  12.630  12.800   8.003
    1HEX  H1V   7816  12.426  12.772   8.153
    1HEX  H1W   7817  12.530  12.706   8.279
    1HEX  H1X   7818  12.508  12.561   7.954
    1HEX  H1Y   7819  12.932  12.860   8.364
    1HEX  H1Z   7820  12.870  12.921   8.509
    1HEX  H20   7821  13.144  13.141   8.537
    1HEX  H21   7822  13.237  13.009   8.558
    1HEX  H22   7823  13.272  12.901   8.751
    1HEX  H23   7824  13.222  12.976   8.899
    1HEX  H24   7825  13.461  13.309   8.711
    1HEX  H25   7826  13.517  13.335   8.872
    1HEX  H26   7827  13.316  13.502   8.726
    1HEX  H27   7828  13.408  13.545   8.872
    1HEX  H29   7829  12.965  13.211   8.756
    1HEX  H2A   7830  13.134  13.252   8.768
    1HEX  H2B   7831  13.136  13.041   9.131
    1HEX  H2C   7832  13.042  13.161   9.217
    1HEX  H2D   7833  13.296  13.283   9.205
    1HEX  H2E   7834  13.337  13.114   9.220
    1HEX  H2F   7835  13.161  13.276   9.415
    1HEX  H2G   7836  12.994  12.840   8.705
    1HEX  H2H   7837  12.891  12.983   8.707
    1HEX  H2I   7838  12.890  12.880   9.134
    1HEX  H2J   7839  12.736  12.803   9.103
    1HEX  H2K   7840  12.652  13.024   9.002
    1HEX  H2M   7841  12.803  13.099   9.051
    1HEX  H2N   7842  12.573  12.956   9.265
    1STR  S00   7843  13.530  12.939   8.038
    1STR  S0E   7844  12.904  13.779   8.562
    1STR  S0M   7845  12.520  12.556   8.087
    1STR  S0X   7846  13.257  13.636   8.839
    1STR  S14   7847  13.249  13.175   9.416
    1STR  S1B   7848  12.667  13.048   9.241
    1HEX  C01   7849  13.346  12.930  12.397
    1HEX  C02   7850  13.286  12.937  12.538
    1HEX  C03   7851  13.135  12.948  12.529
    1HEX  O04   7852  13.067  12.856  12.486
    1HEX  O05   7853  13.088  13.068  12.572
    1HEX  C06   7854  12.948  13.093  12.575
    1HEX  C07   7855  12.891  13.082  12.719
    1HEX  C08   7856  12.932  13.207  12.802
    1HEX  O09   7857  12.879  13.336  12.767
    1HEX  C0A   7858  12.877  13.433  12.864
    1HEX  O0B   7859  12.873  13.411  12.985
    1HEX  C0C   7860  12.882  13.577  12.810
    1HEX  C0D   7861  12.916  13.689  12.914
    1HEX  C0F   7862  12.736  13.077  12.713
    1HEX  O0G   7863  12.693  12.953  12.656
    1HEX  C0H   7864  12.648  12.947  12.529
    1HEX  O0I   7865  12.618  13.042  12.459
    1HEX  C0J   7866  12.644  12.804  12.476
    1HEX  C0K   7867  12.525  12.726  12.533
    1HEX  C0N   7868  12.934  12.945  12.786
    1HEX  O0O   7869  13.070  12.918  12.825
    1HEX  C0P   7870  13.144  12.994  12.920
    1HEX  C0Q   7871  13.113  12.985  13.073
    1HEX  C0R   7872  13.146  12.842  13.124
    1HEX  O0S   7873  13.287  12.815  13.117
    1HEX  C0T   7874  13.361  12.808  13.230
    1HEX  O0U   7875  13.319  12.820  13.345
    1HEX  C0V   7876  13.508  12.785  13.202
    1HEX  C0W   7877  13.591  12.914  13.216
    1HEX  C0Y   7878  13.206  13.089  13.141
    1HEX  O0Z   7879  13.183  13.087  13.280
    1HEX  C10   7880  13.270  13.141  13.363
    1HEX  O11   7881  13.375  13.197  13.331
    1HEX  C12   7882  13.226  13.125  13.507
    1HEX  C13   7883  13.334  13.169  13.607
    1HEX  C15   7884  12.967  13.026  13.110
    1HEX  O16   7885  12.930  13.000  13.245
    1HEX  C17   7886  12.857  12.893  13.277
    1HEX  O18   7887  12.825  12.801  13.201
    1HEX  C19   7888  12.809  12.898  13.420
    1HEX  C1A   7889  12.726  13.026  13.443
    1HEX  H1C   7890  13.566  12.929  12.270
    1HEX  H1D   7891  13.310  12.841  12.345
    1HEX  H1E   7892  13.316  13.016  12.338
    1HEX  H1F   7893  13.325  13.023  12.592
    1HEX  H1G   7894  13.311  12.848  12.595
    1HEX  H1H   7895  12.897  13.025  12.507
    1HEX  H1I   7896  12.929  13.192  12.535
    1HEX  H1J   7897  13.039  13.223  12.791
    1HEX  H1K   7898  12.910  13.186  12.905
    1HEX  H1M   7899  12.789  13.599  12.759
    1HEX  H1N   7900  12.960  13.577  12.734
    1HEX  H1O   7901  13.001  13.661  12.977
    1HEX  H1P   7902  12.833  13.706  12.982
    1HEX  H1R   7903  12.695  13.163  12.659
    1HEX  H1S   7904  12.693  13.083  12.813
    1HEX  H1T   7905  12.738  12.755  12.500
    1HEX  H1U   7906  12.638  12.809  12.368
    1HEX  H1V   7907  12.431  12.779  12.514
    1HEX  H1W   7908  12.534  12.715  12.641
    1HEX  H1X   7909  12.510  12.562  12.316
    1HEX  H1Y   7910  12.917  12.868  12.711
    1HEX  H1Z   7911  12.864  12.913  12.862
    1HEX  H20   7912  13.157  13.097  12.888
    1HEX  H21   7913  13.245  12.955  12.908
    1HEX  H22   7914  13.093  12.768  13.064
    1HEX  H23   7915  13.111  12.829  13.226
    1HEX  H24   7916  13.518  12.743  13.102
    1HEX  H25   7917  13.545  12.710  13.272
    1HEX  H26   7918  13.549  12.994  13.155
    1HEX  H27   7919  13.694  12.898  13.184
    1HEX  H28   7920  13.516  13.069  13.367
    1HEX  H29   7921  13.188  13.190  13.105
    1HEX  H2A   7922  13.311  13.067  13.120
    1HEX  H2B   7923  13.201  13.020  13.522
    1HEX  H2C   7924  13.135  13.182  13.519
    1HEX  H2D   7925  13.366  13.271  13.585
    1HEX  H2E   7926  13.423  13.106  13.595
    1HEX  H2F   7927  13.143  13.264  13.780
    1HEX  H2G   7928  12.893  12.980  13.047
    1HEX  H2H   7929  12.955  13.133  13.100
    1HEX  H2I   7930  12.896  12.897  13.486
    1HEX  H2J   7931  12.750  12.809  13.442
    1HEX  H2K   7932  12.646  13.032  13.369
    1HEX  H2M   7933  12.788  13.114  13.429
    1HEX  H2N   7934  12.572  12.951  13.625
    1STR  S00   7935  13.528  12.935  12.398
    1STR  S0E   7936  12.999  13.844  12.972
    1STR  S0M   7937  12.522  12.565  12.449
    1STR  S0X   7938  13.639  13.016  13.357
    1STR  S14   7939  13.248  13.182  13.766
    1STR  S1B   7940  12.657  13.052  13.608
   17.44000    17.44000    17.44000
