My System
 2104
    1BCK1    B1    1   0.250   2.754   2.298
    1BCK1    B1    2   0.417   2.588   2.246
    1BCK1    B1    3   0.585   2.419   2.201
    1BCK1    B1    4   0.751   2.251   2.154
    1BCK1    B1    5   0.916   2.084   2.104
    1BCK1    B1    6   1.083   1.917   2.062
    1BCK1    B1    7   1.250   1.750   2.021
    1BCK1    B1    8   1.404   1.596   1.922
    1BCK1    B1    9   1.553   1.447   1.809
    1BCK1    B1   10   1.701   1.299   1.691
    1BCK1    B1   11   1.826   1.174   1.529
    1BCK1    B1   12   1.922   1.078   1.331
    1BCK1    B1   13   2.005   0.995   1.122
    1BCK1    B1   14   2.103   0.897   0.926
    1BCK1    B1   15   2.189   0.811   0.718
    1BCK1    B1   16   2.268   0.732   0.504
    1BCK1    B1   17   2.355   0.644   0.295
    1BCK1    B1   18   2.455   0.539   0.102
    1BCK1    B1   19   9.114   6.459   0.619
    1BCK1    B1   20   9.308   6.579   0.698
    1BCK1    B1   21   9.510   6.692   0.768
    1BCK1    B1   22   9.719   6.796   0.833
    1BCK1    B1   23   9.930   6.893   0.894
    1BCK1    B1   24  10.127   7.014   0.961
    1BCK1    B1   25  10.315   7.142   1.039
    1BCK1    B1   26  10.507   7.244   1.141
    1BCK1    B1   27  10.688   7.363   1.244
    1BCK1    B1   28  10.820   7.521   1.369
    1BCK1    B1   29  10.902   7.664   1.544
    1BCK1    B1   30  10.988   7.794   1.727
    1BCK1    B1   31  11.060   7.939   1.905
    1BCK1    B1   32  11.123   8.088   2.084
    1BCK1    B1   33  11.119   8.236   2.275
    1BCK1    B1   34  11.151   8.390   2.459
    1BCK1    B1   35  11.244   8.523   2.642
    1BCK1    B1   36  11.414   8.612   2.791
    1BCK1    B1   37   0.647   3.481  11.981
    1BCK1    B1   38   0.492   3.645  11.897
    1BCK1    B1   39   0.291   3.780  11.907
    1BCK1    B1   40   0.103   3.873   0.031
    1BCK1    B1   41   0.019   4.082   0.134
    1BCK1    B1   42  11.927   4.278   0.009
    1BCK1    B1   43  11.759   4.268  11.825
    1BCK1    B1   44  11.514   4.226  11.846
    1BCK1    B1   45  11.346   4.368  11.967
    1BCK1    B1   46  11.331   4.618  11.947
    1BCK1    B1   47  11.493   4.756  11.811
    1BCK1    B1   48  11.738   4.762  11.847
    1BCK1    B1   49  11.867   4.747   0.061
    1BCK1    B1   50   0.071   4.880   0.114
    1BCK1    B1   51   0.167   5.047  11.957
    1BCK1    B1   52   0.306   5.244  11.943
    1BCK1    B1   53   0.443   5.380   0.092
    1BCK1    B1   54   0.601   5.555   0.139
    1BCK1    B1   55  11.849   3.956   5.790
    1BCK1    B1   56  11.893   4.191   5.842
    1BCK1    B1   57  11.935   4.428   5.906
    1BCK1    B1   58  11.977   4.667   5.966
    1BCK1    B1   59   0.019   4.908   6.023
    1BCK1    B1   60   0.069   5.146   6.091
    1BCK1    B1   61   0.131   5.378   6.171
    1BCK1    B1   62   0.176   5.623   6.220
    1BCK1    B1   63   0.217   5.872   6.249
    1BCK1    B1   64   0.217   6.127   6.249
    1BCK1    B1   65   0.176   6.375   6.220
    1BCK1    B1   66   0.131   6.620   6.172
    1BCK1    B1   67   0.069   6.852   6.091
    1BCK1    B1   68   0.018   7.090   6.024
    1BCK1    B1   69  11.974   7.330   5.967
    1BCK1    B1   70  11.928   7.568   5.907
    1BCK1    B1   71  11.879   7.804   5.844
    1BCK1    B1   72  11.839   8.041   5.793
    1BCK1    B1   73   2.555   2.455   3.290
    1BCK1    B1   74   2.376   2.573   3.184
    1BCK1    B1   75   2.269   2.711   3.012
    1BCK1    B1   76   2.134   2.916   3.023
    1BCK1    B1   77   1.920   2.976   3.134
    1BCK1    B1   78   1.730   3.086   3.018
    1BCK1    B1   79   1.740   3.215   2.806
    1BCK1    B1   80   1.776   3.451   2.743
    1BCK1    B1   81   1.625   3.649   2.741
    1BCK1    B1   82   1.374   3.648   2.741
    1BCK1    B1   83   1.224   3.450   2.742
    1BCK1    B1   84   1.258   3.215   2.806
    1BCK1    B1   85   1.267   3.085   3.018
    1BCK1    B1   86   1.077   2.972   3.131
    1BCK1    B1   87   0.864   2.909   3.020
    1BCK1    B1   88   0.729   2.705   3.011
    1BCK1    B1   89   0.617   2.570   3.182
    1BCK1    B1   90   0.435   2.457   3.290
    1BCK1    B1   91   5.858   9.678   3.414
    1BCK1    B1   92   5.694   9.755   3.574
    1BCK1    B1   93   5.483   9.770   3.694
    1BCK1    B1   94   5.248   9.806   3.742
    1BCK1    B1   95   5.072   9.888   3.888
    1BCK1    B1   96   4.900   9.964   4.038
    1BCK1    B1   97   4.694  10.021   4.150
    1BCK1    B1   98   4.513  10.108   4.282
    1BCK1    B1   99   4.340  10.215   4.410
    1BCK1    B1  100   4.205  10.344   4.560
    1BCK1    B1  101   4.112  10.512   4.705
    1BCK1    B1  102   4.020  10.701   4.820
    1BCK1    B1  103   3.940  10.884   4.954
    1BCK1    B1  104   3.888  11.072   5.095
    1BCK1    B1  105   3.845  11.273   5.221
    1BCK1    B1  106   3.790  11.470   5.348
    1BCK1    B1  107   3.733  11.665   5.481
    1BCK1    B1  108   3.670  11.855   5.614
    1BCK1    B1  109   1.084   3.317   6.243
    1BCK1    B1  110   1.301   3.283   6.118
    1BCK1    B1  111   1.509   3.221   5.978
    1BCK1    B1  112   1.723   3.170   5.839
    1BCK1    B1  113   1.972   3.104   5.783
    1BCK1    B1  114   2.197   2.979   5.833
    1BCK1    B1  115   2.397   2.822   5.881
    1BCK1    B1  116   2.631   2.722   5.848
    1BCK1    B1  117   2.881   2.715   5.792
    1BCK1    B1  118   3.134   2.735   5.798
    1BCK1    B1  119   3.382   2.752   5.847
    1BCK1    B1  120   3.625   2.806   5.894
    1BCK1    B1  121   3.854   2.900   5.945
    1BCK1    B1  122   4.091   2.975   5.985
    1BCK1    B1  123   4.331   3.037   6.021
    1BCK1    B1  124   4.569   3.103   6.059
    1BCK1    B1  125   4.804   3.172   6.099
    1BCK1    B1  126   5.041   3.226   6.131
    1BCK1    B1  127   0.450   8.385   3.103
    1BCK1    B1  128   0.616   8.554   3.142
    1BCK1    B1  129   0.729   8.769   3.125
    1BCK1    B1  130   0.855   8.893   2.953
    1BCK1    B1  131   1.098   8.908   2.904
    1BCK1    B1  132   1.263   9.058   3.013
    1BCK1    B1  133   1.254   9.303   3.047
    1BCK1    B1  134   1.227   9.507   2.911
    1BCK1    B1  135   1.378   9.667   2.795
    1BCK1    B1  136   1.628   9.667   2.792
    1BCK1    B1  137   1.779   9.506   2.907
    1BCK1    B1  138   1.747   9.304   3.045
    1BCK1    B1  139   1.736   9.060   3.012
    1BCK1    B1  140   1.899   8.908   2.902
    1BCK1    B1  141   2.142   8.892   2.951
    1BCK1    B1  142   2.267   8.768   3.124
    1BCK1    B1  143   2.384   8.555   3.142
    1BCK1    B1  144   2.547   8.384   3.103
    1BCK1    B1  145  11.399   8.592   8.380
    1BCK1    B1  146  11.441   8.647   8.142
    1BCK1    B1  147  11.455   8.885   8.052
    1BCK1    B1  148  11.274   9.046   8.124
    1BCK1    B1  149  11.042   8.947   8.166
    1BCK1    B1  150  10.865   8.978   7.990
    1BCK1    B1  151  10.799   9.207   7.919
    1BCK1    B1  152  10.594   9.337   7.961
    1BCK1    B1  153  10.386   9.363   7.836
    1BCK1    B1  154  10.246   9.412   7.645
    1BCK1    B1  155  10.066   9.334   7.500
    1BCK1    B1  156   9.997   9.176   7.328
    1BCK1    B1  157  10.032   9.076   7.109
    1BCK1    B1  158   9.970   8.990   6.890
    1BCK1    B1  159   9.828   8.901   6.714
    1BCK1    B1  160   9.723   8.812   6.514
    1BCK1    B1  161   9.656   8.700   6.309
    1BCK1    B1  162   9.563   8.603   6.107
    1BCK1    B1  163   3.425   3.631   2.893
    1BCK1    B1  164   3.559   3.707   2.705
    1BCK1    B1  165   3.668   3.773   2.496
    1BCK1    B1  166   3.771   3.836   2.283
    1BCK1    B1  167   3.901   3.889   2.083
    1BCK1    B1  168   4.047   3.940   1.893
    1BCK1    B1  169   4.143   4.032   1.687
    1BCK1    B1  170   4.221   4.136   1.479
    1BCK1    B1  171   4.388   4.226   1.325
    1BCK1    B1  172   4.566   4.321   1.186
    1BCK1    B1  173   4.685   4.513   1.090
    1BCK1    B1  174   4.791   4.714   1.000
    1BCK1    B1  175   4.945   4.893   0.935
    1BCK1    B1  176   5.096   5.071   0.861
    1BCK1    B1  177   5.237   5.271   0.846
    1BCK1    B1  178   5.385   5.467   0.833
    1BCK1    B1  179   5.490   5.658   0.718
    1BCK1    B1  180   5.525   5.833   0.551
    1BCK1    B1  181   3.154   5.434   8.533
    1BCK1    B1  182   3.344   5.328   8.637
    1BCK1    B1  183   3.551   5.304   8.762
    1BCK1    B1  184   3.737   5.230   8.898
    1BCK1    B1  185   3.882   5.093   9.037
    1BCK1    B1  186   4.069   4.960   9.116
    1BCK1    B1  187   4.304   4.915   9.163
    1BCK1    B1  188   4.480   4.886   9.328
    1BCK1    B1  189   4.568   4.745   9.511
    1BCK1    B1  190   4.744   4.570   9.512
    1BCK1    B1  191   4.885   4.483   9.329
    1BCK1    B1  192   4.911   4.308   9.162
    1BCK1    B1  193   4.951   4.071   9.122
    1BCK1    B1  194   5.080   3.879   9.047
    1BCK1    B1  195   5.187   3.725   8.893
    1BCK1    B1  196   5.267   3.538   8.760
    1BCK1    B1  197   5.379   3.340   8.676
    1BCK1    B1  198   5.515   3.170   8.573
    1BCK1    B1  199   6.290   6.454   9.422
    1BCK1    B1  200   6.443   6.330   9.561
    1BCK1    B1  201   6.602   6.225   9.710
    1BCK1    B1  202   6.801   6.148   9.825
    1BCK1    B1  203   6.979   6.005   9.906
    1BCK1    B1  204   7.036   5.784   9.995
    1BCK1    B1  205   7.166   5.698  10.185
    1BCK1    B1  206   7.371   5.777  10.300
    1BCK1    B1  207   7.582   5.659  10.342
    1BCK1    B1  208   7.651   5.477  10.500
    1BCK1    B1  209   7.774   5.534  10.713
    1BCK1    B1  210   7.823   5.770  10.773
    1BCK1    B1  211   7.953   5.935  10.891
    1BCK1    B1  212   8.112   5.929  11.077
    1BCK1    B1  213   8.226   6.070  11.236
    1BCK1    B1  214   8.282   6.245  11.394
    1BCK1    B1  215   8.410   6.332  11.580
    1BCK1    B1  216   8.555   6.454  11.729
    1BCK1    B1  217   5.603   6.139   6.661
    1BCK1    B1  218   5.471   6.329   6.730
    1BCK1    B1  219   5.343   6.526   6.789
    1BCK1    B1  220   5.216   6.725   6.838
    1BCK1    B1  221   5.092   6.924   6.891
    1BCK1    B1  222   4.966   7.119   6.951
    1BCK1    B1  223   4.843   7.315   7.016
    1BCK1    B1  224   4.705   7.485   7.114
    1BCK1    B1  225   4.554   7.648   7.204
    1BCK1    B1  226   4.428   7.800   7.341
    1BCK1    B1  227   4.305   7.898   7.522
    1BCK1    B1  228   4.142   7.970   7.683
    1BCK1    B1  229   4.002   8.038   7.866
    1BCK1    B1  230   3.894   8.104   8.071
    1BCK1    B1  231   3.765   8.158   8.267
    1BCK1    B1  232   3.624   8.207   8.458
    1BCK1    B1  233   3.500   8.268   8.657
    1BCK1    B1  234   3.394   8.371   8.848
    1BCK1    B1  235   0.167  11.670  11.307
    1BCK1    B1  236   0.367  11.559  11.225
    1BCK1    B1  237   0.549  11.401  11.193
    1BCK1    B1  238   0.728  11.242  11.154
    1BCK1    B1  239   0.912  11.089  11.116
    1BCK1    B1  240   1.095  10.941  11.064
    1BCK1    B1  241   1.273  10.795  10.996
    1BCK1    B1  242   1.438  10.642  10.912
    1BCK1    B1  243   1.600  10.489  10.822
    1BCK1    B1  244   1.748  10.355  10.689
    1BCK1    B1  245   1.865  10.237  10.514
    1BCK1    B1  246   1.952  10.116  10.327
    1BCK1    B1  247   2.027  10.007  10.126
    1BCK1    B1  248   2.111   9.902   9.927
    1BCK1    B1  249   2.174   9.804   9.715
    1BCK1    B1  250   2.245   9.709   9.504
    1BCK1    B1  251   2.328   9.613   9.298
    1BCK1    B1  252   2.418   9.501   9.103
    1BCK1    B1  253   6.370   2.699   6.310
    1BCK1    B1  254   6.561   2.562   6.296
    1BCK1    B1  255   6.770   2.446   6.252
    1BCK1    B1  256   6.839   2.266   6.105
    1BCK1    B1  257   6.889   2.090   5.947
    1BCK1    B1  258   7.034   1.894   5.931
    1BCK1    B1  259   7.116   1.699   5.812
    1BCK1    B1  260   7.159   1.600   5.594
    1BCK1    B1  261   7.311   1.491   5.437
    1BCK1    B1  262   7.488   1.322   5.433
    1BCK1    B1  263   7.598   1.151   5.568
    1BCK1    B1  264   7.685   1.116   5.793
    1BCK1    B1  265   7.876   1.053   5.927
    1BCK1    B1  266   8.070   0.905   5.948
    1BCK1    B1  267   8.221   0.863   6.133
    1BCK1    B1  268   8.426   0.814   6.260
    1BCK1    B1  269   8.590   0.638   6.198
    1BCK1    B1  270   8.566   0.401   6.150
    1BCK1    B1  271   9.407   3.114   6.527
    1BCK1    B1  272   9.323   3.307   6.645
    1BCK1    B1  273   9.216   3.491   6.764
    1BCK1    B1  274   9.109   3.697   6.836
    1BCK1    B1  275   9.024   3.922   6.876
    1BCK1    B1  276   8.930   4.121   6.980
    1BCK1    B1  277   8.783   4.265   7.109
    1BCK1    B1  278   8.625   4.448   7.137
    1BCK1    B1  279   8.565   4.687   7.138
    1BCK1    B1  280   8.565   4.862   7.314
    1BCK1    B1  281   8.625   4.863   7.552
    1BCK1    B1  282   8.782   4.891   7.736
    1BCK1    B1  283   8.930   5.021   7.880
    1BCK1    B1  284   9.024   5.125   8.079
    1BCK1    B1  285   9.109   5.165   8.303
    1BCK1    B1  286   9.215   5.236   8.510
    1BCK1    B1  287   9.319   5.357   8.694
    1BCK1    B1  288   9.404   5.473   8.888
    1BCK1    B1  289   6.681   2.932   6.616
    1BCK1    B1  290   6.745   2.719   6.716
    1BCK1    B1  291   6.727   2.478   6.752
    1BCK1    B1  292   6.808   2.248   6.743
    1BCK1    B1  293   6.918   2.072   6.870
    1BCK1    B1  294   6.965   1.901   7.035
    1BCK1    B1  295   7.018   1.684   7.128
    1BCK1    B1  296   7.126   1.503   7.245
    1BCK1    B1  297   7.246   1.349   7.386
    1BCK1    B1  298   7.370   1.191   7.520
    1BCK1    B1  299   7.530   1.086   7.666
    1BCK1    B1  300   7.711   1.012   7.806
    1BCK1    B1  301   7.900   0.948   7.941
    1BCK1    B1  302   8.078   0.882   8.090
    1BCK1    B1  303   8.270   0.847   8.233
    1BCK1    B1  304   8.475   0.819   8.359
    1BCK1    B1  305   8.663   0.738   8.493
    1BCK1    B1  306   8.765   0.565   8.629
    1BCK1    B1  307   8.367   3.252   3.813
    1BCK1    B1  308   8.238   3.425   3.692
    1BCK1    B1  309   8.150   3.647   3.617
    1BCK1    B1  310   8.136   3.899   3.642
    1BCK1    B1  311   8.152   4.109   3.784
    1BCK1    B1  312   8.124   4.233   4.002
    1BCK1    B1  313   8.000   4.342   4.191
    1BCK1    B1  314   7.866   4.542   4.248
    1BCK1    B1  315   7.701   4.723   4.275
    1BCK1    B1  316   7.543   4.818   4.439
    1BCK1    B1  317   7.466   4.848   4.673
    1BCK1    B1  318   7.343   4.973   4.850
    1BCK1    B1  319   7.192   5.160   4.930
    1BCK1    B1  320   6.983   5.293   4.990
    1BCK1    B1  321   6.749   5.318   5.093
    1BCK1    B1  322   6.566   5.257   5.257
    1BCK1    B1  323   6.446   5.226   5.476
    1BCK1    B1  324   6.314   5.335   5.654
    1BCK1    B1  325   5.545   6.501   3.329
    1BCK1    B1  326   5.366   6.414   3.196
    1BCK1    B1  327   5.255   6.294   3.012
    1BCK1    B1  328   5.156   6.068   3.005
    1BCK1    B1  329   4.961   5.971   3.129
    1BCK1    B1  330   4.743   5.921   3.016
    1BCK1    B1  331   4.735   5.827   2.784
    1BCK1    B1  332   4.774   5.596   2.703
    1BCK1    B1  333   4.627   5.395   2.697
    1BCK1    B1  334   4.376   5.394   2.698
    1BCK1    B1  335   4.228   5.594   2.705
    1BCK1    B1  336   4.266   5.825   2.787
    1BCK1    B1  337   4.260   5.919   3.018
    1BCK1    B1  338   4.045   5.964   3.139
    1BCK1    B1  339   3.845   6.061   3.026
    1BCK1    B1  340   3.748   6.288   3.031
    1BCK1    B1  341   3.634   6.413   3.208
    1BCK1    B1  342   3.451   6.503   3.334
    1BCK1    B1  343   0.520   3.498   6.197
    1BCK1    B1  344   0.632   3.401   6.003
    1BCK1    B1  345   0.746   3.187   5.957
    1BCK1    B1  346   0.796   2.991   6.110
    1BCK1    B1  347   1.017   2.870   6.097
    1BCK1    B1  348   1.153   2.882   5.884
    1BCK1    B1  349   1.185   2.698   5.717
    1BCK1    B1  350   1.205   2.461   5.803
    1BCK1    B1  351   1.306   2.414   6.032
    1BCK1    B1  352   1.555   2.403   6.054
    1BCK1    B1  353   1.705   2.495   5.870
    1BCK1    B1  354   1.834   2.700   5.917
    1BCK1    B1  355   1.860   2.816   6.136
    1BCK1    B1  356   1.887   3.027   6.261
    1BCK1    B1  357   1.936   3.269   6.243
    1BCK1    B1  358   2.052   3.436   6.098
    1BCK1    B1  359   2.290   3.431   6.021
    1BCK1    B1  360   2.487   3.344   6.137
    1BCK1    B1  361   5.810   8.305   2.999
    1BCK1    B1  362   5.833   8.237   2.768
    1BCK1    B1  363   5.864   8.241   2.527
    1BCK1    B1  364   5.909   8.181   2.296
    1BCK1    B1  365   5.982   8.034   2.116
    1BCK1    B1  366   6.045   7.984   1.886
    1BCK1    B1  367   6.071   8.078   1.662
    1BCK1    B1  368   6.130   8.071   1.426
    1BCK1    B1  369   6.214   7.927   1.248
    1BCK1    B1  370   6.216   7.756   1.076
    1BCK1    B1  371   6.133   7.582   0.928
    1BCK1    B1  372   6.072   7.346   0.918
    1BCK1    B1  373   6.052   7.126   1.022
    1BCK1    B1  374   6.009   6.889   0.983
    1BCK1    B1  375   5.950   6.699   0.843
    1BCK1    B1  376   5.859   6.476   0.805
    1BCK1    B1  377   5.855   6.232   0.799
    1BCK1    B1  378   5.969   6.038   0.706
    1BCK1    B1  379   6.446   9.260   5.465
    1BCK1    B1  380   6.639   9.170   5.574
    1BCK1    B1  381   6.781   9.013   5.697
    1BCK1    B1  382   6.863   9.005   5.928
    1BCK1    B1  383   7.026   9.139   6.061
    1BCK1    B1  384   7.251   9.041   6.121
    1BCK1    B1  385   7.261   8.795   6.181
    1BCK1    B1  386   7.242   8.717   6.419
    1BCK1    B1  387   7.372   8.827   6.607
    1BCK1    B1  388   7.625   8.824   6.610
    1BCK1    B1  389   7.752   8.713   6.419
    1BCK1    B1  390   7.723   8.796   6.184
    1BCK1    B1  391   7.749   9.046   6.137
    1BCK1    B1  392   7.984   9.121   6.077
    1BCK1    B1  393   8.108   8.974   5.913
    1BCK1    B1  394   8.192   9.047   5.691
    1BCK1    B1  395   8.389   9.195   5.672
    1BCK1    B1  396   8.624   9.197   5.636
    1BCK1    B1  397   9.806   2.655   8.783
    1BCK1    B1  398   9.848   2.500   8.600
    1BCK1    B1  399   9.849   2.319   8.436
    1BCK1    B1  400   9.851   2.177   8.238
    1BCK1    B1  401   9.858   2.059   8.024
    1BCK1    B1  402   9.917   1.908   7.842
    1BCK1    B1  403  10.044   1.735   7.725
    1BCK1    B1  404  10.225   1.644   7.589
    1BCK1    B1  405  10.292   1.581   7.364
    1BCK1    B1  406  10.302   1.422   7.177
    1BCK1    B1  407  10.451   1.239   7.111
    1BCK1    B1  408  10.681   1.165   7.154
    1BCK1    B1  409  10.898   1.103   7.063
    1BCK1    B1  410  11.032   0.962   6.916
    1BCK1    B1  411  11.214   0.818   6.842
    1BCK1    B1  412  11.423   0.701   6.797
    1BCK1    B1  413  11.627   0.581   6.736
    1BCK1    B1  414  11.818   0.452   6.661
    1BCK1    B1  415   9.206   8.415   2.672
    1BCK1    B1  416   9.394   8.317   2.793
    1BCK1    B1  417   9.638   8.351   2.821
    1BCK1    B1  418   9.880   8.364   2.853
    1BCK1    B1  419  10.093   8.269   2.946
    1BCK1    B1  420  10.227   8.090   3.043
    1BCK1    B1  421  10.333   7.892   3.148
    1BCK1    B1  422  10.541   7.843   3.266
    1BCK1    B1  423  10.714   7.793   3.435
    1BCK1    B1  424  10.830   7.573   3.465
    1BCK1    B1  425  10.774   7.362   3.345
    1BCK1    B1  426  10.901   7.212   3.200
    1BCK1    B1  427  11.110   7.216   3.067
    1BCK1    B1  428  11.264   7.114   2.902
    1BCK1    B1  429  11.352   6.908   2.796
    1BCK1    B1  430  11.350   6.661   2.772
    1BCK1    B1  431  11.300   6.420   2.779
    1BCK1    B1  432  11.373   6.194   2.726
    1BCK1    B1  433  11.844   0.608   0.441
    1BCK1    B1  434  11.902   0.451   0.613
    1BCK1    B1  435  11.866   0.238   0.724
    1BCK1    B1  436  11.919   0.102   0.916
    1BCK1    B1  437   0.044   0.120   1.130
    1BCK1    B1  438   0.104  11.924   1.270
    1BCK1    B1  439  12.001  11.699   1.256
    1BCK1    B1  440   0.085  11.468   1.228
    1BCK1    B1  441   0.250  11.345   1.371
    1BCK1    B1  442   0.249  11.345   1.622
    1BCK1    B1  443   0.083  11.467   1.765
    1BCK1    B1  444  12.001  11.699   1.742
    1BCK1    B1  445   0.105  11.924   1.730
    1BCK1    B1  446   0.043   0.121   1.868
    1BCK1    B1  447  11.917   0.103   2.082
    1BCK1    B1  448  11.863   0.241   2.272
    1BCK1    B1  449  11.901   0.452   2.386
    1BCK1    B1  450  11.842   0.610   2.557
    1BCK1    B1  451   8.565  11.510   3.354
    1BCK1    B1  452   8.380  11.601   3.232
    1BCK1    B1  453   8.227  11.699   3.069
    1BCK1    B1  454   8.146  11.923   3.015
    1BCK1    B1  455   7.995   0.099   3.104
    1BCK1    B1  456   7.772   0.148   2.998
    1BCK1    B1  457   7.753   0.161   2.746
    1BCK1    B1  458   7.770   0.380   2.624
    1BCK1    B1  459   7.638   0.583   2.697
    1BCK1    B1  460   7.386   0.580   2.702
    1BCK1    B1  461   7.255   0.373   2.639
    1BCK1    B1  462   7.273   0.159   2.768
    1BCK1    B1  463   7.248   0.148   3.019
    1BCK1    B1  464   7.028   0.090   3.126
    1BCK1    B1  465   6.878  11.913   3.038
    1BCK1    B1  466   6.787  11.687   3.058
    1BCK1    B1  467   6.616  11.586   3.206
    1BCK1    B1  468   6.437  11.653   3.357
    1BCK1    B1  469   0.325   3.377   0.348
    1BCK1    B1  470   0.319   3.615   0.383
    1BCK1    B1  471   0.222   3.806   0.503
    1BCK1    B1  472   0.102   3.868   0.705
    1BCK1    B1  473   0.067   3.918   0.941
    1BCK1    B1  474  11.923   4.017   1.111
    1BCK1    B1  475  11.732   4.043   1.258
    1BCK1    B1  476  11.605   4.075   1.463
    1BCK1    B1  477  11.515   4.167   1.670
    1BCK1    B1  478  11.517   4.349   1.835
    1BCK1    B1  479  11.619   4.552   1.924
    1BCK1    B1  480  11.762   4.742   1.977
    1BCK1    B1  481  11.936   4.912   1.986
    1BCK1    B1  482   0.071   5.108   2.042
    1BCK1    B1  483   0.127   5.308   2.170
    1BCK1    B1  484   0.198   5.503   2.298
    1BCK1    B1  485   0.332   5.689   2.379
    1BCK1    B1  486   0.432   5.888   2.472
    1BCK1    B1  487  11.289   2.742   6.321
    1BCK1    B1  488  11.230   2.566   6.478
    1BCK1    B1  489  11.180   2.388   6.638
    1BCK1    B1  490  11.142   2.217   6.807
    1BCK1    B1  491  11.102   2.040   6.969
    1BCK1    B1  492  11.014   1.837   7.071
    1BCK1    B1  493  10.867   1.681   7.188
    1BCK1    B1  494  10.810   1.601   7.411
    1BCK1    B1  495  10.839   1.466   7.613
    1BCK1    B1  496  10.717   1.271   7.703
    1BCK1    B1  497  10.491   1.181   7.665
    1BCK1    B1  498  10.273   1.144   7.767
    1BCK1    B1  499  10.149   1.056   7.958
    1BCK1    B1  500   9.975   0.948   8.088
    1BCK1    B1  501   9.787   0.813   8.161
    1BCK1    B1  502   9.575   0.734   8.253
    1BCK1    B1  503   9.367   0.803   8.361
    1BCK1    B1  504   9.187   0.795   8.521
    1BCK1    B1  505   9.684   3.017   0.178
    1BCK1    B1  506   9.792   3.231   0.144
    1BCK1    B1  507   9.828   3.465   0.092
    1BCK1    B1  508   9.802   3.696   0.020
    1BCK1    B1  509   9.847   3.914  11.925
    1BCK1    B1  510   9.983   4.113  11.893
    1BCK1    B1  511  10.058   4.340  11.945
    1BCK1    B1  512  10.019   4.578  11.911
    1BCK1    B1  513  10.037   4.783  11.776
    1BCK1    B1  514  10.211   4.961  11.775
    1BCK1    B1  515  10.417   4.984  11.909
    1BCK1    B1  516  10.648   4.922  11.954
    1BCK1    B1  517  10.884   4.972  11.911
    1BCK1    B1  518  11.085   5.103  11.946
    1BCK1    B1  519  11.297   5.155   0.053
    1BCK1    B1  520  11.533   5.159   0.106
    1BCK1    B1  521  11.747   5.256   0.167
    1BCK1    B1  522  11.909   5.359   0.314
    1BCK1    B1  523   0.216   6.594   9.442
    1BCK1    B1  524   0.136   6.443   9.609
    1BCK1    B1  525  11.977   6.292   9.716
    1BCK1    B1  526  11.976   6.122   9.890
    1BCK1    B1  527   0.094   6.080  10.105
    1BCK1    B1  528   0.046   5.892  10.261
    1BCK1    B1  529  11.860   5.731  10.250
    1BCK1    B1  530  11.785   5.500  10.219
    1BCK1    B1  531  11.793   5.299  10.367
    1BCK1    B1  532  11.801   5.299  10.617
    1BCK1    B1  533  11.801   5.500  10.765
    1BCK1    B1  534  11.872   5.733  10.737
    1BCK1    B1  535   0.056   5.896  10.730
    1BCK1    B1  536   0.104   6.083  10.886
    1BCK1    B1  537  11.987   6.132  11.099
    1BCK1    B1  538  11.984   6.308  11.266
    1BCK1    B1  539   0.139   6.452  11.386
    1BCK1    B1  540   0.216   6.601  11.557
    1BCK1    B1  541  11.486   8.752   6.456
    1BCK1    B1  542  11.623   8.730   6.654
    1BCK1    B1  543  11.831   8.779   6.775
    1BCK1    B1  544  11.947   8.987   6.838
    1BCK1    B1  545  11.923   9.135   7.039
    1BCK1    B1  546   0.028   9.072   7.259
    1BCK1    B1  547   0.270   8.996   7.264
    1BCK1    B1  548   0.457   9.164   7.241
    1BCK1    B1  549   0.463   9.381   7.371
    1BCK1    B1  550   0.484   9.383   7.623
    1BCK1    B1  551   0.478   9.166   7.756
    1BCK1    B1  552   0.276   9.015   7.743
    1BCK1    B1  553   0.045   9.115   7.762
    1BCK1    B1  554  11.944   9.170   7.987
    1BCK1    B1  555  11.912   8.996   8.159
    1BCK1    B1  556  11.911   8.747   8.165
    1BCK1    B1  557  11.868   8.608   8.366
    1BCK1    B1  558  11.818   8.677   8.595
    1BCK1    B1  559  11.622   9.461   3.404
    1BCK1    B1  560  11.399   9.413   3.330
    1BCK1    B1  561  11.223   9.272   3.237
    1BCK1    B1  562  11.190   9.049   3.143
    1BCK1    B1  563  11.014   8.908   3.050
    1BCK1    B1  564  10.807   8.949   2.919
    1BCK1    B1  565  10.737   8.847   2.706
    1BCK1    B1  566  10.753   8.618   2.618
    1BCK1    B1  567  10.622   8.413   2.571
    1BCK1    B1  568  10.370   8.404   2.569
    1BCK1    B1  569  10.227   8.603   2.615
    1BCK1    B1  570  10.257   8.825   2.719
    1BCK1    B1  571  10.159   8.922   2.923
    1BCK1    B1  572   9.944   8.864   3.033
    1BCK1    B1  573   9.795   8.994   3.177
    1BCK1    B1  574   9.775   9.230   3.244
    1BCK1    B1  575   9.610   9.388   3.328
    1BCK1    B1  576   9.391   9.450   3.407
    1BCK1    B1  577  11.562   9.081   8.533
    1BCK1    B1  578  11.335   9.015   8.585
    1BCK1    B1  579  11.158   9.079   8.744
    1BCK1    B1  580  11.138   8.999   8.979
    1BCK1    B1  581  10.967   8.833   9.059
    1BCK1    B1  582  10.734   8.926   9.099
    1BCK1    B1  583  10.725   9.149   9.226
    1BCK1    B1  584  10.755   9.143   9.476
    1BCK1    B1  585  10.627   8.975   9.617
    1BCK1    B1  586  10.374   8.973   9.614
    1BCK1    B1  587  10.244   9.141   9.475
    1BCK1    B1  588  10.265   9.150   9.224
    1BCK1    B1  589  10.257   8.934   9.090
    1BCK1    B1  590  10.028   8.837   9.043
    1BCK1    B1  591   9.847   8.997   8.974
    1BCK1    B1  592   9.818   9.103   8.752
    1BCK1    B1  593   9.720   9.025   8.541
    1BCK1    B1  594   9.559   9.079   8.370
    1BCK1    B1  595   5.750   8.334   6.011
    1BCK1    B1  596   5.795   8.259   6.236
    1BCK1    B1  597   5.882   8.217   6.459
    1BCK1    B1  598   5.947   8.123   6.674
    1BCK1    B1  599   5.956   8.054   6.906
    1BCK1    B1  600   6.016   8.041   7.141
    1BCK1    B1  601   6.182   8.004   7.316
    1BCK1    B1  602   6.261   7.970   7.543
    1BCK1    B1  603   6.192   7.952   7.778
    1BCK1    B1  604   6.192   7.778   7.952
    1BCK1    B1  605   6.261   7.543   7.970
    1BCK1    B1  606   6.182   7.316   8.003
    1BCK1    B1  607   6.016   7.141   8.040
    1BCK1    B1  608   5.957   6.906   8.054
    1BCK1    B1  609   5.947   6.674   8.123
    1BCK1    B1  610   5.881   6.460   8.216
    1BCK1    B1  611   5.793   6.237   8.258
    1BCK1    B1  612   5.749   6.012   8.334
    1BCK1    B1  613   9.228   8.726   5.292
    1BCK1    B1  614   9.401   8.566   5.243
    1BCK1    B1  615   9.575   8.404   5.195
    1BCK1    B1  616   9.751   8.243   5.153
    1BCK1    B1  617   9.923   8.079   5.107
    1BCK1    B1  618  10.094   7.915   5.057
    1BCK1    B1  619  10.269   7.759   5.000
    1BCK1    B1  620  10.430   7.603   4.909
    1BCK1    B1  621  10.576   7.443   4.803
    1BCK1    B1  622  10.725   7.321   4.656
    1BCK1    B1  623  10.850   7.220   4.475
    1BCK1    B1  624  10.936   7.042   4.335
    1BCK1    B1  625  10.983   6.942   4.118
    1BCK1    B1  626  11.064   6.986   3.890
    1BCK1    B1  627  11.196   6.853   3.729
    1BCK1    B1  628  11.230   6.610   3.698
    1BCK1    B1  629  11.246   6.414   3.549
    1BCK1    B1  630  11.343   6.323   3.342
    1BCK1    B1  631   2.541   3.393   9.456
    1BCK1    B1  632   2.681   3.502   9.616
    1BCK1    B1  633   2.896   3.566   9.724
    1BCK1    B1  634   3.107   3.666   9.786
    1BCK1    B1  635   3.244   3.859   9.875
    1BCK1    B1  636   3.252   4.084   9.958
    1BCK1    B1  637   3.220   4.323  10.024
    1BCK1    B1  638   3.364   4.465  10.166
    1BCK1    B1  639   3.453   4.432  10.397
    1BCK1    B1  640   3.445   4.606  10.576
    1BCK1    B1  641   3.352   4.836  10.546
    1BCK1    B1  642   3.216   4.981  10.692
    1BCK1    B1  643   3.249   5.046  10.931
    1BCK1    B1  644   3.233   5.133  11.156
    1BCK1    B1  645   3.089   5.219  11.346
    1BCK1    B1  646   2.869   5.273  11.435
    1BCK1    B1  647   2.656   5.394  11.487
    1BCK1    B1  648   2.585   5.570  11.641
    1BCK1    B1  649   2.607   8.474   8.790
    1BCK1    B1  650   2.685   8.358   8.593
    1BCK1    B1  651   2.798   8.246   8.409
    1BCK1    B1  652   2.997   8.174   8.287
    1BCK1    B1  653   3.096   8.083   8.083
    1BCK1    B1  654   3.039   7.976   7.868
    1BCK1    B1  655   3.150   7.867   7.677
    1BCK1    B1  656   3.384   7.839   7.607
    1BCK1    B1  657   3.532   7.714   7.452
    1BCK1    B1  658   3.448   7.545   7.287
    1BCK1    B1  659   3.215   7.457   7.277
    1BCK1    B1  660   3.094   7.293   7.142
    1BCK1    B1  661   3.169   7.110   6.995
    1BCK1    B1  662   3.106   6.894   6.899
    1BCK1    B1  663   2.913   6.752   6.859
    1BCK1    B1  664   2.759   6.595   6.758
    1BCK1    B1  665   2.712   6.404   6.615
    1BCK1    B1  666   2.670   6.178   6.545
    1BCK1    B1  667   2.515   6.107   2.402
    1BCK1    B1  668   2.402   6.302   2.317
    1BCK1    B1  669   2.299   6.508   2.242
    1BCK1    B1  670   2.199   6.717   2.172
    1BCK1    B1  671   2.093   6.922   2.103
    1BCK1    B1  672   1.990   7.126   2.029
    1BCK1    B1  673   1.899   7.336   1.958
    1BCK1    B1  674   1.771   7.510   1.854
    1BCK1    B1  675   1.637   7.668   1.734
    1BCK1    B1  676   1.521   7.830   1.600
    1BCK1    B1  677   1.368   7.933   1.446
    1BCK1    B1  678   1.201   7.989   1.284
    1BCK1    B1  679   1.064   8.056   1.099
    1BCK1    B1  680   0.921   8.120   0.916
    1BCK1    B1  681   0.761   8.152   0.739
    1BCK1    B1  682   0.608   8.195   0.558
    1BCK1    B1  683   0.459   8.245   0.375
    1BCK1    B1  684   0.308   8.300   0.194
    1BCK1    B1  685   3.276   6.224   9.680
    1BCK1    B1  686   3.434   6.394   9.748
    1BCK1    B1  687   3.593   6.568   9.804
    1BCK1    B1  688   3.756   6.741   9.845
    1BCK1    B1  689   3.917   6.915   9.889
    1BCK1    B1  690   4.067   7.094   9.945
    1BCK1    B1  691   4.234   7.259   9.996
    1BCK1    B1  692   4.400   7.415  10.070
    1BCK1    B1  693   4.535   7.589  10.166
    1BCK1    B1  694   4.661   7.723  10.320
    1BCK1    B1  695   4.798   7.815  10.495
    1BCK1    B1  696   4.918   7.933  10.665
    1BCK1    B1  697   5.006   8.032  10.865
    1BCK1    B1  698   5.100   8.107  11.074
    1BCK1    B1  699   5.189   8.177  11.286
    1BCK1    B1  700   5.279   8.258  11.495
    1BCK1    B1  701   5.376   8.343  11.701
    1BCK1    B1  702   5.484   8.435  11.896
    1BCK1    B1  703   3.564   9.495  11.663
    1BCK1    B1  704   3.372   9.616  11.734
    1BCK1    B1  705   3.240   9.739  11.898
    1BCK1    B1  706   3.031   9.864  11.914
    1BCK1    B1  707   2.965  10.098  11.863
    1BCK1    B1  708   2.934  10.274   0.034
    1BCK1    B1  709   2.859  10.254   0.270
    1BCK1    B1  710   2.630  10.229   0.362
    1BCK1    B1  711   2.429  10.374   0.327
    1BCK1    B1  712   2.429  10.625   0.327
    1BCK1    B1  713   2.629  10.771   0.364
    1BCK1    B1  714   2.859  10.746   0.273
    1BCK1    B1  715   2.934  10.729   0.037
    1BCK1    B1  716   2.972  10.907  11.870
    1BCK1    B1  717   3.044  11.138  11.927
    1BCK1    B1  718   3.254  11.262  11.906
    1BCK1    B1  719   3.376  11.373  11.727
    1BCK1    B1  720   3.479  11.553  11.607
    1BCK1    B1  721   3.689   5.832   5.654
    1BCK1    B1  722   3.748   5.646   5.512
    1BCK1    B1  723   3.802   5.459   5.369
    1BCK1    B1  724   3.847   5.266   5.232
    1BCK1    B1  725   3.884   5.074   5.091
    1BCK1    B1  726   3.938   4.898   4.937
    1BCK1    B1  727   4.006   4.712   4.802
    1BCK1    B1  728   4.104   4.529   4.682
    1BCK1    B1  729   4.189   4.364   4.531
    1BCK1    B1  730   4.310   4.237   4.366
    1BCK1    B1  731   4.495   4.140   4.248
    1BCK1    B1  732   4.687   4.036   4.149
    1BCK1    B1  733   4.873   3.954   4.022
    1BCK1    B1  734   5.067   3.892   3.895
    1BCK1    B1  735   5.279   3.836   3.795
    1BCK1    B1  736   5.489   3.779   3.690
    1BCK1    B1  737   5.691   3.711   3.576
    1BCK1    B1  738   5.852   3.571   3.461
    1BCK1    B1  739   6.378   0.424   3.448
    1BCK1    B1  740   6.366   0.627   3.318
    1BCK1    B1  741   6.250   0.764   3.151
    1BCK1    B1  742   6.018   0.819   3.089
    1BCK1    B1  743   5.882   1.026   3.093
    1BCK1    B1  744   5.933   1.237   2.967
    1BCK1    B1  745   5.920   1.257   2.718
    1BCK1    B1  746   5.713   1.230   2.581
    1BCK1    B1  747   5.508   1.374   2.579
    1BCK1    B1  748   5.508   1.626   2.579
    1BCK1    B1  749   5.713   1.770   2.581
    1BCK1    B1  750   5.920   1.743   2.718
    1BCK1    B1  751   5.934   1.763   2.967
    1BCK1    B1  752   5.886   1.974   3.093
    1BCK1    B1  753   6.023   2.180   3.093
    1BCK1    B1  754   6.252   2.241   3.157
    1BCK1    B1  755   6.365   2.386   3.320
    1BCK1    B1  756   6.382   2.595   3.439
    1BCK1    B1  757   6.189   0.327   5.303
    1BCK1    B1  758   6.371   0.476   5.246
    1BCK1    B1  759   6.556   0.624   5.197
    1BCK1    B1  760   6.742   0.770   5.146
    1BCK1    B1  761   6.926   0.923   5.118
    1BCK1    B1  762   7.113   1.077   5.112
    1BCK1    B1  763   7.285   1.203   4.999
    1BCK1    B1  764   7.459   1.358   4.940
    1BCK1    B1  765   7.611   1.502   4.822
    1BCK1    B1  766   7.744   1.629   4.666
    1BCK1    B1  767   7.865   1.761   4.505
    1BCK1    B1  768   7.956   1.883   4.317
    1BCK1    B1  769   8.030   1.991   4.114
    1BCK1    B1  770   8.113   2.104   3.915
    1BCK1    B1  771   8.179   2.211   3.706
    1BCK1    B1  772   8.246   2.328   3.501
    1BCK1    B1  773   8.344   2.449   3.310
    1BCK1    B1  774   8.492   2.538   3.135
    1BCK1    B1  775   2.192   6.152   6.389
    1BCK1    B1  776   2.185   6.341   6.540
    1BCK1    B1  777   2.242   6.528   6.684
    1BCK1    B1  778   2.228   6.738   6.805
    1BCK1    B1  779   2.103   6.924   6.900
    1BCK1    B1  780   2.036   7.117   7.029
    1BCK1    B1  781   2.017   7.312   7.169
    1BCK1    B1  782   1.933   7.503   7.292
    1BCK1    B1  783   1.798   7.659   7.415
    1BCK1    B1  784   1.646   7.782   7.555
    1BCK1    B1  785   1.481   7.894   7.690
    1BCK1    B1  786   1.304   7.991   7.820
    1BCK1    B1  787   1.117   8.049   7.960
    1BCK1    B1  788   0.927   8.108   8.095
    1BCK1    B1  789   0.726   8.159   8.218
    1BCK1    B1  790   0.527   8.214   8.344
    1BCK1    B1  791   0.329   8.281   8.467
    1BCK1    B1  792   0.154   8.316   8.628
    1BCK1    B1  793   6.686  12.000   8.811
    1BCK1    B1  794   6.783   0.220   8.836
    1BCK1    B1  795   6.826   0.453   8.891
    1BCK1    B1  796   6.838   0.677   8.982
    1BCK1    B1  797   6.900   0.905   9.041
    1BCK1    B1  798   7.006   1.122   9.007
    1BCK1    B1  799   7.022   1.366   9.017
    1BCK1    B1  800   6.981   1.574   9.137
    1BCK1    B1  801   7.049   1.777   9.256
    1BCK1    B1  802   7.223   1.951   9.257
    1BCK1    B1  803   7.425   2.019   9.138
    1BCK1    B1  804   7.629   1.975   9.012
    1BCK1    B1  805   7.872   1.990   9.005
    1BCK1    B1  806   8.082   2.100   9.056
    1BCK1    B1  807   8.301   2.174   8.984
    1BCK1    B1  808   8.506   2.210   8.863
    1BCK1    B1  809   8.746   2.226   8.856
    1BCK1    B1  810   8.970   2.235   8.786
    1BCK1    B1  811   8.449   9.189   5.206
    1BCK1    B1  812   8.252   9.327   5.251
    1BCK1    B1  813   8.202   9.550   5.347
    1BCK1    B1  814   8.183   9.774   5.248
    1BCK1    B1  815   8.125   9.910   5.054
    1BCK1    B1  816   8.027  10.120   4.983
    1BCK1    B1  817   7.921  10.329   4.926
    1BCK1    B1  818   7.840  10.516   4.796
    1BCK1    B1  819   7.731  10.679   4.656
    1BCK1    B1  820   7.590  10.823   4.524
    1BCK1    B1  821   7.430  10.928   4.377
    1BCK1    B1  822   7.266  11.012   4.221
    1BCK1    B1  823   7.079  11.043   4.072
    1BCK1    B1  824   6.902  11.097   3.916
    1BCK1    B1  825   6.769  11.200   3.742
    1BCK1    B1  826   6.581  11.214   3.588
    1BCK1    B1  827   6.369  11.159   3.482
    1BCK1    B1  828   6.177  11.193   3.338
    1BCK1    B1  829   9.146   0.417   3.629
    1BCK1    B1  830   9.046   0.589   3.495
    1BCK1    B1  831   8.971   0.734   3.315
    1BCK1    B1  832   9.045   0.825   3.100
    1BCK1    B1  833   9.128   1.028   2.989
    1BCK1    B1  834   9.011   1.232   2.908
    1BCK1    B1  835   8.846   1.256   2.726
    1BCK1    B1  836   8.854   1.228   2.481
    1BCK1    B1  837   8.912   1.374   2.288
    1BCK1    B1  838   8.912   1.625   2.288
    1BCK1    B1  839   8.855   1.771   2.482
    1BCK1    B1  840   8.847   1.743   2.727
    1BCK1    B1  841   9.012   1.770   2.910
    1BCK1    B1  842   9.119   1.976   2.997
    1BCK1    B1  843   9.026   2.174   3.108
    1BCK1    B1  844   8.946   2.271   3.318
    1BCK1    B1  845   9.024   2.419   3.496
    1BCK1    B1  846   9.139   2.578   3.633
    1BCK1    B1  847  11.882   0.364   3.556
    1BCK1    B1  848  11.689   0.312   3.691
    1BCK1    B1  849  11.484   0.227   3.791
    1BCK1    B1  850  11.292   0.079   3.807
    1BCK1    B1  851  11.094  11.949   3.862
    1BCK1    B1  852  10.903  11.919   4.009
    1BCK1    B1  853  10.691  11.872   4.120
    1BCK1    B1  854  10.501  11.720   4.111
    1BCK1    B1  855  10.323  11.555   4.147
    1BCK1    B1  856  10.146  11.555   4.323
    1BCK1    B1  857  10.111  11.720   4.502
    1BCK1    B1  858  10.121  11.872   4.692
    1BCK1    B1  859  10.009  11.919   4.903
    1BCK1    B1  860   9.863  11.951   5.094
    1BCK1    B1  861   9.807   0.081   5.293
    1BCK1    B1  862   9.784   0.219   5.491
    1BCK1    B1  863   9.677   0.295   5.696
    1BCK1    B1  864   9.536   0.390   5.867
    1BCK1    B1  865   9.289   3.703  11.792
    1BCK1    B1  866   9.449   3.761  11.622
    1BCK1    B1  867   9.613   3.816  11.453
    1BCK1    B1  868   9.761   3.855  11.267
    1BCK1    B1  869   9.916   3.895  11.087
    1BCK1    B1  870  10.082   3.942  10.920
    1BCK1    B1  871  10.242   3.983  10.746
    1BCK1    B1  872  10.396   4.074  10.586
    1BCK1    B1  873  10.557   4.188  10.450
    1BCK1    B1  874  10.706   4.313  10.310
    1BCK1    B1  875  10.816   4.478  10.175
    1BCK1    B1  876  10.914   4.673  10.074
    1BCK1    B1  877  11.012   4.875   9.987
    1BCK1    B1  878  11.108   5.077   9.901
    1BCK1    B1  879  11.197   5.288   9.823
    1BCK1    B1  880  11.285   5.500   9.746
    1BCK1    B1  881  11.379   5.708   9.663
    1BCK1    B1  882  11.484   5.899   9.558
    1BCK1    B1  883   6.175  11.310  11.665
    1BCK1    B1  884   6.360  11.249  11.524
    1BCK1    B1  885   6.549  11.193  11.383
    1BCK1    B1  886   6.739  11.149  11.242
    1BCK1    B1  887   6.928  11.114  11.097
    1BCK1    B1  888   7.104  11.054  10.946
    1BCK1    B1  889   7.286  10.994  10.802
    1BCK1    B1  890   7.464  10.919  10.661
    1BCK1    B1  891   7.620  10.815  10.513
    1BCK1    B1  892   7.760  10.676  10.377
    1BCK1    B1  893   7.874  10.507  10.252
    1BCK1    B1  894   7.957  10.321  10.125
    1BCK1    B1  895   8.030  10.120  10.017
    1BCK1    B1  896   8.107   9.919   9.912
    1BCK1    B1  897   8.161   9.711   9.805
    1BCK1    B1  898   8.225   9.508   9.691
    1BCK1    B1  899   8.297   9.307   9.577
    1BCK1    B1  900   8.380   9.114   9.457
    1BCK1    B1  901   3.527  11.558   9.074
    1BCK1    B1  902   3.404  11.371   8.993
    1BCK1    B1  903   3.255  11.191   9.063
    1BCK1    B1  904   3.030  11.128   8.985
    1BCK1    B1  905   2.999  10.959   8.799
    1BCK1    B1  906   2.933  10.725   8.871
    1BCK1    B1  907   2.732  10.717   9.029
    1BCK1    B1  908   2.502  10.755   8.930
    1BCK1    B1  909   2.426  10.625   8.725
    1BCK1    B1  910   2.433  10.373   8.720
    1BCK1    B1  911   2.510  10.235   8.916
    1BCK1    B1  912   2.732  10.258   9.028
    1BCK1    B1  913   2.951  10.238   8.902
    1BCK1    B1  914   3.041  10.005   8.862
    1BCK1    B1  915   3.037   9.839   9.050
    1BCK1    B1  916   3.219   9.779   9.207
    1BCK1    B1  917   3.428   9.655   9.171
    1BCK1    B1  918   3.551   9.448   9.160
    1BCK1    B1  919   8.469   5.601   9.192
    1BCK1    B1  920   8.352   5.680   9.388
    1BCK1    B1  921   8.250   5.787   9.582
    1BCK1    B1  922   8.177   5.966   9.729
    1BCK1    B1  923   8.062   6.066   9.920
    1BCK1    B1  924   7.944   6.034  10.132
    1BCK1    B1  925   7.879   6.134  10.347
    1BCK1    B1  926   7.878   6.357  10.451
    1BCK1    B1  927   7.732   6.528  10.558
    1BCK1    B1  928   7.539   6.466  10.707
    1BCK1    B1  929   7.476   6.229  10.752
    1BCK1    B1  930   7.328   6.105  10.901
    1BCK1    B1  931   7.116   6.167  11.009
    1BCK1    B1  932   6.898   6.080  11.071
    1BCK1    B1  933   6.767   5.896  11.158
    1BCK1    B1  934   6.585   5.785  11.272
    1BCK1    B1  935   6.386   5.704  11.383
    1BCK1    B1  936   6.184   5.601  11.458
    1BCK1    B1  937   8.568   2.642   8.574
    1BCK1    B1  938   8.728   2.511   8.446
    1BCK1    B1  939   8.772   2.283   8.361
    1BCK1    B1  940   8.840   2.045   8.333
    1BCK1    B1  941   8.973   1.872   8.210
    1BCK1    B1  942   9.108   1.808   8.010
    1BCK1    B1  943   9.222   1.815   7.789
    1BCK1    B1  944   9.443   1.731   7.713
    1BCK1    B1  945   9.572   1.516   7.731
    1BCK1    B1  946   9.534   1.323   7.573
    1BCK1    B1  947   9.372   1.331   7.387
    1BCK1    B1  948   9.231   1.350   7.190
    1BCK1    B1  949   9.142   1.195   7.021
    1BCK1    B1  950   9.149   1.091   6.803
    1BCK1    B1  951   9.027   0.967   6.627
    1BCK1    B1  952   8.898   0.775   6.555
    1BCK1    B1  953   8.803   0.550   6.594
    1BCK1    B1  954   8.735   0.321   6.593
    1BCK1    B1  955  11.277   3.032   9.034
    1BCK1    B1  956  11.193   2.806   9.019
    1BCK1    B1  957  11.183   2.565   8.985
    1BCK1    B1  958  11.147   2.325   8.996
    1BCK1    B1  959  11.055   2.106   9.045
    1BCK1    B1  960  10.990   1.872   9.022
    1BCK1    B1  961  11.027   1.646   8.939
    1BCK1    B1  962  11.058   1.404   8.943
    1BCK1    B1  963  10.984   1.186   9.026
    1BCK1    B1  964  10.809   1.015   9.026
    1BCK1    B1  965  10.592   0.943   8.941
    1BCK1    B1  966  10.350   0.972   8.936
    1BCK1    B1  967  10.123   1.007   9.017
    1BCK1    B1  968   9.888   0.941   9.033
    1BCK1    B1  969   9.677   0.845   8.961
    1BCK1    B1  970   9.439   0.806   8.936
    1BCK1    B1  971   9.202   0.810   8.994
    1BCK1    B1  972   8.987   0.722   9.058
    1BCK1    B1  973   3.141   0.002   3.698
    1BCK1    B1  974   3.130   0.220   3.798
    1BCK1    B1  975   3.104   0.459   3.835
    1BCK1    B1  976   3.027   0.688   3.852
    1BCK1    B1  977   2.936   0.908   3.899
    1BCK1    B1  978   2.951   1.132   3.992
    1BCK1    B1  979   3.014   1.364   4.033
    1BCK1    B1  980   2.943   1.595   4.004
    1BCK1    B1  981   2.781   1.777   4.046
    1BCK1    B1  982   2.782   1.953   4.223
    1BCK1    B1  983   2.944   1.995   4.403
    1BCK1    B1  984   3.015   1.966   4.635
    1BCK1    B1  985   2.949   2.007   4.866
    1BCK1    B1  986   2.933   2.101   5.089
    1BCK1    B1  987   3.025   2.153   5.308
    1BCK1    B1  988   3.102   2.197   5.533
    1BCK1    B1  989   3.124   2.241   5.770
    1BCK1    B1  990   3.115   2.285   6.007
    1BCK1    B1  991   0.368   0.465   9.427
    1BCK1    B1  992   0.376   0.315   9.617
    1BCK1    B1  993   0.242   0.180   9.771
    1BCK1    B1  994   0.004   0.161   9.834
    1BCK1    B1  995  11.897   0.081  10.041
    1BCK1    B1  996  11.989  11.925  10.214
    1BCK1    B1  997  11.902  11.698  10.264
    1BCK1    B1  998  11.670  11.613  10.231
    1BCK1    B1  999  11.497  11.513  10.379
    1BCK1    B1 1000  11.499  11.513  10.629
    1BCK1    B1 1001  11.674  11.608  10.777
    1BCK1    B1 1002  11.909  11.685  10.756
    1BCK1    B1 1003  -0.003  11.912  10.807
    1BCK1    B1 1004  11.895   0.070  10.973
    1BCK1    B1 1005   0.002   0.165  11.174
    1BCK1    B1 1006   0.243   0.185  11.228
    1BCK1    B1 1007   0.379   0.314  11.386
    1BCK1    B1 1008   0.367   0.463  11.576
    1BCK1    B1 1009   0.960   3.109   9.239
    1BCK1    B1 1010   1.198   3.082   9.180
    1BCK1    B1 1011   1.433   3.049   9.107
    1BCK1    B1 1012   1.672   3.018   9.038
    1BCK1    B1 1013   1.912   2.987   8.970
    1BCK1    B1 1014   2.148   2.951   8.886
    1BCK1    B1 1015   2.374   2.902   8.781
    1BCK1    B1 1016   2.620   2.860   8.727
    1BCK1    B1 1017   2.871   2.824   8.733
    1BCK1    B1 1018   3.127   2.825   8.737
    1BCK1    B1 1019   3.378   2.862   8.746
    1BCK1    B1 1020   3.627   2.891   8.791
    1BCK1    B1 1021   3.871   2.916   8.854
    1BCK1    B1 1022   4.104   2.959   8.940
    1BCK1    B1 1023   4.329   3.013   9.039
    1BCK1    B1 1024   4.565   3.053   9.112
    1BCK1    B1 1025   4.805   3.084   9.171
    1BCK1    B1 1026   5.045   3.109   9.218
    1BCK1    B1 1027   6.780   5.492   5.827
    1BCK1    B1 1028   6.882   5.331   5.669
    1BCK1    B1 1029   6.953   5.156   5.502
    1BCK1    B1 1030   6.939   4.968   5.328
    1BCK1    B1 1031   6.872   4.860   5.106
    1BCK1    B1 1032   6.854   4.847   4.852
    1BCK1    B1 1033   6.947   4.816   4.620
    1BCK1    B1 1034   7.059   4.664   4.456
    1BCK1    B1 1035   7.159   4.534   4.270
    1BCK1    B1 1036   7.297   4.489   4.068
    1BCK1    B1 1037   7.488   4.376   3.953
    1BCK1    B1 1038   7.633   4.172   3.931
    1BCK1    B1 1039   7.751   3.954   3.988
    1BCK1    B1 1040   7.946   3.799   4.060
    1BCK1    B1 1041   8.199   3.735   4.074
    1BCK1    B1 1042   8.445   3.702   3.998
    1BCK1    B1 1043   8.658   3.602   3.889
    1BCK1    B1 1044   8.821   3.445   3.773
    1BCK1    B1 1045  11.941   3.652   9.418
    1BCK1    B1 1046  11.848   3.495   9.573
    1BCK1    B1 1047  11.845   3.305   9.727
    1BCK1    B1 1048   0.008   3.145   9.816
    1BCK1    B1 1049   0.109   3.034  10.007
    1BCK1    B1 1050   0.023   2.914  10.205
    1BCK1    B1 1051  12.000   2.676  10.258
    1BCK1    B1 1052   0.108   2.457  10.232
    1BCK1    B1 1053   0.130   2.254  10.374
    1BCK1    B1 1054   0.129   2.254  10.626
    1BCK1    B1 1055   0.108   2.457  10.769
    1BCK1    B1 1056   0.000   2.677  10.743
    1BCK1    B1 1057   0.023   2.914  10.796
    1BCK1    B1 1058   0.109   3.035  10.994
    1BCK1    B1 1059   0.008   3.148  11.184
    1BCK1    B1 1060  11.851   3.310  11.279
    1BCK1    B1 1061  11.862   3.492  11.441
    1BCK1    B1 1062  11.917   3.675  11.584
    1BCK1    B1 1063  11.606   2.462   3.132
    1BCK1    B1 1064  11.704   2.348   3.320
    1BCK1    B1 1065  11.808   2.230   3.505
    1BCK1    B1 1066  11.869   2.166   3.731
    1BCK1    B1 1067  11.990   2.144   3.940
    1BCK1    B1 1068   0.148   2.021   4.076
    1BCK1    B1 1069   0.205   1.857   4.248
    1BCK1    B1 1070   0.287   1.854   4.476
    1BCK1    B1 1071   0.426   1.857   4.679
    1BCK1    B1 1072   0.426   1.679   4.857
    1BCK1    B1 1073   0.287   1.476   4.853
    1BCK1    B1 1074   0.204   1.248   4.857
    1BCK1    B1 1075   0.147   1.077   5.021
    1BCK1    B1 1076  11.988   0.941   5.143
    1BCK1    B1 1077  11.864   0.733   5.164
    1BCK1    B1 1078  11.800   0.508   5.228
    1BCK1    B1 1079  11.697   0.322   5.345
    1BCK1    B1 1080  11.601   0.134   5.461
    1BCK1    B1 1081   9.414   6.515   6.165
    1BCK1    B1 1082   9.325   6.624   6.361
    1BCK1    B1 1083   9.257   6.725   6.571
    1BCK1    B1 1084   9.143   6.826   6.760
    1BCK1    B1 1085   8.948   6.919   6.871
    1BCK1    B1 1086   8.827   7.022   7.055
    1BCK1    B1 1087   8.845   7.088   7.290
    1BCK1    B1 1088   8.720   7.135   7.493
    1BCK1    B1 1089   8.514   7.245   7.576
    1BCK1    B1 1090   8.503   7.425   7.749
    1BCK1    B1 1091   8.695   7.509   7.879
    1BCK1    B1 1092   8.853   7.693   7.908
    1BCK1    B1 1093   8.830   7.931   7.963
    1BCK1    B1 1094   8.908   8.128   8.082
    1BCK1    B1 1095   9.114   8.228   8.165
    1BCK1    B1 1096   9.288   8.386   8.227
    1BCK1    B1 1097   9.324   8.591   8.357
    1BCK1    B1 1098   9.247   8.725   8.542
    1BCK1    B1 1099   0.963   6.219   9.143
    1BCK1    B1 1100   1.200   6.165   9.108
    1BCK1    B1 1101   1.436   6.098   9.064
    1BCK1    B1 1102   1.674   6.033   9.022
    1BCK1    B1 1103   1.914   5.970   8.981
    1BCK1    B1 1104   2.151   5.897   8.934
    1BCK1    B1 1105   2.383   5.814   8.876
    1BCK1    B1 1106   2.628   5.774   8.829
    1BCK1    B1 1107   2.877   5.752   8.794
    1BCK1    B1 1108   3.129   5.782   8.810
    1BCK1    B1 1109   3.379   5.765   8.839
    1BCK1    B1 1110   3.626   5.805   8.876
    1BCK1    B1 1111   3.853   5.901   8.929
    1BCK1    B1 1112   4.089   5.973   8.979
    1BCK1    B1 1113   4.329   6.034   9.022
    1BCK1    B1 1114   4.566   6.098   9.064
    1BCK1    B1 1115   4.802   6.165   9.107
    1BCK1    B1 1116   5.039   6.219   9.141
    1BCK1    B1 1117  11.770   9.703   2.734
    1BCK1    B1 1118  11.601   9.756   2.571
    1BCK1    B1 1119  11.429   9.802   2.407
    1BCK1    B1 1120  11.253   9.845   2.247
    1BCK1    B1 1121  11.082   9.896   2.087
    1BCK1    B1 1122  10.915   9.942   1.921
    1BCK1    B1 1123  10.737   9.980   1.764
    1BCK1    B1 1124  10.572  10.080   1.621
    1BCK1    B1 1125  10.423  10.181   1.465
    1BCK1    B1 1126  10.281  10.305   1.317
    1BCK1    B1 1127  10.167  10.484   1.204
    1BCK1    B1 1128  10.072  10.678   1.100
    1BCK1    B1 1129   9.975  10.870   0.994
    1BCK1    B1 1130   9.889  11.069   0.891
    1BCK1    B1 1131   9.821  11.285   0.809
    1BCK1    B1 1132   9.746  11.498   0.722
    1BCK1    B1 1133   9.661  11.702   0.623
    1BCK1    B1 1134   9.568  11.896   0.512
    1BCK1    B1 1135   3.157   0.364  11.320
    1BCK1    B1 1136   3.346   0.500  11.258
    1BCK1    B1 1137   3.539   0.634  11.202
    1BCK1    B1 1138   3.730   0.776  11.159
    1BCK1    B1 1139   3.919   0.921  11.120
    1BCK1    B1 1140   4.113   1.042  11.048
    1BCK1    B1 1141   4.305   1.168  10.977
    1BCK1    B1 1142   4.470   1.331  10.914
    1BCK1    B1 1143   4.631   1.480  10.817
    1BCK1    B1 1144   4.774   1.591  10.659
    1BCK1    B1 1145   4.885   1.720  10.490
    1BCK1    B1 1146   4.976   1.865  10.323
    1BCK1    B1 1147   5.036   1.987  10.124
    1BCK1    B1 1148   5.105   2.097   9.922
    1BCK1    B1 1149   5.168   2.209   9.718
    1BCK1    B1 1150   5.221   2.328   9.514
    1BCK1    B1 1151   5.282   2.455   9.316
    1BCK1    B1 1152   5.372   2.577   9.129
    1BCK1    B1 1153   3.236  11.568   3.464
    1BCK1    B1 1154   3.419  11.457   3.355
    1BCK1    B1 1155   3.600  11.315   3.279
    1BCK1    B1 1156   3.744  11.181   3.139
    1BCK1    B1 1157   3.867  11.097   2.947
    1BCK1    B1 1158   4.068  11.011   2.844
    1BCK1    B1 1159   4.263  10.865   2.825
    1BCK1    B1 1160   4.390  10.758   2.649
    1BCK1    B1 1161   4.505  10.680   2.446
    1BCK1    B1 1162   4.683  10.502   2.446
    1BCK1    B1 1163   4.761  10.387   2.649
    1BCK1    B1 1164   4.866  10.263   2.829
    1BCK1    B1 1165   5.009  10.067   2.846
    1BCK1    B1 1166   5.095   9.870   2.957
    1BCK1    B1 1167   5.191   9.776   3.160
    1BCK1    B1 1168   5.316   9.596   3.261
    1BCK1    B1 1169   5.425   9.394   3.338
    1BCK1    B1 1170   5.556   9.237   3.464
    1BCK1    B1 1171   3.101  11.588   9.432
    1BCK1    B1 1172   3.173  11.366   9.479
    1BCK1    B1 1173   3.199  11.127   9.542
    1BCK1    B1 1174   3.105  11.035   9.754
    1BCK1    B1 1175   2.916  11.149   9.873
    1BCK1    B1 1176   2.809  11.091  10.085
    1BCK1    B1 1177   2.877  10.918  10.249
    1BCK1    B1 1178   2.770  10.835  10.449
    1BCK1    B1 1179   2.570  10.838  10.594
    1BCK1    B1 1180   2.532  10.677  10.782
    1BCK1    B1 1181   2.680  10.492  10.849
    1BCK1    B1 1182   2.835  10.316  10.911
    1BCK1    B1 1183   2.884  10.112  11.035
    1BCK1    B1 1184   2.970   9.897  11.108
    1BCK1    B1 1185   3.121   9.726  11.191
    1BCK1    B1 1186   3.227   9.515  11.250
    1BCK1    B1 1187   3.294   9.288  11.305
    1BCK1    B1 1188   3.382   9.095  11.421
    1BCK1    B1 1189   6.310   3.677   3.327
    1BCK1    B1 1190   6.433   3.724   3.530
    1BCK1    B1 1191   6.612   3.779   3.686
    1BCK1    B1 1192   6.800   3.871   3.807
    1BCK1    B1 1193   6.998   3.990   3.886
    1BCK1    B1 1194   7.182   3.998   4.043
    1BCK1    B1 1195   7.303   3.977   4.253
    1BCK1    B1 1196   7.459   4.091   4.400
    1BCK1    B1 1197   7.523   4.276   4.544
    1BCK1    B1 1198   7.669   4.333   4.731
    1BCK1    B1 1199   7.877   4.453   4.778
    1BCK1    B1 1200   7.967   4.680   4.758
    1BCK1    B1 1201   7.975   4.892   4.879
    1BCK1    B1 1202   8.044   5.027   5.071
    1BCK1    B1 1203   8.146   5.215   5.186
    1BCK1    B1 1204   8.220   5.430   5.274
    1BCK1    B1 1205   8.293   5.637   5.381
    1BCK1    B1 1206   8.380   5.829   5.502
    1BCK1    B1 1207   0.436   3.133   6.595
    1BCK1    B1 1208   0.566   3.321   6.672
    1BCK1    B1 1209   0.686   3.522   6.734
    1BCK1    B1 1210   0.790   3.720   6.827
    1BCK1    B1 1211   0.903   3.919   6.903
    1BCK1    B1 1212   1.033   4.115   6.951
    1BCK1    B1 1213   1.150   4.318   7.006
    1BCK1    B1 1214   1.277   4.493   7.112
    1BCK1    B1 1215   1.423   4.642   7.231
    1BCK1    B1 1216   1.555   4.798   7.356
    1BCK1    B1 1217   1.693   4.913   7.516
    1BCK1    B1 1218   1.836   4.988   7.694
    1BCK1    B1 1219   1.962   5.048   7.889
    1BCK1    B1 1220   2.097   5.115   8.077
    1BCK1    B1 1221   2.234   5.167   8.269
    1BCK1    B1 1222   2.361   5.242   8.461
    1BCK1    B1 1223   2.490   5.300   8.659
    1BCK1    B1 1224   2.618   5.276   8.864
    1BCK1    B1 1225   3.656   3.297   9.116
    1BCK1    B1 1226   3.818   3.195   9.265
    1BCK1    B1 1227   3.870   3.055   9.458
    1BCK1    B1 1228   3.838   3.027   9.699
    1BCK1    B1 1229   3.889   3.051   9.935
    1BCK1    B1 1230   4.013   2.983  10.134
    1BCK1    B1 1231   4.043   2.824  10.317
    1BCK1    B1 1232   4.007   2.796  10.558
    1BCK1    B1 1233   4.055   2.910  10.770
    1BCK1    B1 1234   4.228   2.910  10.944
    1BCK1    B1 1235   4.440   2.794  10.993
    1BCK1    B1 1236   4.681   2.819  10.954
    1BCK1    B1 1237   4.863   2.979  10.983
    1BCK1    B1 1238   5.059   3.052  11.109
    1BCK1    B1 1239   5.295   3.044  11.165
    1BCK1    B1 1240   5.535   3.078  11.168
    1BCK1    B1 1241   5.762   3.149  11.214
    1BCK1    B1 1242   5.979   3.192  11.313
    1BCK1    B1 1243   2.771   5.856  11.239
    1BCK1    B1 1244   2.820   5.661  11.099
    1BCK1    B1 1245   2.845   5.447  10.986
    1BCK1    B1 1246   2.790   5.200  10.967
    1BCK1    B1 1247   2.788   4.972  11.057
    1BCK1    B1 1248   2.906   4.780  11.170
    1BCK1    B1 1249   3.090   4.624  11.128
    1BCK1    B1 1250   3.142   4.433  10.981
    1BCK1    B1 1251   3.133   4.187  10.992
    1BCK1    B1 1252   3.139   4.014  10.816
    1BCK1    B1 1253   3.150   4.030  10.570
    1BCK1    B1 1254   3.088   3.891  10.376
    1BCK1    B1 1255   2.905   3.851  10.220
    1BCK1    B1 1256   2.791   3.953  10.020
    1BCK1    B1 1257   2.797   4.038   9.791
    1BCK1    B1 1258   2.854   4.015   9.546
    1BCK1    B1 1259   2.833   3.897   9.334
    1BCK1    B1 1260   2.767   3.763   9.139
    1BCK1    B1 1261   2.918   8.041  11.760
    1BCK1    B1 1262   2.938   7.804  11.819
    1BCK1    B1 1263   2.964   7.567  11.892
    1BCK1    B1 1264   2.992   7.329  11.963
    1BCK1    B1 1265   3.020   7.090   0.033
    1BCK1    B1 1266   3.040   6.853   0.119
    1BCK1    B1 1267   3.052   6.622   0.222
    1BCK1    B1 1268   3.105   6.377   0.264
    1BCK1    B1 1269   3.162   6.130   0.261
    1BCK1    B1 1270   3.163   5.875   0.262
    1BCK1    B1 1271   3.111   5.627   0.252
    1BCK1    B1 1272   3.070   5.382   0.200
    1BCK1    B1 1273   3.032   5.156   0.093
    1BCK1    B1 1274   3.005   4.922  12.001
    1BCK1    B1 1275   2.982   4.682  11.930
    1BCK1    B1 1276   2.959   4.444  11.859
    1BCK1    B1 1277   2.934   4.207  11.787
    1BCK1    B1 1278   2.915   3.967  11.738
    1BCK1    B1 1279   2.536   5.888   3.617
    1BCK1    B1 1280   2.420   5.693   3.698
    1BCK1    B1 1281   2.310   5.488   3.766
    1BCK1    B1 1282   2.202   5.281   3.830
    1BCK1    B1 1283   2.096   5.076   3.898
    1BCK1    B1 1284   1.990   4.871   3.962
    1BCK1    B1 1285   1.880   4.668   4.031
    1BCK1    B1 1286   1.748   4.499   4.137
    1BCK1    B1 1287   1.622   4.333   4.254
    1BCK1    B1 1288   1.488   4.180   4.383
    1BCK1    B1 1289   1.340   4.073   4.538
    1BCK1    B1 1290   1.199   3.999   4.717
    1BCK1    B1 1291   1.060   3.950   4.907
    1BCK1    B1 1292   0.905   3.892   5.082
    1BCK1    B1 1293   0.761   3.843   5.268
    1BCK1    B1 1294   0.641   3.783   5.469
    1BCK1    B1 1295   0.487   3.738   5.651
    1BCK1    B1 1296   0.281   3.695   5.768
    1BCK1    B1 1297   3.478   6.146   8.561
    1BCK1    B1 1298   3.362   6.153   8.351
    1BCK1    B1 1299   3.142   6.123   8.244
    1BCK1    B1 1300   3.058   5.918   8.133
    1BCK1    B1 1301   3.107   5.861   7.892
    1BCK1    B1 1302   2.957   5.954   7.711
    1BCK1    B1 1303   2.707   5.926   7.736
    1BCK1    B1 1304   2.607   5.699   7.785
    1BCK1    B1 1305   2.629   5.501   7.632
    1BCK1    B1 1306   2.638   5.508   7.382
    1BCK1    B1 1307   2.608   5.699   7.225
    1BCK1    B1 1308   2.684   5.937   7.236
    1BCK1    B1 1309   2.922   6.012   7.244
    1BCK1    B1 1310   3.105   5.921   7.098
    1BCK1    B1 1311   3.136   5.995   6.860
    1BCK1    B1 1312   3.139   6.227   6.778
    1BCK1    B1 1313   3.263   6.388   6.642
    1BCK1    B1 1314   3.434   6.399   6.470
    1BCK1    B1 1315   3.427   8.540   6.281
    1BCK1    B1 1316   3.343   8.395   6.454
    1BCK1    B1 1317   3.225   8.263   6.620
    1BCK1    B1 1318   3.031   8.202   6.754
    1BCK1    B1 1319   2.939   8.104   6.955
    1BCK1    B1 1320   2.964   7.940   7.137
    1BCK1    B1 1321   2.806   7.804   7.262
    1BCK1    B1 1322   2.562   7.769   7.300
    1BCK1    B1 1323   2.469   7.657   7.505
    1BCK1    B1 1324   2.623   7.577   7.686
    1BCK1    B1 1325   2.789   7.392   7.686
    1BCK1    B1 1326   2.753   7.167   7.786
    1BCK1    B1 1327   2.777   7.103   8.025
    1BCK1    B1 1328   2.986   7.020   8.132
    1BCK1    B1 1329   3.110   6.813   8.078
    1BCK1    B1 1330   3.204   6.623   8.203
    1BCK1    B1 1331   3.298   6.608   8.429
    1BCK1    B1 1332   3.444   6.649   8.616
    1BCK1    B1 1333   6.114   0.419   0.528
    1BCK1    B1 1334   6.312   0.326   0.630
    1BCK1    B1 1335   6.507   0.227   0.734
    1BCK1    B1 1336   6.712   0.138   0.831
    1BCK1    B1 1337   6.903   0.002   0.892
    1BCK1    B1 1338   7.083  11.873   0.990
    1BCK1    B1 1339   7.280  11.809   1.119
    1BCK1    B1 1340   7.480  11.673   1.133
    1BCK1    B1 1341   7.668  11.516   1.158
    1BCK1    B1 1342   7.845  11.517   1.336
    1BCK1    B1 1343   7.868  11.675   1.523
    1BCK1    B1 1344   7.882  11.810   1.724
    1BCK1    B1 1345   8.008  11.876   1.921
    1BCK1    B1 1346   8.098   0.005   2.105
    1BCK1    B1 1347   8.150   0.135   2.304
    1BCK1    B1 1348   8.240   0.201   2.519
    1BCK1    B1 1349   8.318   0.301   2.726
    1BCK1    B1 1350   8.463   0.410   2.885
    1BCK1    B1 1351   3.665  11.166   9.310
    1BCK1    B1 1352   3.644  11.319   9.495
    1BCK1    B1 1353   3.605  11.299   9.741
    1BCK1    B1 1354   3.707  11.123   9.886
    1BCK1    B1 1355   3.942  11.041   9.881
    1BCK1    B1 1356   4.137  11.061  10.026
    1BCK1    B1 1357   4.227  11.026  10.250
    1BCK1    B1 1358   4.399  10.926  10.387
    1BCK1    B1 1359   4.574  10.808  10.504
    1BCK1    B1 1360   4.718  10.687  10.656
    1BCK1    B1 1361   4.841  10.524  10.785
    1BCK1    B1 1362   4.932  10.333  10.901
    1BCK1    B1 1363   5.012  10.130  11.006
    1BCK1    B1 1364   5.105   9.928  11.099
    1BCK1    B1 1365   5.183   9.717  11.190
    1BCK1    B1 1366   5.253   9.505  11.285
    1BCK1    B1 1367   5.332   9.296  11.383
    1BCK1    B1 1368   5.421   9.099  11.492
    1BCK1    B1 1369   2.698   9.201   2.303
    1BCK1    B1 1370   2.545   9.378   2.246
    1BCK1    B1 1371   2.389   9.556   2.196
    1BCK1    B1 1372   2.232   9.736   2.159
    1BCK1    B1 1373   2.086   9.924   2.126
    1BCK1    B1 1374   1.935  10.099   2.060
    1BCK1    B1 1375   1.773  10.261   1.991
    1BCK1    B1 1376   1.625  10.436   1.920
    1BCK1    B1 1377   1.486  10.613   1.835
    1BCK1    B1 1378   1.348  10.740   1.685
    1BCK1    B1 1379   1.229  10.837   1.501
    1BCK1    B1 1380   1.108  10.946   1.325
    1BCK1    B1 1381   0.990  11.032   1.135
    1BCK1    B1 1382   0.887  11.115   0.933
    1BCK1    B1 1383   0.799  11.177   0.718
    1BCK1    B1 1384   0.705  11.244   0.505
    1BCK1    B1 1385   0.603  11.324   0.300
    1BCK1    B1 1386   0.498  11.428   0.107
    1BCK1    B1 1387   6.409   3.174   3.591
    1BCK1    B1 1388   6.624   3.213   3.490
    1BCK1    B1 1389   6.778   3.190   3.301
    1BCK1    B1 1390   6.802   3.038   3.111
    1BCK1    B1 1391   6.962   2.877   3.017
    1BCK1    B1 1392   7.193   2.928   2.938
    1BCK1    B1 1393   7.252   2.998   2.707
    1BCK1    B1 1394   7.223   2.878   2.492
    1BCK1    B1 1395   7.376   2.778   2.324
    1BCK1    B1 1396   7.626   2.782   2.328
    1BCK1    B1 1397   7.769   2.887   2.502
    1BCK1    B1 1398   7.723   2.990   2.722
    1BCK1    B1 1399   7.805   2.912   2.944
    1BCK1    B1 1400   8.053   2.902   2.990
    1BCK1    B1 1401   8.173   3.108   3.071
    1BCK1    B1 1402   8.200   3.144   3.318
    1BCK1    B1 1403   8.349   2.987   3.447
    1BCK1    B1 1404   8.584   2.946   3.412
    1BCK1    B1 1405   6.397   5.359   6.169
    1BCK1    B1 1406   6.593   5.303   6.299
    1BCK1    B1 1407   6.722   5.244   6.496
    1BCK1    B1 1408   6.800   5.178   6.716
    1BCK1    B1 1409   6.902   5.103   6.921
    1BCK1    B1 1410   7.002   5.020   7.124
    1BCK1    B1 1411   7.104   4.957   7.332
    1BCK1    B1 1412   7.246   4.876   7.509
    1BCK1    B1 1413   7.375   4.757   7.673
    1BCK1    B1 1414   7.489   4.593   7.807
    1BCK1    B1 1415   7.635   4.440   7.920
    1BCK1    B1 1416   7.802   4.290   8.005
    1BCK1    B1 1417   7.949   4.106   8.055
    1BCK1    B1 1418   8.089   3.917   8.107
    1BCK1    B1 1419   8.236   3.733   8.157
    1BCK1    B1 1420   8.386   3.548   8.198
    1BCK1    B1 1421   8.534   3.363   8.251
    1BCK1    B1 1422   8.681   3.201   8.354
    1BCK1    B1 1423   5.404   6.192   2.460
    1BCK1    B1 1424   5.304   6.385   2.349
    1BCK1    B1 1425   5.227   6.590   2.239
    1BCK1    B1 1426   5.137   6.800   2.152
    1BCK1    B1 1427   5.016   7.009   2.110
    1BCK1    B1 1428   4.919   7.202   1.994
    1BCK1    B1 1429   4.937   7.325   1.785
    1BCK1    B1 1430   4.940   7.436   1.567
    1BCK1    B1 1431   4.820   7.628   1.469
    1BCK1    B1 1432   4.621   7.756   1.531
    1BCK1    B1 1433   4.384   7.803   1.497
    1BCK1    B1 1434   4.239   7.893   1.320
    1BCK1    B1 1435   4.145   8.004   1.124
    1BCK1    B1 1436   3.981   8.086   0.962
    1BCK1    B1 1437   3.799   8.133   0.805
    1BCK1    B1 1438   3.625   8.177   0.638
    1BCK1    B1 1439   3.452   8.229   0.473
    1BCK1    B1 1440   3.278   8.319   0.326
    1BCK1    B1 1441   5.624   8.729   2.309
    1BCK1    B1 1442   5.485   8.540   2.248
    1BCK1    B1 1443   5.329   8.359   2.196
    1BCK1    B1 1444   5.183   8.179   2.122
    1BCK1    B1 1445   5.082   7.984   2.014
    1BCK1    B1 1446   4.912   7.814   1.971
    1BCK1    B1 1447   4.693   7.726   2.030
    1BCK1    B1 1448   4.488   7.593   2.023
    1BCK1    B1 1449   4.402   7.404   1.892
    1BCK1    B1 1450   4.448   7.298   1.676
    1BCK1    B1 1451   4.385   7.249   1.445
    1BCK1    B1 1452   4.210   7.135   1.317
    1BCK1    B1 1453   4.055   7.010   1.176
    1BCK1    B1 1454   3.938   6.920   0.980
    1BCK1    B1 1455   3.824   6.855   0.772
    1BCK1    B1 1456   3.700   6.787   0.571
    1BCK1    B1 1457   3.582   6.714   0.368
    1BCK1    B1 1458   3.517   6.630   0.147
    1BCK1    B1 1459   8.835   6.378  11.277
    1BCK1    B1 1460   8.678   6.550  11.210
    1BCK1    B1 1461   8.471   6.677  11.211
    1BCK1    B1 1462   8.233   6.725  11.188
    1BCK1    B1 1463   8.057   6.867  11.099
    1BCK1    B1 1464   7.903   7.039  11.031
    1BCK1    B1 1465   7.710   7.176  10.984
    1BCK1    B1 1466   7.530   7.316  10.906
    1BCK1    B1 1467   7.363   7.460  10.811
    1BCK1    B1 1468   7.235   7.607  10.668
    1BCK1    B1 1469   7.131   7.742  10.498
    1BCK1    B1 1470   7.029   7.862  10.317
    1BCK1    B1 1471   6.965   7.969  10.111
    1BCK1    B1 1472   6.894   8.101   9.922
    1BCK1    B1 1473   6.810   8.252   9.752
    1BCK1    B1 1474   6.763   8.324   9.525
    1BCK1    B1 1475   6.725   8.430   9.310
    1BCK1    B1 1476   6.632   8.574   9.140
    1BCK1    B1 1477   5.398   9.451   9.068
    1BCK1    B1 1478   5.553   9.628   9.109
    1BCK1    B1 1479   5.740   9.779   9.153
    1BCK1    B1 1480   5.932   9.857   9.023
    1BCK1    B1 1481   5.980  10.026   8.847
    1BCK1    B1 1482   6.081  10.250   8.904
    1BCK1    B1 1483   6.268  10.264   9.074
    1BCK1    B1 1484   6.509  10.243   9.006
    1BCK1    B1 1485   6.605  10.374   8.811
    1BCK1    B1 1486   6.605  10.626   8.811
    1BCK1    B1 1487   6.509  10.757   9.006
    1BCK1    B1 1488   6.268  10.736   9.074
    1BCK1    B1 1489   6.081  10.750   8.904
    1BCK1    B1 1490   5.979  10.973   8.848
    1BCK1    B1 1491   5.931  11.141   9.025
    1BCK1    B1 1492   5.738  11.219   9.154
    1BCK1    B1 1493   5.551  11.370   9.110
    1BCK1    B1 1494   5.397  11.548   9.068
    1BCK1    B1 1495   9.493   8.648   3.519
    1BCK1    B1 1496   9.598   8.470   3.382
    1BCK1    B1 1497   9.695   8.263   3.297
    1BCK1    B1 1498   9.739   8.044   3.177
    1BCK1    B1 1499   9.781   7.907   2.978
    1BCK1    B1 1500   9.912   7.832   2.777
    1BCK1    B1 1501  10.122   7.721   2.720
    1BCK1    B1 1502  10.302   7.691   2.557
    1BCK1    B1 1503  10.350   7.527   2.374
    1BCK1    B1 1504  10.535   7.358   2.383
    1BCK1    B1 1505  10.711   7.361   2.562
    1BCK1    B1 1506  10.751   7.206   2.747
    1BCK1    B1 1507  10.787   6.966   2.786
    1BCK1    B1 1508  10.891   6.792   2.927
    1BCK1    B1 1509  11.034   6.740   3.125
    1BCK1    B1 1510  11.249   6.781   3.243
    1BCK1    B1 1511  11.486   6.776   3.316
    1BCK1    B1 1512  11.669   6.657   3.434
    1BCK1    B1 1513   9.607   0.404   6.687
    1BCK1    B1 1514   9.439   0.536   6.804
    1BCK1    B1 1515   9.212   0.592   6.904
    1BCK1    B1 1516   9.004   0.652   7.009
    1BCK1    B1 1517   8.783   0.776   7.028
    1BCK1    B1 1518   8.667   0.988   7.050
    1BCK1    B1 1519   8.681   1.189   7.195
    1BCK1    B1 1520   8.680   1.431   7.204
    1BCK1    B1 1521   8.509   1.612   7.209
    1BCK1    B1 1522   8.505   1.792   7.384
    1BCK1    B1 1523   8.676   1.807   7.565
    1BCK1    B1 1524   8.696   1.903   7.789
    1BCK1    B1 1525   8.772   2.128   7.863
    1BCK1    B1 1526   8.974   2.261   7.926
    1BCK1    B1 1527   9.164   2.296   8.087
    1BCK1    B1 1528   9.277   2.285   8.310
    1BCK1    B1 1529   9.367   2.306   8.540
    1BCK1    B1 1530   9.427   2.315   8.778
    1BCK1    B1 1531   9.367   0.359   8.599
    1BCK1    B1 1532   9.230   0.345   8.404
    1BCK1    B1 1533   9.030   0.280   8.278
    1BCK1    B1 1534   9.006   0.071   8.148
    1BCK1    B1 1535   9.127   0.002   7.940
    1BCK1    B1 1536   9.001  11.941   7.733
    1BCK1    B1 1537   8.772  11.841   7.737
    1BCK1    B1 1538   8.696  11.608   7.774
    1BCK1    B1 1539   8.695  11.410   7.624
    1BCK1    B1 1540   8.687  11.400   7.375
    1BCK1    B1 1541   8.663  11.591   7.215
    1BCK1    B1 1542   8.725  11.830   7.245
    1BCK1    B1 1543   8.948  11.933   7.276
    1BCK1    B1 1544   9.148  11.933   7.130
    1BCK1    B1 1545   9.157  11.988   6.891
    1BCK1    B1 1546   9.195   0.126   6.699
    1BCK1    B1 1547   9.214   0.253   6.495
    1BCK1    B1 1548   9.224   0.450   6.361
    1BCK1    B1 1549   9.588   3.378   2.771
    1BCK1    B1 1550   9.517   3.605   2.805
    1BCK1    B1 1551   9.359   3.777   2.875
    1BCK1    B1 1552   9.142   3.784   2.984
    1BCK1    B1 1553   8.947   3.917   3.036
    1BCK1    B1 1554   8.891   4.158   3.020
    1BCK1    B1 1555   8.682   4.266   3.087
    1BCK1    B1 1556   8.479   4.222   3.218
    1BCK1    B1 1557   8.293   4.366   3.300
    1BCK1    B1 1558   8.293   4.617   3.291
    1BCK1    B1 1559   8.478   4.761   3.206
    1BCK1    B1 1560   8.685   4.727   3.080
    1BCK1    B1 1561   8.892   4.838   3.016
    1BCK1    B1 1562   8.949   5.079   3.031
    1BCK1    B1 1563   9.145   5.211   2.982
    1BCK1    B1 1564   9.362   5.222   2.873
    1BCK1    B1 1565   9.518   5.396   2.803
    1BCK1    B1 1566   9.594   5.620   2.766
    1BCK1    B1 1567   8.521   8.550  11.801
    1BCK1    B1 1568   8.416   8.659  11.613
    1BCK1    B1 1569   8.317   8.768  11.420
    1BCK1    B1 1570   8.184   8.893  11.261
    1BCK1    B1 1571   8.012   8.986  11.116
    1BCK1    B1 1572   7.951   9.086  10.902
    1BCK1    B1 1573   8.006   9.244  10.723
    1BCK1    B1 1574   7.895   9.413  10.583
    1BCK1    B1 1575   7.669   9.459  10.501
    1BCK1    B1 1576   7.498   9.457  10.330
    1BCK1    B1 1577   7.416   9.410  10.104
    1BCK1    B1 1578   7.275   9.242   9.993
    1BCK1    B1 1579   7.096   9.084  10.048
    1BCK1    B1 1580   6.888   8.974   9.983
    1BCK1    B1 1581   6.761   8.864   9.808
    1BCK1    B1 1582   6.581   8.766   9.679
    1BCK1    B1 1583   6.379   8.659   9.597
    1BCK1    B1 1584   6.217   8.534   9.470
    1BCK1    B1 1585   9.183   2.341   9.326
    1BCK1    B1 1586   9.359   2.255   9.467
    1BCK1    B1 1587   9.538   2.198   9.621
    1BCK1    B1 1588   9.726   2.156   9.767
    1BCK1    B1 1589   9.918   2.118   9.908
    1BCK1    B1 1590  10.102   2.052  10.048
    1BCK1    B1 1591  10.284   1.991  10.192
    1BCK1    B1 1592  10.467   1.923  10.332
    1BCK1    B1 1593  10.624   1.811  10.475
    1BCK1    B1 1594  10.748   1.664  10.619
    1BCK1    B1 1595  10.875   1.504  10.744
    1BCK1    B1 1596  10.977   1.328  10.871
    1BCK1    B1 1597  11.034   1.125  10.987
    1BCK1    B1 1598  11.103   0.922  11.096
    1BCK1    B1 1599  11.170   0.717  11.203
    1BCK1    B1 1600  11.235   0.512  11.312
    1BCK1    B1 1601  11.311   0.308  11.418
    1BCK1    B1 1602  11.398   0.112  11.531
    1BCK1    B1 1603   8.040   6.258  11.938
    1BCK1    B1 1604   7.804   6.191  11.943
    1BCK1    B1 1605   7.568   6.114  11.964
    1BCK1    B1 1606   7.330   6.041  11.984
    1BCK1    B1 1607   7.089   5.970  11.998
    1BCK1    B1 1608   6.852   5.886   0.012
    1BCK1    B1 1609   6.619   5.787   0.031
    1BCK1    B1 1610   6.373   5.735   0.063
    1BCK1    B1 1611   6.128   5.716   0.124
    1BCK1    B1 1612   5.872   5.720   0.136
    1BCK1    B1 1613   5.624   5.728   0.088
    1BCK1    B1 1614   5.376   5.781   0.063
    1BCK1    B1 1615   5.145   5.884   0.037
    1BCK1    B1 1616   4.909   5.969   0.013
    1BCK1    B1 1617   4.668   6.042  11.993
    1BCK1    B1 1618   4.430   6.117  11.976
    1BCK1    B1 1619   4.195   6.197  11.961
    1BCK1    B1 1620   3.960   6.270  11.950
    1BCK1    B1 1621  11.272   5.769   2.994
    1BCK1    B1 1622  11.230   5.857   3.215
    1BCK1    B1 1623  11.164   5.899   3.446
    1BCK1    B1 1624  11.154   5.946   3.684
    1BCK1    B1 1625  11.150   6.018   3.916
    1BCK1    B1 1626  11.040   6.104   4.114
    1BCK1    B1 1627  10.919   6.122   4.325
    1BCK1    B1 1628  10.955   6.143   4.564
    1BCK1    B1 1629  10.987   6.188   4.804
    1BCK1    B1 1630  10.810   6.188   4.981
    1BCK1    B1 1631  10.571   6.141   4.948
    1BCK1    B1 1632  10.332   6.108   4.918
    1BCK1    B1 1633  10.125   6.075   5.041
    1BCK1    B1 1634   9.921   5.990   5.141
    1BCK1    B1 1635   9.686   5.928   5.146
    1BCK1    B1 1636   9.446   5.897   5.162
    1BCK1    B1 1637   9.215   5.843   5.215
    1BCK1    B1 1638   8.999   5.806   5.317
    1BCK1    B1 1639   9.025  11.269   0.028
    1BCK1    B1 1640   8.794  11.198   0.026
    1BCK1    B1 1641   8.551  11.201   0.036
    1BCK1    B1 1642   8.317  11.138   0.022
    1BCK1    B1 1643   8.109  11.031  11.957
    1BCK1    B1 1644   7.868  10.996  11.956
    1BCK1    B1 1645   7.645  11.047   0.040
    1BCK1    B1 1646   7.401  11.053   0.023
    1BCK1    B1 1647   7.203  10.970  11.907
    1BCK1    B1 1648   7.029  10.798  11.907
    1BCK1    B1 1649   6.945  10.599   0.022
    1BCK1    B1 1650   6.952  10.355   0.040
    1BCK1    B1 1651   7.004  10.133  11.955
    1BCK1    B1 1652   6.970   9.891  11.957
    1BCK1    B1 1653   6.862   9.683   0.022
    1BCK1    B1 1654   6.799   9.449   0.036
    1BCK1    B1 1655   6.800   9.207   0.025
    1BCK1    B1 1656   6.730   8.975   0.026
    1HEX     C0 1657   0.007   0.005  11.989
    1HB      S1 1658   0.387  11.978  11.980
    1HB      S2 1659  11.631   0.008  11.975
    1HB      S3 1660   0.008   0.377  11.998
    1HB      S4 1661   0.028  11.624  11.933
    1HB      S5 1662   0.010   0.009   0.334
    1HB      S6 1663   0.017   0.021  11.639
    1HEX     C0 1664  11.996   0.010   3.005
    1HB      S1 1665   0.371   0.005   3.014
    1HB      S2 1666  11.628   0.007   3.013
    1HB      S3 1667  11.991   0.378   3.000
    1HB      S4 1668  11.998  11.627   3.015
    1HB      S5 1669   0.001  11.994   3.367
    1HB      S6 1670   0.003   0.013   2.660
    1HEX     C0 1671  11.993   0.007   5.993
    1HB      S1 1672   0.364   0.004   6.002
    1HB      S2 1673  11.630   0.008   5.983
    1HB      S3 1674  11.992   0.373   5.991
    1HB      S4 1675  11.996  11.638   6.000
    1HB      S5 1676  11.987   0.023   6.373
    1HB      S6 1677   0.009   0.002   5.627
    1HEX     C0 1678   0.006   0.007   9.011
    1HB      S1 1679   0.375   0.010   9.013
    1HB      S2 1680  11.637   0.004   9.007
    1HB      S3 1681   0.011   0.375   9.018
    1HB      S4 1682   0.004  11.636   9.004
    1HB      S5 1683   0.020   0.013   9.364
    1HB      S6 1684   0.004   0.005   8.640
    1HEX     C0 1685   0.012   3.028   0.001
    1HB      S1 1686   0.380   3.033  11.995
    1HB      S2 1687  11.632   3.001   0.000
    1HB      S3 1688   0.012   3.382  11.979
    1HB      S4 1689   0.009   2.646   0.006
    1HB      S5 1690   0.009   3.024   0.363
    1HB      S6 1691   0.001   3.027  11.651
    1HEX     C0 1692   0.002   2.981   3.004
    1HB      S1 1693   0.345   2.993   3.022
    1HB      S2 1694  11.639   2.972   3.003
    1HB      S3 1695  11.980   3.365   3.001
    1HB      S4 1696   0.027   2.612   3.004
    1HB      S5 1697  11.989   2.976   3.378
    1HB      S6 1698  12.000   2.986   2.628
    1HEX     C0 1699   0.009   3.021   6.007
    1HB      S1 1700   0.330   3.034   6.010
    1HB      S2 1701  11.636   2.999   6.014
    1HB      S3 1702   0.001   3.404   6.007
    1HB      S4 1703   0.092   2.670   6.046
    1HB      S5 1704   0.001   3.020   6.387
    1HB      S6 1705   0.013   3.072   5.636
    1HEX     C0 1706  11.999   3.007   9.007
    1HB      S1 1707   0.396   3.010   9.015
    1HB      S2 1708  11.658   3.017   8.994
    1HB      S3 1709   0.010   3.382   9.007
    1HB      S4 1710  11.996   2.633   8.999
    1HB      S5 1711   0.004   3.029   9.350
    1HB      S6 1712   0.009   3.005   8.636
    1HEX     C0 1713   0.012   5.993  11.997
    1HB      S1 1714   0.395   6.010   0.007
    1HB      S2 1715  11.654   5.932   0.028
    1HB      S3 1716   0.009   6.373  11.991
    1HB      S4 1717   0.055   5.655  11.975
    1HB      S5 1718   0.013   5.991   0.363
    1HB      S6 1719   0.024   6.025  11.647
    1HEX     C0 1720  11.990   6.010   2.992
    1HB      S1 1721   0.352   6.001   2.985
    1HB      S2 1722  11.660   6.035   2.989
    1HB      S3 1723  11.955   6.401   3.030
    1HB      S4 1724  11.944   5.642   2.986
    1HB      S5 1725  11.972   6.051   3.377
    1HB      S6 1726   0.000   6.008   2.613
    1HEX     C0 1727  11.918   6.000   5.906
    1HB      S1 1728   0.447   6.000   5.839
    1HB      S2 1729  11.621   6.000   6.036
    1HB      S3 1730  11.861   6.393   5.834
    1HB      S4 1731  11.861   5.607   5.834
    1HB      S5 1732  11.815   6.000   6.477
    1HB      S6 1733   0.035   6.000   5.578
    1HEX     C0 1734   0.002   6.004   9.009
    1HB      S1 1735   0.402   6.017   9.005
    1HB      S2 1736  11.622   5.995   9.024
    1HB      S3 1737   0.006   6.373   9.025
    1HB      S4 1738  12.000   5.623   8.981
    1HB      S5 1739   0.015   5.995   9.348
    1HB      S6 1740   0.000   6.008   8.644
    1HEX     C0 1741   0.002   8.996   0.001
    1HB      S1 1742   0.370   8.994   0.002
    1HB      S2 1743  11.634   8.997   0.001
    1HB      S3 1744   0.001   9.365   0.001
    1HB      S4 1745   0.008   8.624   0.006
    1HB      S5 1746   0.002   8.995   0.369
    1HB      S6 1747   0.001   8.997  11.634
    1HEX     C0 1748  11.991   9.003   3.001
    1HB      S1 1749   0.323   8.987   3.000
    1HB      S2 1750  11.653   9.020   3.009
    1HB      S3 1751  11.970   9.393   3.008
    1HB      S4 1752  11.977   8.619   2.991
    1HB      S5 1753  11.983   9.011   3.381
    1HB      S6 1754  11.985   9.003   2.616
    1HEX     C0 1755  11.993   8.992   6.005
    1HB      S1 1756   0.367   8.996   5.995
    1HB      S2 1757  11.618   8.989   6.006
    1HB      S3 1758  11.996   9.370   5.993
    1HB      S4 1759  11.983   8.598   5.991
    1HB      S5 1760  11.978   8.992   6.347
    1HB      S6 1761  11.993   8.994   5.639
    1HEX     C0 1762  11.984   8.985   8.970
    1HB      S1 1763   0.369   9.000   9.011
    1HB      S2 1764  11.625   8.960   8.992
    1HB      S3 1765  11.912   9.313   8.948
    1HB      S4 1766   0.026   8.620   9.015
    1HB      S5 1767  11.995   8.997   9.361
    1HB      S6 1768   0.055   9.032   8.615
    1HEX     C0 1769   3.001   0.003  11.993
    1HB      S1 1770   3.375  11.996  11.987
    1HB      S2 1771   2.616   0.042   0.003
    1HB      S3 1772   2.997   0.371  11.993
    1HB      S4 1773   3.001  11.665  11.977
    1HB      S5 1774   2.999   0.017   0.370
    1HB      S6 1775   3.010   0.015  11.616
    1HEX     C0 1776   3.008  11.989   3.014
    1HB      S1 1777   3.374  11.980   3.019
    1HB      S2 1778   2.630  11.995   2.994
    1HB      S3 1779   3.005   0.363   3.010
    1HB      S4 1780   3.017  11.613   3.009
    1HB      S5 1781   2.981  11.987   3.347
    1HB      S6 1782   3.007  11.996   2.643
    1HEX     C0 1783   3.004  11.999   5.997
    1HB      S1 1784   3.377  11.994   5.989
    1HB      S2 1785   2.635  11.999   5.998
    1HB      S3 1786   3.003   0.366   5.999
    1HB      S4 1787   3.004  11.632   5.998
    1HB      S5 1788   3.003  11.999   6.365
    1HB      S6 1789   3.008  11.998   5.629
    1HEX     C0 1790   3.013  11.970   9.011
    1HB      S1 1791   3.371  11.971   9.030
    1HB      S2 1792   2.633  -0.000   9.002
    1HB      S3 1793   3.000   0.358   9.006
    1HB      S4 1794   2.978  11.623   8.966
    1HB      S5 1795   2.999  11.982   9.367
    1HB      S6 1796   3.005   0.002   8.634
    1HEX     C0 1797   3.000   3.005  12.000
    1HB      S1 1798   3.366   3.003  12.000
    1HB      S2 1799   2.633   3.003  12.000
    1HB      S3 1800   2.994   3.399  11.983
    1HB      S4 1801   3.000   2.633  12.000
    1HB      S5 1802   3.000   3.004   0.366
    1HB      S6 1803   3.000   3.003  11.632
    1HEX     C0 1804   2.998   2.999   3.002
    1HB      S1 1805   3.366   3.003   2.999
    1HB      S2 1806   2.655   2.997   3.022
    1HB      S3 1807   3.023   3.381   2.996
    1HB      S4 1808   2.984   2.625   3.009
    1HB      S5 1809   3.010   2.998   3.376
    1HB      S6 1810   3.007   3.001   2.631
    1HEX     C0 1811   2.998   3.093   6.077
    1HB      S1 1812   3.373   3.171   6.111
    1HB      S2 1813   2.739   3.100   6.102
    1HB      S3 1814   3.011   3.480   5.949
    1HB      S4 1815   2.967   2.555   6.228
    1HB      S5 1816   3.070   2.961   6.443
    1HB      S6 1817   2.999   3.154   5.579
    1HEX     C0 1818   2.990   3.091   9.109
    1HB      S1 1819   3.336   3.077   9.176
    1HB      S2 1820   2.627   3.048   9.153
    1HB      S3 1821   2.975   3.369   8.967
    1HB      S4 1822   3.001   2.597   9.154
    1HB      S5 1823   2.962   2.997   9.481
    1HB      S6 1824   3.000   3.215   8.499
    1HEX     C0 1825   2.929   5.990  11.873
    1HB      S1 1826   3.439   6.018  11.868
    1HB      S2 1827   2.691   5.988   0.038
    1HB      S3 1828   2.947   6.404  11.816
    1HB      S4 1829   2.953   5.610  11.798
    1HB      S5 1830   2.795   6.004   0.524
    1HB      S6 1831   3.051   6.006  11.543
    1HEX     C0 1832   3.000   6.006   3.004
    1HB      S1 1833   3.346   6.009   3.025
    1HB      S2 1834   2.630   6.007   3.002
    1HB      S3 1835   3.012   6.376   3.010
    1HB      S4 1836   2.986   5.631   3.002
    1HB      S5 1837   2.979   6.000   3.382
    1HB      S6 1838   2.978   6.010   2.627
    1HEX     C0 1839   3.002   6.008   6.014
    1HB      S1 1840   3.392   6.007   5.979
    1HB      S2 1841   2.615   6.018   6.041
    1HB      S3 1842   2.984   6.373   6.053
    1HB      S4 1843   3.003   5.627   5.983
    1HB      S5 1844   3.062   5.992   6.345
    1HB      S6 1845   3.002   6.008   5.646
    1HEX     C0 1846   2.986   6.113   9.097
    1HB      S1 1847   3.372   6.143   9.086
    1HB      S2 1848   2.622   6.180   9.112
    1HB      S3 1849   3.046   6.505   9.021
    1HB      S4 1850   3.013   5.496   9.168
    1HB      S5 1851   3.013   5.953   9.357
    1HB      S6 1852   2.945   6.207   8.668
    1HEX     C0 1853   3.010   8.996  11.989
    1HB      S1 1854   3.381   9.006  11.972
    1HB      S2 1855   2.630   8.974  11.999
    1HB      S3 1856   3.013   9.334  11.980
    1HB      S4 1857   3.007   8.601  11.980
    1HB      S5 1858   3.028   8.931   0.362
    1HB      S6 1859   2.993   8.986  11.622
    1HEX     C0 1860   2.996   8.996   2.996
    1HB      S1 1861   3.360   8.992   2.998
    1HB      S2 1862   2.664   8.990   2.990
    1HB      S3 1863   3.019   9.379   2.995
    1HB      S4 1864   2.987   8.620   3.001
    1HB      S5 1865   3.004   8.998   3.372
    1HB      S6 1866   3.009   9.004   2.615
    1HEX     C0 1867   3.007   8.990   6.007
    1HB      S1 1868   3.373   8.989   6.006
    1HB      S2 1869   2.638   8.993   6.004
    1HB      S3 1870   3.004   9.361   6.005
    1HB      S4 1871   3.015   8.618   6.017
    1HB      S5 1872   3.011   8.983   6.374
    1HB      S6 1873   3.004   8.993   5.638
    1HEX     C0 1874   3.001   8.998   8.997
    1HB      S1 1875   3.373   8.969   8.990
    1HB      S2 1876   2.626   9.008   8.999
    1HB      S3 1877   3.020   9.358   8.998
    1HB      S4 1878   2.995   8.627   8.990
    1HB      S5 1879   3.002   9.002   9.361
    1HB      S6 1880   2.996   8.985   8.630
    1HEX     C0 1881   6.006   0.002   0.010
    1HB      S1 1882   6.371   0.002   0.013
    1HB      S2 1883   5.638  12.000   0.003
    1HB      S3 1884   6.006   0.368   0.017
    1HB      S4 1885   6.009  11.627  11.994
    1HB      S5 1886   6.002  11.990   0.374
    1HB      S6 1887   6.006  11.998  11.638
    1HEX     C0 1888   6.024  11.992   3.013
    1HB      S1 1889   6.392   0.006   3.014
    1HB      S2 1890   5.644  11.986   3.008
    1HB      S3 1891   6.025   0.336   3.020
    1HB      S4 1892   6.041  11.617   3.030
    1HB      S5 1893   6.034  11.993   3.383
    1HB      S6 1894   6.012  11.984   2.639
    1HEX     C0 1895   6.001   0.002   5.996
    1HB      S1 1896   6.369   0.002   5.995
    1HB      S2 1897   5.634   0.001   5.997
    1HB      S3 1898   6.002   0.370   5.994
    1HB      S4 1899   6.001  11.634   5.997
    1HB      S5 1900   6.001   0.001   6.365
    1HB      S6 1901   6.006   0.009   5.624
    1HEX     C0 1902   5.998  11.990   9.000
    1HB      S1 1903   6.345  11.984   9.021
    1HB      S2 1904   5.628  11.987   9.000
    1HB      S3 1905   6.001   0.362   9.000
    1HB      S4 1906   5.973  11.629   8.995
    1HB      S5 1907   5.986  11.992   9.372
    1HB      S6 1908   6.003  11.995   8.634
    1HEX     C0 1909   5.999   3.001  11.993
    1HB      S1 1910   6.372   3.000   0.005
    1HB      S2 1911   5.630   3.001  11.991
    1HB      S3 1912   5.999   3.368  11.992
    1HB      S4 1913   5.999   2.628   0.007
    1HB      S5 1914   5.997   3.002   0.364
    1HB      S6 1915   6.009   2.980  11.648
    1HEX     C0 1916   6.011   3.005   3.019
    1HB      S1 1917   6.343   3.012   3.034
    1HB      S2 1918   5.636   3.018   3.012
    1HB      S3 1919   6.010   3.383   3.027
    1HB      S4 1920   6.004   2.661   3.026
    1HB      S5 1921   5.995   3.027   3.390
    1HB      S6 1922   6.000   3.012   2.638
    1HEX     C0 1923   6.012   2.988   6.013
    1HB      S1 1924   6.378   3.006   5.992
    1HB      S2 1925   5.610   3.012   6.015
    1HB      S3 1926   6.001   3.362   6.005
    1HB      S4 1927   5.996   2.629   5.995
    1HB      S5 1928   6.039   3.010   6.391
    1HB      S6 1929   5.999   2.999   5.638
    1HEX     C0 1930   5.979   3.001   8.996
    1HB      S1 1931   6.354   3.001   8.996
    1HB      S2 1932   5.593   3.004   9.032
    1HB      S3 1933   5.948   3.359   8.971
    1HB      S4 1934   5.952   2.632   9.008
    1HB      S5 1935   5.993   3.002   9.366
    1HB      S6 1936   5.980   2.998   8.633
    1HEX     C0 1937   6.000   6.120  11.930
    1HB      S1 1938   6.399   6.203  11.907
    1HB      S2 1939   5.604   6.187  11.972
    1HB      S3 1940   6.001   6.477   0.031
    1HB      S4 1941   5.978   5.395  11.828
    1HB      S5 1942   6.031   6.126   0.352
    1HB      S6 1943   6.003   5.953  11.688
    1HEX     C0 1944   5.990   6.007   3.000
    1HB      S1 1945   6.357   6.008   2.998
    1HB      S2 1946   5.646   6.008   3.017
    1HB      S3 1947   5.979   6.379   3.008
    1HB      S4 1948   6.007   5.631   3.000
    1HB      S5 1949   5.999   6.007   3.374
    1HB      S6 1950   5.964   6.016   2.622
    1HEX     C0 1951   6.008   5.989   6.003
    1HB      S1 1952   6.394   5.953   5.996
    1HB      S2 1953   5.638   5.993   6.005
    1HB      S3 1954   6.006   6.357   6.000
    1HB      S4 1955   6.020   5.611   6.003
    1HB      S5 1956   5.995   5.996   6.373
    1HB      S6 1957   6.029   5.942   5.637
    1HEX     C0 1958   6.001   6.009   9.004
    1HB      S1 1959   6.377   6.015   9.024
    1HB      S2 1960   5.609   6.019   9.003
    1HB      S3 1961   6.001   6.374   8.998
    1HB      S4 1962   6.001   5.638   9.011
    1HB      S5 1963   6.015   6.024   9.376
    1HB      S6 1964   6.026   5.997   8.653
    1HEX     C0 1965   5.995   8.998  11.995
    1HB      S1 1966   6.334   8.986  11.991
    1HB      S2 1967   5.619   8.997  11.976
    1HB      S3 1968   5.998   9.368  11.996
    1HB      S4 1969   5.967   8.620  11.991
    1HB      S5 1970   5.991   8.998   0.365
    1HB      S6 1971   5.981   9.001  11.622
    1HEX     C0 1972   5.984   9.003   3.004
    1HB      S1 1973   6.360   9.014   3.001
    1HB      S2 1974   5.618   9.007   3.012
    1HB      S3 1975   5.972   9.377   3.021
    1HB      S4 1976   6.009   8.656   3.011
    1HB      S5 1977   5.991   9.013   3.375
    1HB      S6 1978   5.977   8.987   2.625
    1HEX     C0 1979   6.010   8.996   5.995
    1HB      S1 1980   6.375   9.021   5.987
    1HB      S2 1981   5.641   8.989   5.995
    1HB      S3 1982   6.007   9.365   5.997
    1HB      S4 1983   6.031   8.648   5.987
    1HB      S5 1984   6.004   8.992   6.365
    1HB      S6 1985   6.024   9.010   5.623
    1HEX     C0 1986   6.003   9.002   9.014
    1HB      S1 1987   6.377   8.984   9.024
    1HB      S2 1988   5.633   9.011   9.009
    1HB      S3 1989   5.981   9.365   9.006
    1HB      S4 1990   6.009   8.632   9.014
    1HB      S5 1991   6.013   8.991   9.380
    1HB      S6 1992   6.003   9.000   8.644
    1HEX     C0 1993   9.004  11.995   0.004
    1HB      S1 1994   9.385   0.003   0.023
    1HB      S2 1995   8.632  11.994   0.003
    1HB      S3 1996   9.002   0.361   0.003
    1HB      S4 1997   9.014  11.660   0.000
    1HB      S5 1998   9.012  11.998   0.377
    1HB      S6 1999   9.003   0.004  11.631
    1HEX     C0 2000   8.980   0.003   3.009
    1HB      S1 2001   9.354  11.997   3.003
    1HB      S2 2002   8.631  11.974   3.024
    1HB      S3 2003   8.983   0.344   3.026
    1HB      S4 2004   8.981  11.630   3.017
    1HB      S5 2005   8.988   0.005   3.382
    1HB      S6 2006   8.940   0.021   2.645
    1HEX     C0 2007   9.003   0.034   6.030
    1HB      S1 2008   9.367   0.011   6.105
    1HB      S2 2009   8.621   0.020   5.966
    1HB      S3 2010   8.996   0.372   5.971
    1HB      S4 2011   8.996  11.627   5.975
    1HB      S5 2012   8.918  11.938   6.342
    1HB      S6 2013   9.060   0.017   5.648
    1HEX     C0 2014   9.008   0.020   8.984
    1HB      S1 2015   9.376   0.089   8.965
    1HB      S2 2016   8.627   0.039   8.977
    1HB      S3 2017   8.992   0.354   8.988
    1HB      S4 2018   9.004  11.631   9.019
    1HB      S5 2019   9.005   0.010   9.357
    1HB      S6 2020   9.003  11.973   8.652
    1HEX     C0 2021   9.008   3.005  11.999
    1HB      S1 2022   9.350   2.995  11.977
    1HB      S2 2023   8.639   3.006   0.000
    1HB      S3 2024   9.014   3.377  11.995
    1HB      S4 2025   8.995   2.630  11.999
    1HB      S5 2026   9.009   3.004   0.366
    1HB      S6 2027   8.994   3.006  11.625
    1HEX     C0 2028   8.983   2.995   3.033
    1HB      S1 2029   9.349   3.039   3.094
    1HB      S2 2030   8.632   2.982   2.973
    1HB      S3 2031   9.009   3.335   2.996
    1HB      S4 2032   9.019   2.661   3.045
    1HB      S5 2033   9.024   3.025   3.439
    1HB      S6 2034   8.978   2.953   2.657
    1HEX     C0 2035   9.006   3.005   6.012
    1HB      S1 2036   9.370   3.005   6.017
    1HB      S2 2037   8.635   3.003   6.002
    1HB      S3 2038   9.006   3.370   6.015
    1HB      S4 2039   9.003   2.636   6.005
    1HB      S5 2040   8.991   3.000   6.376
    1HB      S6 2041   9.004   3.004   5.639
    1HEX     C0 2042   9.002   2.977   8.984
    1HB      S1 2043   9.394   2.984   8.979
    1HB      S2 2044   8.650   2.911   8.963
    1HB      S3 2045   8.969   3.336   8.939
    1HB      S4 2046   9.038   2.641   8.991
    1HB      S5 2047   9.016   2.962   9.363
    1HB      S6 2048   9.002   2.957   8.616
    1HEX     C0 2049   8.985   6.013  11.993
    1HB      S1 2050   9.358   6.008  11.996
    1HB      S2 2051   8.594   6.022  11.988
    1HB      S3 2052   8.980   6.378  11.994
    1HB      S4 2053   8.991   5.646  11.996
    1HB      S5 2054   8.998   6.022   0.369
    1HB      S6 2055   8.971   6.028  11.620
    1HEX     C0 2056   9.008   5.997   2.997
    1HB      S1 2057   9.385   6.007   2.998
    1HB      S2 2058   8.631   6.006   2.999
    1HB      S3 2059   9.005   6.362   2.999
    1HB      S4 2060   9.032   5.669   2.983
    1HB      S5 2061   9.004   6.006   3.372
    1HB      S6 2062   9.007   6.009   2.621
    1HEX     C0 2063   9.003   6.009   5.996
    1HB      S1 2064   9.369   6.017   5.996
    1HB      S2 2065   8.616   5.992   5.986
    1HB      S3 2066   8.992   6.381   6.007
    1HB      S4 2067   9.002   5.639   5.994
    1HB      S5 2068   9.006   6.015   6.363
    1HB      S6 2069   8.985   6.023   5.651
    1HEX     C0 2070   8.995   5.982   9.001
    1HB      S1 2071   9.363   5.980   8.999
    1HB      S2 2072   8.623   5.996   9.006
    1HB      S3 2073   8.999   6.356   9.000
    1HB      S4 2074   8.977   5.620   9.004
    1HB      S5 2075   8.987   5.988   9.368
    1HB      S6 2076   9.000   5.981   8.635
    1HEX     C0 2077   8.988   8.993  11.993
    1HB      S1 2078   9.360   8.996  11.995
    1HB      S2 2079   8.619   8.990  11.988
    1HB      S3 2080   8.994   9.362  11.996
    1HB      S4 2081   8.990   8.628  11.995
    1HB      S5 2082   8.993   8.996   0.362
    1HB      S6 2083   8.981   8.989  11.627
    1HEX     C0 2084   9.015   8.992   3.010
    1HB      S1 2085   9.349   9.005   3.016
    1HB      S2 2086   8.643   9.008   3.008
    1HB      S3 2087   9.014   9.371   3.015
    1HB      S4 2088   8.993   8.628   3.031
    1HB      S5 2089   9.039   8.992   3.395
    1HB      S6 2090   9.002   8.984   2.636
    1HEX     C0 2091   8.990   8.995   5.988
    1HB      S1 2092   9.372   9.013   5.999
    1HB      S2 2093   8.627   8.953   6.059
    1HB      S3 2094   8.936   9.345   5.919
    1HB      S4 2095   9.030   8.627   6.004
    1HB      S5 2096   9.033   8.997   6.373
    1HB      S6 2097   9.041   8.960   5.620
    1HEX     C0 2098   9.011   8.993   8.983
    1HB      S1 2099   9.370   8.993   8.947
    1HB      S2 2100   8.630   9.004   9.010
    1HB      S3 2101   9.006   9.363   8.996
    1HB      S4 2102   9.003   8.631   8.985
    1HB      S5 2103   9.000   8.998   9.360
    1HB      S6 2104   8.994   9.017   8.620
  12.00000  12.00000  12.00000
