My System
 2104
    1BCK1    B1    1   0.254   2.743   2.340
    1BCK1    B1    2   0.423   2.581   2.279
    1BCK1    B1    3   0.590   2.416   2.215
    1BCK1    B1    4   0.756   2.247   2.158
    1BCK1    B1    5   0.924   2.077   2.109
    1BCK1    B1    6   1.093   1.908   2.058
    1BCK1    B1    7   1.259   1.741   1.992
    1BCK1    B1    8   1.419   1.581   1.900
    1BCK1    B1    9   1.570   1.430   1.780
    1BCK1    B1   10   1.708   1.292   1.632
    1BCK1    B1   11   1.831   1.169   1.458
    1BCK1    B1   12   1.937   1.062   1.264
    1BCK1    B1   13   2.034   0.961   1.061
    1BCK1    B1   14   2.127   0.855   0.858
    1BCK1    B1   15   2.218   0.729   0.665
    1BCK1    B1   16   2.306   0.572   0.494
    1BCK1    B1   17   2.386   0.379   0.358
    1BCK1    B1   18   2.458   0.159   0.263
    1BCK1    B1   19   9.343   6.500   0.273
    1BCK1    B1   20   9.454   6.588   0.482
    1BCK1    B1   21   9.597   6.696   0.659
    1BCK1    B1   22   9.762   6.817   0.805
    1BCK1    B1   23   9.934   6.946   0.933
    1BCK1    B1   24  10.099   7.086   1.059
    1BCK1    B1   25  10.234   7.240   1.201
    1BCK1    B1   26  10.308   7.411   1.368
    1BCK1    B1   27  10.291   7.584   1.549
    1BCK1    B1   28  10.183   7.738   1.718
    1BCK1    B1   29  10.011   7.866   1.858
    1BCK1    B1   30   9.799   7.969   1.968
    1BCK1    B1   31   9.563   8.053   2.052
    1BCK1    B1   32   9.310   8.123   2.117
    1BCK1    B1   33   9.045   8.180   2.168
    1BCK1    B1   34   8.769   8.228   2.207
    1BCK1    B1   35   8.486   8.268   2.238
    1BCK1    B1   36   8.194   8.302   2.263
    1BCK1    B1   37   0.420   3.411  20.213
    1BCK1    B1   38   0.447   3.577  20.391
    1BCK1    B1   39   0.371   3.764  20.531
    1BCK1    B1   40   0.220   3.913   0.029
    1BCK1    B1   41   0.060   4.088   0.089
    1BCK1    B1   42  23.298   4.230   0.012
    1BCK1    B1   43  23.088   4.234  20.511
    1BCK1    B1   44  22.844   4.219  20.487
    1BCK1    B1   45  22.652   4.378  20.498
    1BCK1    B1   46  22.660   4.628  20.500
    1BCK1    B1   47  22.858   4.778  20.491
    1BCK1    B1   48  23.102   4.766  20.513
    1BCK1    B1   49  23.323   4.794  20.615
    1BCK1    B1   50   0.082   4.939   0.069
    1BCK1    B1   51   0.238   5.129   0.065
    1BCK1    B1   52   0.405   5.297   0.000
    1BCK1    B1   53   0.587   5.423  20.511
    1BCK1    B1   54   0.766   5.497  20.356
    1BCK1    B1   55  23.359   4.000   5.893
    1BCK1    B1   56  23.370   4.243   5.905
    1BCK1    B1   57  23.389   4.485   5.936
    1BCK1    B1   58  23.419   4.723   5.983
    1BCK1    B1   59   0.034   4.959   6.034
    1BCK1    B1   60   0.079   5.193   6.089
    1BCK1    B1   61   0.130   5.421   6.161
    1BCK1    B1   62   0.174   5.647   6.240
    1BCK1    B1   63   0.236   5.874   6.308
    1BCK1    B1   64   0.252   6.117   6.286
    1BCK1    B1   65   0.202   6.344   6.212
    1BCK1    B1   66   0.157   6.576   6.154
    1BCK1    B1   67   0.086   6.801   6.092
    1BCK1    B1   68   0.031   7.032   6.036
    1BCK1    B1   69  23.411   7.267   5.985
    1BCK1    B1   70  23.374   7.504   5.939
    1BCK1    B1   71  23.347   7.745   5.906
    1BCK1    B1   72  23.331   7.987   5.888
    1BCK1    B1   73   2.672   2.551   3.303
    1BCK1    B1   74   2.469   2.536   3.172
    1BCK1    B1   75   2.261   2.638   3.092
    1BCK1    B1   76   2.086   2.807   3.099
    1BCK1    B1   77   1.891   2.952   3.084
    1BCK1    B1   78   1.760   3.122   2.966
    1BCK1    B1   79   1.763   3.308   2.809
    1BCK1    B1   80   1.779   3.536   2.720
    1BCK1    B1   81   1.622   3.722   2.668
    1BCK1    B1   82   1.373   3.720   2.670
    1BCK1    B1   83   1.219   3.533   2.726
    1BCK1    B1   84   1.233   3.305   2.816
    1BCK1    B1   85   1.224   3.113   2.965
    1BCK1    B1   86   1.090   2.939   3.073
    1BCK1    B1   87   0.899   2.788   3.090
    1BCK1    B1   88   0.724   2.620   3.098
    1BCK1    B1   89   0.517   2.519   3.181
    1BCK1    B1   90   0.312   2.522   3.311
    1BCK1    B1   91   5.569   9.789   3.635
    1BCK1    B1   92   5.367   9.854   3.756
    1BCK1    B1   93   5.176   9.947   3.882
    1BCK1    B1   94   4.999  10.064   4.014
    1BCK1    B1   95   4.837  10.203   4.146
    1BCK1    B1   96   4.688  10.363   4.274
    1BCK1    B1   97   4.554  10.542   4.397
    1BCK1    B1   98   4.433  10.738   4.513
    1BCK1    B1   99   4.326  10.950   4.621
    1BCK1    B1  100   4.230  11.175   4.720
    1BCK1    B1  101   4.147  11.411   4.809
    1BCK1    B1  102   4.073  11.657   4.890
    1BCK1    B1  103   4.008  11.911   4.962
    1BCK1    B1  104   3.951  12.174   5.026
    1BCK1    B1  105   3.901  12.442   5.083
    1BCK1    B1  106   3.856  12.716   5.132
    1BCK1    B1  107   3.817  12.995   5.175
    1BCK1    B1  108   3.783  13.279   5.213
    1BCK1    B1  109   1.119   3.227   6.233
    1BCK1    B1  110   1.327   3.220   6.104
    1BCK1    B1  111   1.522   3.179   5.962
    1BCK1    B1  112   1.734   3.135   5.845
    1BCK1    B1  113   1.968   3.071   5.814
    1BCK1    B1  114   2.197   2.986   5.841
    1BCK1    B1  115   2.418   2.887   5.809
    1BCK1    B1  116   2.641   2.788   5.776
    1BCK1    B1  117   2.872   2.718   5.738
    1BCK1    B1  118   3.117   2.731   5.736
    1BCK1    B1  119   3.350   2.742   5.807
    1BCK1    B1  120   3.585   2.778   5.865
    1BCK1    B1  121   3.804   2.869   5.924
    1BCK1    B1  122   4.032   2.949   5.969
    1BCK1    B1  123   4.265   3.012   6.006
    1BCK1    B1  124   4.504   3.063   6.036
    1BCK1    B1  125   4.745   3.095   6.057
    1BCK1    B1  126   4.988   3.108   6.067
    1BCK1    B1  127   0.619   8.461   2.980
    1BCK1    B1  128   0.761   8.523   3.166
    1BCK1    B1  129   0.981   8.599   3.238
    1BCK1    B1  130   1.208   8.686   3.256
    1BCK1    B1  131   1.403   8.834   3.236
    1BCK1    B1  132   1.497   9.059   3.199
    1BCK1    B1  133   1.447   9.294   3.140
    1BCK1    B1  134   1.311   9.465   3.024
    1BCK1    B1  135   1.338   9.652   2.862
    1BCK1    B1  136   1.558   9.753   2.794
    1BCK1    B1  137   1.784   9.665   2.853
    1BCK1    B1  138   1.881   9.463   2.951
    1BCK1    B1  139   1.958   9.245   3.024
    1BCK1    B1  140   2.087   9.044   3.068
    1BCK1    B1  141   2.137   8.806   3.079
    1BCK1    B1  142   2.253   8.606   3.157
    1BCK1    B1  143   2.460   8.482   3.190
    1BCK1    B1  144   2.685   8.421   3.127
    1BCK1    B1  145  22.999   8.598   8.628
    1BCK1    B1  146  22.947   8.653   8.397
    1BCK1    B1  147  22.849   8.797   8.225
    1BCK1    B1  148  22.685   8.962   8.151
    1BCK1    B1  149  22.462   9.055   8.112
    1BCK1    B1  150  22.243   9.125   8.032
    1BCK1    B1  151  22.052   9.210   7.903
    1BCK1    B1  152  21.933   9.257   7.692
    1BCK1    B1  153  21.951   9.246   7.445
    1BCK1    B1  154  22.095   9.208   7.244
    1BCK1    B1  155  22.301   9.176   7.098
    1BCK1    B1  156  22.533   9.152   6.986
    1BCK1    B1  157  22.780   9.137   6.895
    1BCK1    B1  158  23.038   9.132   6.817
    1BCK1    B1  159  23.307   9.129   6.756
    1BCK1    B1  160   0.162   9.119   6.718
    1BCK1    B1  161   0.448   9.115   6.689
    1BCK1    B1  162   0.742   9.114   6.665
    1BCK1    B1  163   3.413   3.579   2.848
    1BCK1    B1  164   3.543   3.680   2.670
    1BCK1    B1  165   3.668   3.765   2.480
    1BCK1    B1  166   3.788   3.834   2.279
    1BCK1    B1  167   3.909   3.897   2.076
    1BCK1    B1  168   4.031   3.965   1.876
    1BCK1    B1  169   4.151   4.046   1.679
    1BCK1    B1  170   4.278   4.144   1.495
    1BCK1    B1  171   4.417   4.264   1.333
    1BCK1    B1  172   4.563   4.409   1.201
    1BCK1    B1  173   4.707   4.577   1.095
    1BCK1    B1  174   4.847   4.760   1.009
    1BCK1    B1  175   4.985   4.948   0.934
    1BCK1    B1  176   5.120   5.140   0.857
    1BCK1    B1  177   5.246   5.331   0.765
    1BCK1    B1  178   5.357   5.516   0.646
    1BCK1    B1  179   5.455   5.688   0.497
    1BCK1    B1  180   5.548   5.847   0.334
    1BCK1    B1  181   3.341   5.604   8.440
    1BCK1    B1  182   3.389   5.385   8.532
    1BCK1    B1  183   3.507   5.255   8.703
    1BCK1    B1  184   3.676   5.225   8.877
    1BCK1    B1  185   3.868   5.143   9.000
    1BCK1    B1  186   4.063   5.027   9.088
    1BCK1    B1  187   4.260   4.954   9.211
    1BCK1    B1  188   4.429   4.900   9.377
    1BCK1    B1  189   4.602   4.780   9.500
    1BCK1    B1  190   4.777   4.609   9.501
    1BCK1    B1  191   4.900   4.436   9.380
    1BCK1    B1  192   4.948   4.262   9.216
    1BCK1    B1  193   4.989   4.057   9.092
    1BCK1    B1  194   5.060   3.850   8.987
    1BCK1    B1  195   5.158   3.659   8.871
    1BCK1    B1  196   5.312   3.471   8.834
    1BCK1    B1  197   5.481   3.325   8.941
    1BCK1    B1  198   5.595   3.255   9.148
    1BCK1    B1  199   6.408   6.295   9.515
    1BCK1    B1  200   6.585   6.209   9.659
    1BCK1    B1  201   6.761   6.123   9.810
    1BCK1    B1  202   6.934   6.039   9.970
    1BCK1    B1  203   7.101   5.961  10.142
    1BCK1    B1  204   7.257   5.888  10.329
    1BCK1    B1  205   7.392   5.811  10.531
    1BCK1    B1  206   7.529   5.765  10.746
    1BCK1    B1  207   7.658   5.786  10.972
    1BCK1    B1  208   7.759   5.834  11.211
    1BCK1    B1  209   7.852   5.871  11.458
    1BCK1    B1  210   7.937   5.901  11.714
    1BCK1    B1  211   8.011   5.926  11.975
    1BCK1    B1  212   8.076   5.947  12.243
    1BCK1    B1  213   8.133   5.964  12.516
    1BCK1    B1  214   8.181   5.978  12.794
    1BCK1    B1  215   8.223   5.988  13.077
    1BCK1    B1  216   8.259   5.995  13.364
    1BCK1    B1  217   5.588   6.181   6.626
    1BCK1    B1  218   5.456   6.365   6.713
    1BCK1    B1  219   5.326   6.560   6.786
    1BCK1    B1  220   5.196   6.759   6.848
    1BCK1    B1  221   5.066   6.958   6.912
    1BCK1    B1  222   4.932   7.152   6.985
    1BCK1    B1  223   4.793   7.336   7.075
    1BCK1    B1  224   4.648   7.505   7.186
    1BCK1    B1  225   4.499   7.654   7.319
    1BCK1    B1  226   4.349   7.783   7.472
    1BCK1    B1  227   4.200   7.898   7.640
    1BCK1    B1  228   4.059   8.007   7.819
    1BCK1    B1  229   3.927   8.123   8.003
    1BCK1    B1  230   3.810   8.254   8.188
    1BCK1    B1  231   3.706   8.406   8.368
    1BCK1    B1  232   3.619   8.581   8.539
    1BCK1    B1  233   3.549   8.778   8.697
    1BCK1    B1  234   3.495   8.992   8.842
    1BCK1    B1  235   0.735  19.786  19.270
    1BCK1    B1  236   0.830  19.666  19.462
    1BCK1    B1  237   1.005  19.488  19.474
    1BCK1    B1  238   1.147  19.333  19.337
    1BCK1    B1  239   1.270  19.174  19.186
    1BCK1    B1  240   1.385  19.004  19.027
    1BCK1    B1  241   1.488  18.832  18.863
    1BCK1    B1  242   1.583  18.652  18.687
    1BCK1    B1  243   1.668  18.474  18.505
    1BCK1    B1  244   1.746  18.289  18.312
    1BCK1    B1  245   1.816  18.105  18.116
    1BCK1    B1  246   1.880  17.915  17.909
    1BCK1    B1  247   1.937  17.726  17.700
    1BCK1    B1  248   1.989  17.532  17.481
    1BCK1    B1  249   2.035  17.339  17.260
    1BCK1    B1  250   2.077  17.142  17.030
    1BCK1    B1  251   2.114  16.946  16.797
    1BCK1    B1  252   2.148  16.747  16.557
    1BCK1    B1  253   6.314   2.599   6.344
    1BCK1    B1  254   6.537   2.566   6.261
    1BCK1    B1  255   6.756   2.471   6.211
    1BCK1    B1  256   6.890   2.289   6.119
    1BCK1    B1  257   6.935   2.075   6.013
    1BCK1    B1  258   6.995   1.861   5.913
    1BCK1    B1  259   7.071   1.697   5.751
    1BCK1    B1  260   7.157   1.601   5.544
    1BCK1    B1  261   7.317   1.480   5.405
    1BCK1    B1  262   7.492   1.308   5.408
    1BCK1    B1  263   7.599   1.127   5.532
    1BCK1    B1  264   7.693   1.026   5.733
    1BCK1    B1  265   7.843   1.036   5.926
    1BCK1    B1  266   8.016   1.156   6.053
    1BCK1    B1  267   8.242   1.100   6.142
    1BCK1    B1  268   8.335   0.869   6.142
    1BCK1    B1  269   8.214   0.651   6.132
    1BCK1    B1  270   7.993   0.555   6.167
    1BCK1    B1  271   9.419   3.094   6.514
    1BCK1    B1  272   9.322   3.291   6.613
    1BCK1    B1  273   9.206   3.477   6.718
    1BCK1    B1  274   9.122   3.684   6.813
    1BCK1    B1  275   9.042   3.897   6.898
    1BCK1    B1  276   8.924   4.090   6.987
    1BCK1    B1  277   8.766   4.263   7.050
    1BCK1    B1  278   8.619   4.454   7.076
    1BCK1    B1  279   8.536   4.669   7.159
    1BCK1    B1  280   8.535   4.841   7.332
    1BCK1    B1  281   8.616   4.924   7.547
    1BCK1    B1  282   8.764   4.950   7.739
    1BCK1    B1  283   8.923   5.013   7.911
    1BCK1    B1  284   9.043   5.102   8.102
    1BCK1    B1  285   9.123   5.187   8.315
    1BCK1    B1  286   9.202   5.283   8.524
    1BCK1    B1  287   9.308   5.391   8.714
    1BCK1    B1  288   9.401   5.485   8.915
    1BCK1    B1  289   6.543   2.951   6.629
    1BCK1    B1  290   6.659   2.753   6.706
    1BCK1    B1  291   6.743   2.525   6.727
    1BCK1    B1  292   6.814   2.293   6.738
    1BCK1    B1  293   6.889   2.081   6.834
    1BCK1    B1  294   6.957   1.894   6.973
    1BCK1    B1  295   7.029   1.708   7.113
    1BCK1    B1  296   7.122   1.526   7.246
    1BCK1    B1  297   7.237   1.357   7.378
    1BCK1    B1  298   7.373   1.211   7.517
    1BCK1    B1  299   7.531   1.094   7.660
    1BCK1    B1  300   7.709   1.009   7.802
    1BCK1    B1  301   7.898   0.946   7.942
    1BCK1    B1  302   8.087   0.894   8.086
    1BCK1    B1  303   8.281   0.842   8.222
    1BCK1    B1  304   8.482   0.776   8.341
    1BCK1    B1  305   8.679   0.709   8.467
    1BCK1    B1  306   8.842   0.677   8.642
    1BCK1    B1  307   8.394   3.292   3.780
    1BCK1    B1  308   8.268   3.457   3.655
    1BCK1    B1  309   8.196   3.682   3.591
    1BCK1    B1  310   8.176   3.922   3.629
    1BCK1    B1  311   8.192   4.127   3.760
    1BCK1    B1  312   8.159   4.280   3.947
    1BCK1    B1  313   8.048   4.386   4.136
    1BCK1    B1  314   7.886   4.525   4.254
    1BCK1    B1  315   7.720   4.684   4.335
    1BCK1    B1  316   7.575   4.794   4.497
    1BCK1    B1  317   7.478   4.882   4.702
    1BCK1    B1  318   7.357   5.035   4.850
    1BCK1    B1  319   7.192   5.196   4.929
    1BCK1    B1  320   6.981   5.304   4.990
    1BCK1    B1  321   6.757   5.336   5.081
    1BCK1    B1  322   6.558   5.327   5.221
    1BCK1    B1  323   6.394   5.351   5.400
    1BCK1    B1  324   6.255   5.420   5.587
    1BCK1    B1  325   5.739   6.535   3.113
    1BCK1    B1  326   5.502   6.490   3.098
    1BCK1    B1  327   5.306   6.344   3.097
    1BCK1    B1  328   5.156   6.153   3.116
    1BCK1    B1  329   4.957   6.017   3.084
    1BCK1    B1  330   4.797   5.889   2.949
    1BCK1    B1  331   4.760   5.719   2.779
    1BCK1    B1  332   4.784   5.499   2.674
    1BCK1    B1  333   4.660   5.302   2.590
    1BCK1    B1  334   4.416   5.264   2.557
    1BCK1    B1  335   4.227   5.413   2.624
    1BCK1    B1  336   4.209   5.609   2.770
    1BCK1    B1  337   4.265   5.801   2.910
    1BCK1    B1  338   4.235   6.043   2.927
    1BCK1    B1  339   4.144   6.249   2.834
    1BCK1    B1  340   4.075   6.482   2.866
    1BCK1    B1  341   3.992   6.626   3.048
    1BCK1    B1  342   3.880   6.610   3.263
    1BCK1    B1  343   0.607   3.627   6.169
    1BCK1    B1  344   0.714   3.471   6.019
    1BCK1    B1  345   0.738   3.269   5.885
    1BCK1    B1  346   0.834   3.046   5.859
    1BCK1    B1  347   0.988   2.872   5.938
    1BCK1    B1  348   1.210   2.780   5.883
    1BCK1    B1  349   1.289   2.633   5.700
    1BCK1    B1  350   1.256   2.388   5.660
    1BCK1    B1  351   1.333   2.203   5.811
    1BCK1    B1  352   1.520   2.224   5.977
    1BCK1    B1  353   1.683   2.405   6.018
    1BCK1    B1  354   1.755   2.635   6.053
    1BCK1    B1  355   1.814   2.807   6.215
    1BCK1    B1  356   1.847   3.022   6.325
    1BCK1    B1  357   1.915   3.256   6.304
    1BCK1    B1  358   2.063   3.408   6.182
    1BCK1    B1  359   2.277   3.446   6.070
    1BCK1    B1  360   2.510   3.462   6.012
    1BCK1    B1  361   5.808   8.763   2.829
    1BCK1    B1  362   5.811   8.536   2.726
    1BCK1    B1  363   5.826   8.344   2.570
    1BCK1    B1  364   5.857   8.208   2.366
    1BCK1    B1  365   5.909   8.120   2.143
    1BCK1    B1  366   5.991   8.071   1.917
    1BCK1    B1  367   6.072   8.059   1.686
    1BCK1    B1  368   6.144   8.036   1.453
    1BCK1    B1  369   6.194   7.942   1.232
    1BCK1    B1  370   6.193   7.769   1.059
    1BCK1    B1  371   6.147   7.547   0.966
    1BCK1    B1  372   6.086   7.311   0.945
    1BCK1    B1  373   6.030   7.072   0.944
    1BCK1    B1  374   5.979   6.835   0.910
    1BCK1    B1  375   5.940   6.608   0.823
    1BCK1    B1  376   5.930   6.408   0.677
    1BCK1    B1  377   5.949   6.264   0.476
    1BCK1    B1  378   5.987   6.189   0.241
    1BCK1    B1  379   6.323   9.306   5.514
    1BCK1    B1  380   6.514   9.161   5.477
    1BCK1    B1  381   6.738   9.101   5.558
    1BCK1    B1  382   6.857   9.071   5.772
    1BCK1    B1  383   6.823   8.944   5.979
    1BCK1    B1  384   6.866   8.786   6.160
    1BCK1    B1  385   6.998   8.705   6.351
    1BCK1    B1  386   7.098   8.707   6.574
    1BCK1    B1  387   7.315   8.701   6.696
    1BCK1    B1  388   7.539   8.659   6.590
    1BCK1    B1  389   7.571   8.593   6.352
    1BCK1    B1  390   7.556   8.635   6.113
    1BCK1    B1  391   7.567   8.713   5.882
    1BCK1    B1  392   7.647   8.855   5.700
    1BCK1    B1  393   7.813   8.996   5.590
    1BCK1    B1  394   8.038   9.072   5.527
    1BCK1    B1  395   8.253   9.144   5.623
    1BCK1    B1  396   8.346   9.232   5.830
    1BCK1    B1  397   9.707   2.696   8.746
    1BCK1    B1  398   9.794   2.542   8.580
    1BCK1    B1  399   9.816   2.367   8.411
    1BCK1    B1  400   9.774   2.199   8.240
    1BCK1    B1  401   9.794   2.050   8.046
    1BCK1    B1  402   9.896   1.920   7.866
    1BCK1    B1  403   9.989   1.780   7.687
    1BCK1    B1  404  10.089   1.634   7.518
    1BCK1    B1  405  10.200   1.485   7.356
    1BCK1    B1  406  10.251   1.314   7.185
    1BCK1    B1  407  10.186   1.140   7.019
    1BCK1    B1  408  10.022   1.004   6.887
    1BCK1    B1  409   9.810   0.908   6.784
    1BCK1    B1  410   9.578   0.837   6.695
    1BCK1    B1  411   9.337   0.783   6.605
    1BCK1    B1  412   9.089   0.716   6.532
    1BCK1    B1  413   8.834   0.648   6.468
    1BCK1    B1  414   8.568   0.600   6.410
    1BCK1    B1  415   9.011   8.424   2.839
    1BCK1    B1  416   9.260   8.384   2.819
    1BCK1    B1  417   9.510   8.356   2.810
    1BCK1    B1  418   9.758   8.331   2.839
    1BCK1    B1  419   9.987   8.271   2.920
    1BCK1    B1  420  10.172   8.133   3.014
    1BCK1    B1  421  10.305   7.931   3.071
    1BCK1    B1  422  10.419   7.714   3.103
    1BCK1    B1  423  10.502   7.481   3.116
    1BCK1    B1  424  10.501   7.233   3.094
    1BCK1    B1  425  10.394   7.014   3.035
    1BCK1    B1  426  10.207   6.862   2.958
    1BCK1    B1  427   9.979   6.771   2.889
    1BCK1    B1  428   9.730   6.719   2.839
    1BCK1    B1  429   9.471   6.691   2.807
    1BCK1    B1  430   9.205   6.680   2.788
    1BCK1    B1  431   8.935   6.680   2.776
    1BCK1    B1  432   8.660   6.672   2.781
    1BCK1    B1  433   0.361  20.621  20.564
    1BCK1    B1  434   0.246   0.073   0.163
    1BCK1    B1  435   0.147   0.122   0.395
    1BCK1    B1  436   0.071   0.129   0.636
    1BCK1    B1  437   0.030   0.072   0.876
    1BCK1    B1  438   0.031  20.556   1.081
    1BCK1    B1  439   0.070  20.343   1.199
    1BCK1    B1  440   0.140  20.109   1.221
    1BCK1    B1  441   0.211  19.911   1.352
    1BCK1    B1  442   0.217  19.868   1.598
    1BCK1    B1  443   0.146  20.023   1.779
    1BCK1    B1  444   0.063  20.255   1.780
    1BCK1    B1  445   0.046  20.496   1.747
    1BCK1    B1  446   0.013   0.088   1.859
    1BCK1    B1  447  23.367   0.218   2.053
    1BCK1    B1  448  23.281   0.352   2.236
    1BCK1    B1  449  23.249   0.491   2.433
    1BCK1    B1  450  23.264   0.560   2.664
    1BCK1    B1  451   8.660  20.167   3.344
    1BCK1    B1  452   8.451  20.157   3.222
    1BCK1    B1  453   8.257  20.270   3.125
    1BCK1    B1  454   8.129  20.474   3.087
    1BCK1    B1  455   7.960   0.022   3.053
    1BCK1    B1  456   7.804   0.140   2.906
    1BCK1    B1  457   7.779   0.272   2.703
    1BCK1    B1  458   7.804   0.481   2.576
    1BCK1    B1  459   7.645   0.665   2.521
    1BCK1    B1  460   7.397   0.666   2.553
    1BCK1    B1  461   7.249   0.490   2.644
    1BCK1    B1  462   7.261   0.278   2.767
    1BCK1    B1  463   7.241   0.126   2.956
    1BCK1    B1  464   7.092  20.623   3.105
    1BCK1    B1  465   6.901  20.480   3.155
    1BCK1    B1  466   6.754  20.290   3.196
    1BCK1    B1  467   6.631  20.104   3.294
    1BCK1    B1  468   6.533  19.920   3.418
    1BCK1    B1  469   0.170   3.359   0.103
    1BCK1    B1  470   0.202   3.499   0.307
    1BCK1    B1  471   0.196   3.672   0.484
    1BCK1    B1  472   0.134   3.825   0.669
    1BCK1    B1  473   0.032   3.924   0.871
    1BCK1    B1  474  23.324   3.984   1.071
    1BCK1    B1  475  23.183   4.035   1.266
    1BCK1    B1  476  23.068   4.119   1.467
    1BCK1    B1  477  23.020   4.262   1.662
    1BCK1    B1  478  23.058   4.450   1.817
    1BCK1    B1  479  23.156   4.651   1.925
    1BCK1    B1  480  23.284   4.848   2.008
    1BCK1    B1  481   0.006   5.038   2.087
    1BCK1    B1  482   0.166   5.216   2.169
    1BCK1    B1  483   0.347   5.375   2.254
    1BCK1    B1  484   0.551   5.509   2.338
    1BCK1    B1  485   0.775   5.616   2.416
    1BCK1    B1  486   1.016   5.696   2.488
    1BCK1    B1  487  22.618   2.394   6.628
    1BCK1    B1  488  22.485   2.242   6.775
    1BCK1    B1  489  22.341   2.091   6.920
    1BCK1    B1  490  22.182   1.947   7.061
    1BCK1    B1  491  22.004   1.809   7.194
    1BCK1    B1  492  21.809   1.682   7.319
    1BCK1    B1  493  21.596   1.565   7.435
    1BCK1    B1  494  21.368   1.459   7.541
    1BCK1    B1  495  21.125   1.364   7.637
    1BCK1    B1  496  20.871   1.279   7.723
    1BCK1    B1  497  20.604   1.204   7.801
    1BCK1    B1  498  20.328   1.138   7.871
    1BCK1    B1  499  20.042   1.080   7.933
    1BCK1    B1  500  19.748   1.029   7.987
    1BCK1    B1  501  19.445   0.986   8.036
    1BCK1    B1  502  19.136   0.948   8.078
    1BCK1    B1  503  18.819   0.917   8.116
    1BCK1    B1  504  18.496   0.890   8.149
    1BCK1    B1  505   9.732   2.981   0.234
    1BCK1    B1  506   9.761   3.210   0.164
    1BCK1    B1  507   9.742   3.429   0.061
    1BCK1    B1  508   9.790   3.651  20.598
    1BCK1    B1  509   9.881   3.859  20.514
    1BCK1    B1  510   9.951   4.092  20.519
    1BCK1    B1  511   9.925   4.328  20.573
    1BCK1    B1  512   9.907   4.552  20.475
    1BCK1    B1  513  10.029   4.703  20.324
    1BCK1    B1  514  10.155   4.916  20.354
    1BCK1    B1  515  10.077   5.120  20.478
    1BCK1    B1  516   9.850   5.207  20.543
    1BCK1    B1  517   9.597   5.247  20.546
    1BCK1    B1  518   9.337   5.283  20.531
    1BCK1    B1  519   9.070   5.316  20.505
    1BCK1    B1  520   8.796   5.346  20.470
    1BCK1    B1  521   8.516   5.373  20.426
    1BCK1    B1  522   8.228   5.398  20.375
    1BCK1    B1  523   0.609   6.406   9.867
    1BCK1    B1  524   0.381   6.407   9.765
    1BCK1    B1  525   0.149   6.319   9.789
    1BCK1    B1  526   0.023   6.161   9.932
    1BCK1    B1  527   0.003   5.990  10.109
    1BCK1    B1  528  23.395   5.833  10.298
    1BCK1    B1  529  23.357   5.731  10.523
    1BCK1    B1  530  23.342   5.700  10.772
    1BCK1    B1  531  23.351   5.717  11.025
    1BCK1    B1  532  23.374   5.756  11.279
    1BCK1    B1  533  23.406   5.802  11.535
    1BCK1    B1  534   0.019   5.846  11.794
    1BCK1    B1  535   0.061   5.884  12.057
    1BCK1    B1  536   0.106   5.916  12.324
    1BCK1    B1  537   0.157   5.940  12.596
    1BCK1    B1  538   0.213   5.956  12.871
    1BCK1    B1  539   0.276   5.966  13.150
    1BCK1    B1  540   0.346   5.969  13.431
    1BCK1    B1  541  23.152   8.581   6.388
    1BCK1    B1  542  23.192   8.616   6.623
    1BCK1    B1  543  23.220   8.644   6.863
    1BCK1    B1  544  23.230   8.757   7.080
    1BCK1    B1  545  23.320   8.944   7.211
    1BCK1    B1  546   0.090   9.093   7.231
    1BCK1    B1  547   0.324   9.145   7.189
    1BCK1    B1  548   0.536   9.269   7.193
    1BCK1    B1  549   0.676   9.384   7.362
    1BCK1    B1  550   0.668   9.374   7.611
    1BCK1    B1  551   0.515   9.245   7.759
    1BCK1    B1  552   0.301   9.128   7.731
    1BCK1    B1  553   0.056   9.130   7.743
    1BCK1    B1  554  23.304   9.104   7.917
    1BCK1    B1  555  23.297   8.987   8.134
    1BCK1    B1  556  23.403   8.797   8.245
    1BCK1    B1  557   0.047   8.637   8.415
    1BCK1    B1  558   0.048   8.577   8.649
    1BCK1    B1  559   0.182   8.841   3.046
    1BCK1    B1  560  23.367   8.833   3.107
    1BCK1    B1  561  23.122   8.813   3.118
    1BCK1    B1  562  22.884   8.776   3.072
    1BCK1    B1  563  22.682   8.743   2.938
    1BCK1    B1  564  22.542   8.750   2.738
    1BCK1    B1  565  22.390   8.672   2.562
    1BCK1    B1  566  22.151   8.601   2.543
    1BCK1    B1  567  21.969   8.681   2.698
    1BCK1    B1  568  22.003   8.857   2.875
    1BCK1    B1  569  22.184   9.005   2.970
    1BCK1    B1  570  22.400   9.125   3.036
    1BCK1    B1  571  22.643   9.210   3.081
    1BCK1    B1  572  22.903   9.266   3.113
    1BCK1    B1  573  23.173   9.301   3.135
    1BCK1    B1  574   0.030   9.316   3.150
    1BCK1    B1  575   0.317   9.316   3.158
    1BCK1    B1  576   0.611   9.308   3.159
    1BCK1    B1  577  23.069   9.499   8.749
    1BCK1    B1  578  22.875   9.484   8.892
    1BCK1    B1  579  22.788   9.360   9.086
    1BCK1    B1  580  22.804   9.146   9.206
    1BCK1    B1  581  22.677   8.953   9.290
    1BCK1    B1  582  22.472   8.945   9.428
    1BCK1    B1  583  22.342   9.104   9.566
    1BCK1    B1  584  22.098   9.152   9.594
    1BCK1    B1  585  21.927   9.086   9.420
    1BCK1    B1  586  21.988   9.015   9.185
    1BCK1    B1  587  22.183   9.005   9.025
    1BCK1    B1  588  22.403   9.007   8.892
    1BCK1    B1  589  22.641   9.010   8.780
    1BCK1    B1  590  22.900   9.039   8.716
    1BCK1    B1  591  23.172   9.060   8.676
    1BCK1    B1  592   0.025   9.114   8.687
    1BCK1    B1  593   0.302   9.176   8.740
    1BCK1    B1  594   0.587   9.233   8.804
    1BCK1    B1  595   5.709   8.393   6.005
    1BCK1    B1  596   5.797   8.314   6.215
    1BCK1    B1  597   5.879   8.247   6.434
    1BCK1    B1  598   5.919   8.150   6.653
    1BCK1    B1  599   5.962   8.067   6.878
    1BCK1    B1  600   6.050   8.030   7.101
    1BCK1    B1  601   6.163   8.036   7.316
    1BCK1    B1  602   6.229   8.033   7.550
    1BCK1    B1  603   6.242   7.957   7.781
    1BCK1    B1  604   6.243   7.785   7.955
    1BCK1    B1  605   6.232   7.555   8.033
    1BCK1    B1  606   6.166   7.321   8.037
    1BCK1    B1  607   6.050   7.107   8.028
    1BCK1    B1  608   5.962   6.884   8.062
    1BCK1    B1  609   5.921   6.657   8.139
    1BCK1    B1  610   5.873   6.435   8.225
    1BCK1    B1  611   5.781   6.215   8.273
    1BCK1    B1  612   5.701   5.995   8.329
    1BCK1    B1  613   9.111   8.547   5.453
    1BCK1    B1  614   9.326   8.465   5.349
    1BCK1    B1  615   9.531   8.355   5.252
    1BCK1    B1  616   9.723   8.221   5.163
    1BCK1    B1  617   9.902   8.069   5.079
    1BCK1    B1  618  10.068   7.906   4.989
    1BCK1    B1  619  10.211   7.735   4.879
    1BCK1    B1  620  10.309   7.554   4.740
    1BCK1    B1  621  10.328   7.372   4.571
    1BCK1    B1  622  10.250   7.210   4.399
    1BCK1    B1  623  10.094   7.081   4.250
    1BCK1    B1  624   9.892   6.985   4.131
    1BCK1    B1  625   9.665   6.911   4.037
    1BCK1    B1  626   9.422   6.854   3.961
    1BCK1    B1  627   9.170   6.809   3.901
    1BCK1    B1  628   8.909   6.771   3.854
    1BCK1    B1  629   8.643   6.740   3.820
    1BCK1    B1  630   8.371   6.712   3.796
    1BCK1    B1  631   2.659   3.406   9.668
    1BCK1    B1  632   2.662   3.633   9.752
    1BCK1    B1  633   2.762   3.820   9.874
    1BCK1    B1  634   2.901   3.972  10.010
    1BCK1    B1  635   3.014   4.125  10.168
    1BCK1    B1  636   3.088   4.281  10.349
    1BCK1    B1  637   3.129   4.429  10.549
    1BCK1    B1  638   3.146   4.563  10.765
    1BCK1    B1  639   3.146   4.684  10.994
    1BCK1    B1  640   3.136   4.790  11.232
    1BCK1    B1  641   3.120   4.884  11.478
    1BCK1    B1  642   3.102   4.967  11.732
    1BCK1    B1  643   3.085   5.041  11.992
    1BCK1    B1  644   3.070   5.105  12.259
    1BCK1    B1  645   3.057   5.162  12.530
    1BCK1    B1  646   3.049   5.213  12.807
    1BCK1    B1  647   3.044   5.258  13.088
    1BCK1    B1  648   3.043   5.298  13.374
    1BCK1    B1  649   2.840   9.022   8.891
    1BCK1    B1  650   2.856   8.803   8.748
    1BCK1    B1  651   2.879   8.597   8.593
    1BCK1    B1  652   2.910   8.408   8.423
    1BCK1    B1  653   2.955   8.240   8.240
    1BCK1    B1  654   3.020   8.097   8.045
    1BCK1    B1  655   3.129   7.989   7.849
    1BCK1    B1  656   3.293   7.923   7.679
    1BCK1    B1  657   3.416   7.814   7.496
    1BCK1    B1  658   3.391   7.647   7.317
    1BCK1    B1  659   3.231   7.491   7.219
    1BCK1    B1  660   3.102   7.316   7.111
    1BCK1    B1  661   3.095   7.103   6.992
    1BCK1    B1  662   3.052   6.878   6.910
    1BCK1    B1  663   2.896   6.702   6.848
    1BCK1    B1  664   2.753   6.545   6.731
    1BCK1    B1  665   2.721   6.337   6.610
    1BCK1    B1  666   2.741   6.109   6.535
    1BCK1    B1  667   2.615   6.127   2.393
    1BCK1    B1  668   2.455   6.296   2.325
    1BCK1    B1  669   2.319   6.484   2.253
    1BCK1    B1  670   2.206   6.689   2.183
    1BCK1    B1  671   2.105   6.898   2.113
    1BCK1    B1  672   2.004   7.108   2.038
    1BCK1    B1  673   1.900   7.311   1.958
    1BCK1    B1  674   1.780   7.501   1.861
    1BCK1    B1  675   1.651   7.669   1.744
    1BCK1    B1  676   1.516   7.817   1.604
    1BCK1    B1  677   1.368   7.927   1.448
    1BCK1    B1  678   1.209   8.001   1.278
    1BCK1    B1  679   1.059   8.060   1.098
    1BCK1    B1  680   0.910   8.114   0.912
    1BCK1    B1  681   0.757   8.157   0.729
    1BCK1    B1  682   0.600   8.205   0.549
    1BCK1    B1  683   0.449   8.269   0.371
    1BCK1    B1  684   0.305   8.341   0.190
    1BCK1    B1  685   3.514   6.503   9.734
    1BCK1    B1  686   3.673   6.660   9.834
    1BCK1    B1  687   3.831   6.822   9.940
    1BCK1    B1  688   3.984   6.981  10.058
    1BCK1    B1  689   4.132   7.135  10.194
    1BCK1    B1  690   4.271   7.282  10.349
    1BCK1    B1  691   4.402   7.420  10.522
    1BCK1    B1  692   4.523   7.550  10.711
    1BCK1    B1  693   4.633   7.672  10.916
    1BCK1    B1  694   4.732   7.788  11.132
    1BCK1    B1  695   4.822   7.899  11.358
    1BCK1    B1  696   4.902   8.009  11.591
    1BCK1    B1  697   4.973   8.119  11.831
    1BCK1    B1  698   5.037   8.231  12.075
    1BCK1    B1  699   5.094   8.349  12.321
    1BCK1    B1  700   5.144   8.474  12.569
    1BCK1    B1  701   5.188   8.609  12.816
    1BCK1    B1  702   5.227   8.756  13.060
    1BCK1    B1  703   3.557   9.794  20.034
    1BCK1    B1  704   3.474   9.737  20.257
    1BCK1    B1  705   3.312   9.802  20.432
    1BCK1    B1  706   3.138   9.956  20.511
    1BCK1    B1  707   2.991  10.127  20.608
    1BCK1    B1  708   2.868  10.301   0.110
    1BCK1    B1  709   2.783  10.518   0.195
    1BCK1    B1  710   2.753  10.766   0.217
    1BCK1    B1  711   2.767  11.018   0.196
    1BCK1    B1  712   2.800  11.269   0.162
    1BCK1    B1  713   2.840  11.524   0.126
    1BCK1    B1  714   2.878  11.782   0.092
    1BCK1    B1  715   2.912  12.046   0.064
    1BCK1    B1  716   2.941  12.315   0.040
    1BCK1    B1  717   2.963  12.588   0.022
    1BCK1    B1  718   2.980  12.867   0.008
    1BCK1    B1  719   2.992  13.150  20.622
    1BCK1    B1  720   2.999  13.437  20.616
    1BCK1    B1  721   3.463   5.703   5.667
    1BCK1    B1  722   3.622   5.581   5.531
    1BCK1    B1  723   3.774   5.457   5.386
    1BCK1    B1  724   3.855   5.282   5.237
    1BCK1    B1  725   3.890   5.090   5.092
    1BCK1    B1  726   3.936   4.901   4.945
    1BCK1    B1  727   4.006   4.712   4.810
    1BCK1    B1  728   4.090   4.527   4.677
    1BCK1    B1  729   4.189   4.364   4.526
    1BCK1    B1  730   4.325   4.233   4.372
    1BCK1    B1  731   4.500   4.128   4.241
    1BCK1    B1  732   4.695   4.033   4.130
    1BCK1    B1  733   4.891   3.951   4.013
    1BCK1    B1  734   5.094   3.889   3.893
    1BCK1    B1  735   5.302   3.836   3.779
    1BCK1    B1  736   5.508   3.763   3.671
    1BCK1    B1  737   5.700   3.646   3.576
    1BCK1    B1  738   5.876   3.494   3.514
    1BCK1    B1  739   6.262   0.103   3.246
    1BCK1    B1  740   6.259   0.353   3.251
    1BCK1    B1  741   6.211   0.596   3.232
    1BCK1    B1  742   6.123   0.823   3.187
    1BCK1    B1  743   6.026   1.032   3.101
    1BCK1    B1  744   5.935   1.190   2.936
    1BCK1    B1  745   5.823   1.232   2.723
    1BCK1    B1  746   5.643   1.223   2.556
    1BCK1    B1  747   5.478   1.373   2.446
    1BCK1    B1  748   5.472   1.623   2.439
    1BCK1    B1  749   5.633   1.782   2.541
    1BCK1    B1  750   5.820   1.769   2.699
    1BCK1    B1  751   5.921   1.776   2.922
    1BCK1    B1  752   5.997   1.918   3.106
    1BCK1    B1  753   6.108   2.115   3.196
    1BCK1    B1  754   6.276   2.282   3.255
    1BCK1    B1  755   6.381   2.486   3.338
    1BCK1    B1  756   6.383   2.713   3.421
    1BCK1    B1  757   6.214   0.313   5.356
    1BCK1    B1  758   6.382   0.467   5.273
    1BCK1    B1  759   6.559   0.622   5.210
    1BCK1    B1  760   6.744   0.776   5.171
    1BCK1    B1  761   6.931   0.930   5.145
    1BCK1    B1  762   7.114   1.080   5.088
    1BCK1    B1  763   7.279   1.215   4.968
    1BCK1    B1  764   7.452   1.368   4.891
    1BCK1    B1  765   7.612   1.516   4.782
    1BCK1    B1  766   7.747   1.651   4.629
    1BCK1    B1  767   7.860   1.777   4.453
    1BCK1    B1  768   7.958   1.898   4.265
    1BCK1    B1  769   8.046   2.017   4.070
    1BCK1    B1  770   8.132   2.136   3.874
    1BCK1    B1  771   8.221   2.249   3.677
    1BCK1    B1  772   8.312   2.334   3.467
    1BCK1    B1  773   8.422   2.420   3.266
    1BCK1    B1  774   8.562   2.550   3.116
    1BCK1    B1  775   2.271   6.159   6.343
    1BCK1    B1  776   2.235   6.328   6.511
    1BCK1    B1  777   2.237   6.515   6.667
    1BCK1    B1  778   2.232   6.720   6.799
    1BCK1    B1  779   2.167   6.923   6.917
    1BCK1    B1  780   2.100   7.122   7.040
    1BCK1    B1  781   2.051   7.322   7.171
    1BCK1    B1  782   1.975   7.511   7.305
    1BCK1    B1  783   1.838   7.667   7.433
    1BCK1    B1  784   1.667   7.788   7.558
    1BCK1    B1  785   1.489   7.891   7.688
    1BCK1    B1  786   1.306   7.978   7.823
    1BCK1    B1  787   1.116   8.050   7.959
    1BCK1    B1  788   0.917   8.119   8.082
    1BCK1    B1  789   0.714   8.193   8.194
    1BCK1    B1  790   0.527   8.242   8.343
    1BCK1    B1  791   0.396   8.226   8.548
    1BCK1    B1  792   0.330   8.196   8.779
    1BCK1    B1  793   6.550  20.509   8.855
    1BCK1    B1  794   6.625   0.124   8.855
    1BCK1    B1  795   6.710   0.357   8.878
    1BCK1    B1  796   6.799   0.585   8.919
    1BCK1    B1  797   6.880   0.813   8.965
    1BCK1    B1  798   6.940   1.048   9.008
    1BCK1    B1  799   6.967   1.286   9.061
    1BCK1    B1  800   6.973   1.515   9.145
    1BCK1    B1  801   7.026   1.739   9.228
    1BCK1    B1  802   7.172   1.935   9.237
    1BCK1    B1  803   7.381   2.033   9.154
    1BCK1    B1  804   7.598   2.006   9.047
    1BCK1    B1  805   7.838   1.978   9.015
    1BCK1    B1  806   8.069   2.054   9.011
    1BCK1    B1  807   8.253   2.202   8.952
    1BCK1    B1  808   8.466   2.281   8.864
    1BCK1    B1  809   8.707   2.255   8.853
    1BCK1    B1  810   8.943   2.277   8.827
    1BCK1    B1  811   8.302   9.495   5.312
    1BCK1    B1  812   8.176   9.664   5.190
    1BCK1    B1  813   8.067   9.860   5.091
    1BCK1    B1  814   7.964  10.061   4.982
    1BCK1    B1  815   7.858  10.254   4.867
    1BCK1    B1  816   7.747  10.451   4.747
    1BCK1    B1  817   7.636  10.645   4.630
    1BCK1    B1  818   7.522  10.851   4.513
    1BCK1    B1  819   7.415  11.057   4.404
    1BCK1    B1  820   7.310  11.280   4.298
    1BCK1    B1  821   7.214  11.505   4.203
    1BCK1    B1  822   7.123  11.747   4.114
    1BCK1    B1  823   7.043  11.992   4.036
    1BCK1    B1  824   6.969  12.252   3.965
    1BCK1    B1  825   6.906  12.513   3.904
    1BCK1    B1  826   6.850  12.786   3.850
    1BCK1    B1  827   6.803  13.063   3.804
    1BCK1    B1  828   6.763  13.347   3.765
    1BCK1    B1  829   9.131   0.351   3.578
    1BCK1    B1  830   9.046   0.574   3.536
    1BCK1    B1  831   9.013   0.766   3.389
    1BCK1    B1  832   9.060   0.911   3.200
    1BCK1    B1  833   9.072   1.101   3.048
    1BCK1    B1  834   8.985   1.234   2.862
    1BCK1    B1  835   8.873   1.231   2.646
    1BCK1    B1  836   8.852   1.218   2.402
    1BCK1    B1  837   8.857   1.377   2.211
    1BCK1    B1  838   8.864   1.627   2.217
    1BCK1    B1  839   8.867   1.779   2.413
    1BCK1    B1  840   8.891   1.764   2.656
    1BCK1    B1  841   8.983   1.789   2.881
    1BCK1    B1  842   9.037   1.939   3.066
    1BCK1    B1  843   8.993   2.134   3.206
    1BCK1    B1  844   8.920   2.287   3.380
    1BCK1    B1  845   8.945   2.459   3.552
    1BCK1    B1  846   9.038   2.666   3.636
    1BCK1    B1  847  23.307   0.382   3.579
    1BCK1    B1  848  23.099   0.282   3.651
    1BCK1    B1  849  22.900   0.172   3.737
    1BCK1    B1  850  22.696   0.071   3.825
    1BCK1    B1  851  22.489  20.600   3.912
    1BCK1    B1  852  22.280  20.512   4.002
    1BCK1    B1  853  22.083  20.441   4.131
    1BCK1    B1  854  21.964  20.417   4.346
    1BCK1    B1  855  21.984  20.443   4.592
    1BCK1    B1  856  22.122  20.489   4.796
    1BCK1    B1  857  22.315  20.533   4.955
    1BCK1    B1  858  22.537  20.568   5.085
    1BCK1    B1  859  22.776  20.594   5.194
    1BCK1    B1  860  23.028  20.612   5.288
    1BCK1    B1  861  23.291  20.620   5.371
    1BCK1    B1  862   0.141  20.622   5.443
    1BCK1    B1  863   0.424   0.004   5.493
    1BCK1    B1  864   0.717   0.013   5.520
    1BCK1    B1  865   9.519   3.732  20.171
    1BCK1    B1  866   9.676   3.833  20.011
    1BCK1    B1  867   9.810   3.929  19.824
    1BCK1    B1  868   9.922   4.028  19.621
    1BCK1    B1  869  10.008   4.134  19.407
    1BCK1    B1  870  10.061   4.247  19.183
    1BCK1    B1  871  10.078   4.363  18.951
    1BCK1    B1  872  10.056   4.477  18.715
    1BCK1    B1  873   9.998   4.585  18.479
    1BCK1    B1  874   9.907   4.685  18.243
    1BCK1    B1  875   9.788   4.774  18.011
    1BCK1    B1  876   9.645   4.854  17.781
    1BCK1    B1  877   9.482   4.924  17.556
    1BCK1    B1  878   9.302   4.985  17.333
    1BCK1    B1  879   9.107   5.039  17.113
    1BCK1    B1  880   8.899   5.085  16.894
    1BCK1    B1  881   8.680   5.125  16.676
    1BCK1    B1  882   8.450   5.160  16.459
    1BCK1    B1  883   6.664  19.769  19.909
    1BCK1    B1  884   6.807  19.641  19.748
    1BCK1    B1  885   6.947  19.507  19.582
    1BCK1    B1  886   7.080  19.366  19.412
    1BCK1    B1  887   7.204  19.213  19.237
    1BCK1    B1  888   7.318  19.053  19.059
    1BCK1    B1  889   7.422  18.882  18.875
    1BCK1    B1  890   7.514  18.704  18.689
    1BCK1    B1  891   7.595  18.516  18.496
    1BCK1    B1  892   7.665  18.325  18.302
    1BCK1    B1  893   7.724  18.125  18.101
    1BCK1    B1  894   7.771  17.922  17.898
    1BCK1    B1  895   7.808  17.712  17.688
    1BCK1    B1  896   7.834  17.500  17.477
    1BCK1    B1  897   7.849  17.282  17.260
    1BCK1    B1  898   7.853  17.063  17.041
    1BCK1    B1  899   7.847  16.840  16.817
    1BCK1    B1  900   7.830  16.614  16.590
    1BCK1    B1  901   3.560  20.238   8.868
    1BCK1    B1  902   3.504  20.029   8.976
    1BCK1    B1  903   3.345  19.850   9.030
    1BCK1    B1  904   3.156  19.704   8.977
    1BCK1    B1  905   2.986  19.531   8.943
    1BCK1    B1  906   2.812  19.358   8.947
    1BCK1    B1  907   2.679  19.150   8.939
    1BCK1    B1  908   2.636  18.905   8.925
    1BCK1    B1  909   2.669  18.657   8.925
    1BCK1    B1  910   2.729  18.412   8.940
    1BCK1    B1  911   2.792  18.165   8.964
    1BCK1    B1  912   2.848  17.915   8.995
    1BCK1    B1  913   2.894  17.660   9.030
    1BCK1    B1  914   2.931  17.401   9.070
    1BCK1    B1  915   2.957  17.138   9.113
    1BCK1    B1  916   2.975  16.872   9.162
    1BCK1    B1  917   2.984  16.603   9.217
    1BCK1    B1  918   2.986  16.332   9.279
    1BCK1    B1  919   8.425   5.709   9.353
    1BCK1    B1  920   8.297   5.802   9.540
    1BCK1    B1  921   8.171   5.887   9.736
    1BCK1    B1  922   8.045   5.967   9.937
    1BCK1    B1  923   7.918   6.042  10.142
    1BCK1    B1  924   7.794   6.115  10.352
    1BCK1    B1  925   7.677   6.192  10.568
    1BCK1    B1  926   7.545   6.226  10.789
    1BCK1    B1  927   7.419   6.197  11.017
    1BCK1    B1  928   7.310   6.153  11.254
    1BCK1    B1  929   7.205   6.120  11.498
    1BCK1    B1  930   7.108   6.094  11.749
    1BCK1    B1  931   7.020   6.071  12.008
    1BCK1    B1  932   6.943   6.053  12.273
    1BCK1    B1  933   6.876   6.039  12.544
    1BCK1    B1  934   6.818   6.029  12.821
    1BCK1    B1  935   6.769   6.023  13.103
    1BCK1    B1  936   6.728   6.019  13.389
    1BCK1    B1  937   8.644   2.700   8.498
    1BCK1    B1  938   8.722   2.494   8.399
    1BCK1    B1  939   8.743   2.255   8.361
    1BCK1    B1  940   8.845   2.034   8.359
    1BCK1    B1  941   8.997   1.880   8.246
    1BCK1    B1  942   9.152   1.837   8.063
    1BCK1    B1  943   9.310   1.860   7.879
    1BCK1    B1  944   9.458   1.742   7.723
    1BCK1    B1  945   9.533   1.534   7.617
    1BCK1    B1  946   9.473   1.334   7.490
    1BCK1    B1  947   9.339   1.207   7.328
    1BCK1    B1  948   9.225   1.139   7.123
    1BCK1    B1  949   9.109   1.123   6.908
    1BCK1    B1  950   8.909   1.095   6.767
    1BCK1    B1  951   8.679   1.010   6.734
    1BCK1    B1  952   8.489   0.860   6.788
    1BCK1    B1  953   8.337   0.661   6.786
    1BCK1    B1  954   8.230   0.469   6.665
    1BCK1    B1  955  22.653   3.084   9.045
    1BCK1    B1  956  22.644   2.846   9.011
    1BCK1    B1  957  22.636   2.604   8.998
    1BCK1    B1  958  22.546   2.379   9.018
    1BCK1    B1  959  22.441   2.160   9.027
    1BCK1    B1  960  22.472   1.919   9.010
    1BCK1    B1  961  22.614   1.720   8.996
    1BCK1    B1  962  22.596   1.477   8.962
    1BCK1    B1  963  22.424   1.306   8.920
    1BCK1    B1  964  22.363   1.068   8.949
    1BCK1    B1  965  22.505   0.865   8.992
    1BCK1    B1  966  22.749   0.793   9.015
    1BCK1    B1  967  23.009   0.757   9.028
    1BCK1    B1  968  23.280   0.734   9.038
    1BCK1    B1  969   0.137   0.721   9.045
    1BCK1    B1  970   0.428   0.703   9.044
    1BCK1    B1  971   0.728   0.685   9.042
    1BCK1    B1  972   1.038   0.671   9.039
    1BCK1    B1  973   3.203  20.580   3.751
    1BCK1    B1  974   3.156   0.192   3.784
    1BCK1    B1  975   3.084   0.424   3.793
    1BCK1    B1  976   3.013   0.651   3.842
    1BCK1    B1  977   2.974   0.877   3.922
    1BCK1    B1  978   2.979   1.112   3.982
    1BCK1    B1  979   2.971   1.355   3.978
    1BCK1    B1  980   2.897   1.586   3.954
    1BCK1    B1  981   2.820   1.806   4.025
    1BCK1    B1  982   2.820   1.977   4.200
    1BCK1    B1  983   2.896   2.044   4.422
    1BCK1    B1  984   2.968   2.021   4.653
    1BCK1    B1  985   2.979   2.024   4.896
    1BCK1    B1  986   2.975   2.096   5.128
    1BCK1    B1  987   3.009   2.194   5.348
    1BCK1    B1  988   3.072   2.241   5.578
    1BCK1    B1  989   3.125   2.245   5.815
    1BCK1    B1  990   3.165   2.312   6.044
    1BCK1    B1  991   0.440   0.307   9.346
    1BCK1    B1  992   0.374   0.326   9.579
    1BCK1    B1  993   0.235   0.272   9.773
    1BCK1    B1  994   0.074   0.160   9.921
    1BCK1    B1  995  23.376   0.012  10.075
    1BCK1    B1  996  23.293  20.486  10.253
    1BCK1    B1  997  23.240  20.390  10.476
    1BCK1    B1  998  23.225  20.364  10.724
    1BCK1    B1  999  23.243  20.383  10.975
    1BCK1    B1 1000  23.281  20.419  11.224
    1BCK1    B1 1001  23.329  20.455  11.474
    1BCK1    B1 1002  23.382  20.485  11.728
    1BCK1    B1 1003   0.016  20.505  11.985
    1BCK1    B1 1004   0.076  20.513  12.245
    1BCK1    B1 1005   0.138  20.509  12.508
    1BCK1    B1 1006   0.205  20.493  12.774
    1BCK1    B1 1007   0.276  20.464  13.040
    1BCK1    B1 1008   0.353  20.422  13.308
    1BCK1    B1 1009   0.988   3.061   9.128
    1BCK1    B1 1010   1.230   3.054   9.115
    1BCK1    B1 1011   1.471   3.037   9.080
    1BCK1    B1 1012   1.708   3.011   9.026
    1BCK1    B1 1013   1.943   2.981   8.965
    1BCK1    B1 1014   2.177   2.945   8.906
    1BCK1    B1 1015   2.413   2.906   8.856
    1BCK1    B1 1016   2.652   2.867   8.822
    1BCK1    B1 1017   2.895   2.843   8.808
    1BCK1    B1 1018   3.140   2.845   8.817
    1BCK1    B1 1019   3.382   2.869   8.843
    1BCK1    B1 1020   3.622   2.902   8.882
    1BCK1    B1 1021   3.859   2.939   8.933
    1BCK1    B1 1022   4.094   2.978   8.992
    1BCK1    B1 1023   4.330   3.014   9.049
    1BCK1    B1 1024   4.567   3.041   9.114
    1BCK1    B1 1025   4.794   3.050   9.211
    1BCK1    B1 1026   4.990   3.032   9.361
    1BCK1    B1 1027   6.728   5.509   5.764
    1BCK1    B1 1028   6.829   5.315   5.660
    1BCK1    B1 1029   6.905   5.127   5.526
    1BCK1    B1 1030   6.924   4.952   5.356
    1BCK1    B1 1031   6.906   4.832   5.144
    1BCK1    B1 1032   6.918   4.773   4.908
    1BCK1    B1 1033   6.995   4.710   4.685
    1BCK1    B1 1034   7.099   4.608   4.490
    1BCK1    B1 1035   7.205   4.518   4.290
    1BCK1    B1 1036   7.347   4.447   4.105
    1BCK1    B1 1037   7.517   4.313   3.992
    1BCK1    B1 1038   7.661   4.116   3.976
    1BCK1    B1 1039   7.803   3.933   4.052
    1BCK1    B1 1040   8.008   3.811   4.106
    1BCK1    B1 1041   8.247   3.760   4.102
    1BCK1    B1 1042   8.475   3.754   4.013
    1BCK1    B1 1043   8.659   3.712   3.857
    1BCK1    B1 1044   8.816   3.622   3.694
    1BCK1    B1 1045  23.343   3.573   9.369
    1BCK1    B1 1046  23.278   3.481   9.583
    1BCK1    B1 1047  23.299   3.327   9.773
    1BCK1    B1 1048  23.383   3.151   9.922
    1BCK1    B1 1049   0.023   2.977  10.084
    1BCK1    B1 1050   0.050   2.822  10.275
    1BCK1    B1 1051   0.058   2.723  10.504
    1BCK1    B1 1052   0.056   2.692  10.754
    1BCK1    B1 1053   0.050   2.709  11.007
    1BCK1    B1 1054   0.043   2.749  11.262
    1BCK1    B1 1055   0.036   2.797  11.518
    1BCK1    B1 1056   0.029   2.845  11.778
    1BCK1    B1 1057   0.022   2.888  12.042
    1BCK1    B1 1058   0.017   2.925  12.311
    1BCK1    B1 1059   0.014   2.955  12.585
    1BCK1    B1 1060   0.012   2.978  12.863
    1BCK1    B1 1061   0.011   2.994  13.145
    1BCK1    B1 1062   0.012   3.005  13.432
    1BCK1    B1 1063  23.016   2.487   3.092
    1BCK1    B1 1064  23.138   2.403   3.282
    1BCK1    B1 1065  23.252   2.309   3.474
    1BCK1    B1 1066  23.321   2.219   3.689
    1BCK1    B1 1067  23.412   2.116   3.889
    1BCK1    B1 1068   0.114   2.000   4.062
    1BCK1    B1 1069   0.247   1.934   4.254
    1BCK1    B1 1070   0.363   1.926   4.467
    1BCK1    B1 1071   0.427   1.849   4.690
    1BCK1    B1 1072   0.423   1.671   4.858
    1BCK1    B1 1073   0.352   1.448   4.927
    1BCK1    B1 1074   0.231   1.238   4.949
    1BCK1    B1 1075   0.090   1.056   5.025
    1BCK1    B1 1076  23.372   0.885   5.127
    1BCK1    B1 1077  23.303   0.651   5.161
    1BCK1    B1 1078  23.384   0.422   5.118
    1BCK1    B1 1079   0.171   0.299   5.070
    1BCK1    B1 1080   0.413   0.256   5.106
    1BCK1    B1 1081   8.799   6.493   6.177
    1BCK1    B1 1082   9.013   6.563   6.282
    1BCK1    B1 1083   9.145   6.673   6.461
    1BCK1    B1 1084   9.136   6.803   6.671
    1BCK1    B1 1085   9.021   6.914   6.857
    1BCK1    B1 1086   8.898   6.996   7.051
    1BCK1    B1 1087   8.777   7.048   7.257
    1BCK1    B1 1088   8.642   7.115   7.449
    1BCK1    B1 1089   8.558   7.253   7.633
    1BCK1    B1 1090   8.580   7.439   7.793
    1BCK1    B1 1091   8.688   7.630   7.903
    1BCK1    B1 1092   8.815   7.825   7.983
    1BCK1    B1 1093   8.923   8.029   8.072
    1BCK1    B1 1094   8.996   8.239   8.185
    1BCK1    B1 1095   9.017   8.447   8.324
    1BCK1    B1 1096   8.980   8.644   8.477
    1BCK1    B1 1097   8.891   8.823   8.636
    1BCK1    B1 1098   8.766   8.986   8.794
    1BCK1    B1 1099   1.357   6.103   9.501
    1BCK1    B1 1100   1.368   6.098   9.253
    1BCK1    B1 1101   1.529   6.062   9.068
    1BCK1    B1 1102   1.759   6.005   9.002
    1BCK1    B1 1103   1.992   5.941   8.963
    1BCK1    B1 1104   2.223   5.876   8.911
    1BCK1    B1 1105   2.449   5.828   8.831
    1BCK1    B1 1106   2.680   5.824   8.750
    1BCK1    B1 1107   2.917   5.760   8.738
    1BCK1    B1 1108   3.132   5.710   8.844
    1BCK1    B1 1109   3.364   5.680   8.918
    1BCK1    B1 1110   3.603   5.733   8.897
    1BCK1    B1 1111   3.826   5.830   8.918
    1BCK1    B1 1112   4.047   5.929   8.957
    1BCK1    B1 1113   4.276   6.003   9.001
    1BCK1    B1 1114   4.512   6.059   9.038
    1BCK1    B1 1115   4.753   6.094   9.060
    1BCK1    B1 1116   4.996   6.109   9.067
    1BCK1    B1 1117  23.210   9.710   2.393
    1BCK1    B1 1118  22.992   9.811   2.307
    1BCK1    B1 1119  22.798   9.929   2.189
    1BCK1    B1 1120  22.636  10.069   2.049
    1BCK1    B1 1121  22.511  10.235   1.897
    1BCK1    B1 1122  22.428  10.426   1.746
    1BCK1    B1 1123  22.391  10.640   1.602
    1BCK1    B1 1124  22.398  10.869   1.471
    1BCK1    B1 1125  22.447  11.105   1.357
    1BCK1    B1 1126  22.531  11.344   1.259
    1BCK1    B1 1127  22.644  11.582   1.174
    1BCK1    B1 1128  22.782  11.817   1.103
    1BCK1    B1 1129  22.941  12.049   1.042
    1BCK1    B1 1130  23.117  12.278   0.990
    1BCK1    B1 1131  23.309  12.504   0.945
    1BCK1    B1 1132   0.091  12.728   0.907
    1BCK1    B1 1133   0.308  12.950   0.874
    1BCK1    B1 1134   0.536  13.171   0.845
    1BCK1    B1 1135   3.554   0.322  19.888
    1BCK1    B1 1136   3.665   0.533  19.796
    1BCK1    B1 1137   3.798   0.724  19.690
    1BCK1    B1 1138   3.944   0.898  19.568
    1BCK1    B1 1139   4.093   1.058  19.430
    1BCK1    B1 1140   4.239   1.206  19.273
    1BCK1    B1 1141   4.378   1.343  19.098
    1BCK1    B1 1142   4.506   1.469  18.904
    1BCK1    B1 1143   4.622   1.585  18.695
    1BCK1    B1 1144   4.726   1.690  18.471
    1BCK1    B1 1145   4.818   1.784  18.235
    1BCK1    B1 1146   4.900   1.869  17.988
    1BCK1    B1 1147   4.971   1.944  17.733
    1BCK1    B1 1148   5.032   2.011  17.469
    1BCK1    B1 1149   5.086   2.069  17.199
    1BCK1    B1 1150   5.133   2.121  16.923
    1BCK1    B1 1151   5.172   2.166  16.642
    1BCK1    B1 1152   5.206   2.205  16.356
    1BCK1    B1 1153   3.392  20.120   3.313
    1BCK1    B1 1154   3.563  19.974   3.218
    1BCK1    B1 1155   3.738  19.824   3.128
    1BCK1    B1 1156   3.911  19.665   3.045
    1BCK1    B1 1157   4.081  19.493   2.976
    1BCK1    B1 1158   4.243  19.305   2.925
    1BCK1    B1 1159   4.395  19.101   2.893
    1BCK1    B1 1160   4.532  18.883   2.878
    1BCK1    B1 1161   4.655  18.653   2.876
    1BCK1    B1 1162   4.764  18.413   2.883
    1BCK1    B1 1163   4.859  18.164   2.896
    1BCK1    B1 1164   4.942  17.908   2.911
    1BCK1    B1 1165   5.013  17.645   2.927
    1BCK1    B1 1166   5.075  17.376   2.942
    1BCK1    B1 1167   5.128  17.102   2.955
    1BCK1    B1 1168   5.173  16.824   2.964
    1BCK1    B1 1169   5.212  16.540   2.970
    1BCK1    B1 1170   5.245  16.253   2.973
    1BCK1    B1 1171   3.086  19.929   9.630
    1BCK1    B1 1172   3.061  19.753   9.803
    1BCK1    B1 1173   3.029  19.583   9.990
    1BCK1    B1 1174   2.999  19.416  10.181
    1BCK1    B1 1175   2.974  19.241  10.377
    1BCK1    B1 1176   2.957  19.065  10.572
    1BCK1    B1 1177   2.944  18.879  10.772
    1BCK1    B1 1178   2.938  18.691  10.969
    1BCK1    B1 1179   2.935  18.493  11.171
    1BCK1    B1 1180   2.935  18.295  11.370
    1BCK1    B1 1181   2.938  18.087  11.575
    1BCK1    B1 1182   2.942  17.879  11.777
    1BCK1    B1 1183   2.947  17.664  11.987
    1BCK1    B1 1184   2.952  17.448  12.195
    1BCK1    B1 1185   2.957  17.226  12.409
    1BCK1    B1 1186   2.962  17.003  12.623
    1BCK1    B1 1187   2.966  16.775  12.843
    1BCK1    B1 1188   2.970  16.545  13.064
    1BCK1    B1 1189   6.311   3.604   3.276
    1BCK1    B1 1190   6.410   3.697   3.476
    1BCK1    B1 1191   6.580   3.751   3.643
    1BCK1    B1 1192   6.770   3.849   3.758
    1BCK1    B1 1193   6.960   3.942   3.878
    1BCK1    B1 1194   7.133   3.968   4.048
    1BCK1    B1 1195   7.261   3.960   4.255
    1BCK1    B1 1196   7.412   4.051   4.422
    1BCK1    B1 1197   7.550   4.220   4.528
    1BCK1    B1 1198   7.695   4.327   4.691
    1BCK1    B1 1199   7.875   4.471   4.769
    1BCK1    B1 1200   7.975   4.693   4.789
    1BCK1    B1 1201   7.968   4.924   4.866
    1BCK1    B1 1202   7.998   5.102   5.030
    1BCK1    B1 1203   8.102   5.252   5.191
    1BCK1    B1 1204   8.208   5.435   5.313
    1BCK1    B1 1205   8.259   5.654   5.410
    1BCK1    B1 1206   8.210   5.877   5.496
    1BCK1    B1 1207   0.397   3.165   6.618
    1BCK1    B1 1208   0.564   3.339   6.601
    1BCK1    B1 1209   0.694   3.531   6.676
    1BCK1    B1 1210   0.796   3.722   6.787
    1BCK1    B1 1211   0.909   3.917   6.880
    1BCK1    B1 1212   1.030   4.116   6.950
    1BCK1    B1 1213   1.155   4.311   7.025
    1BCK1    B1 1214   1.288   4.491   7.122
    1BCK1    B1 1215   1.427   4.652   7.241
    1BCK1    B1 1216   1.569   4.793   7.380
    1BCK1    B1 1217   1.714   4.909   7.539
    1BCK1    B1 1218   1.860   5.001   7.711
    1BCK1    B1 1219   2.004   5.080   7.892
    1BCK1    B1 1220   2.141   5.153   8.081
    1BCK1    B1 1221   2.268   5.223   8.277
    1BCK1    B1 1222   2.394   5.291   8.475
    1BCK1    B1 1223   2.530   5.332   8.674
    1BCK1    B1 1224   2.660   5.347   8.879
    1BCK1    B1 1225   3.555   3.196   9.409
    1BCK1    B1 1226   3.768   3.108   9.488
    1BCK1    B1 1227   3.893   3.045   9.691
    1BCK1    B1 1228   3.966   3.010   9.925
    1BCK1    B1 1229   4.057   2.982  10.157
    1BCK1    B1 1230   4.165   2.963  10.385
    1BCK1    B1 1231   4.282   2.952  10.611
    1BCK1    B1 1232   4.404   2.948  10.838
    1BCK1    B1 1233   4.527   2.950  11.068
    1BCK1    B1 1234   4.647   2.956  11.302
    1BCK1    B1 1235   4.761   2.964  11.543
    1BCK1    B1 1236   4.867   2.973  11.790
    1BCK1    B1 1237   4.962   2.982  12.044
    1BCK1    B1 1238   5.046   2.990  12.306
    1BCK1    B1 1239   5.119   2.997  12.574
    1BCK1    B1 1240   5.181   3.002  12.848
    1BCK1    B1 1241   5.233   3.006  13.127
    1BCK1    B1 1242   5.275   3.008  13.411
    1BCK1    B1 1243   2.624   5.712  19.616
    1BCK1    B1 1244   2.743   5.503  19.637
    1BCK1    B1 1245   2.862   5.289  19.625
    1BCK1    B1 1246   2.950   5.062  19.587
    1BCK1    B1 1247   3.007   4.839  19.498
    1BCK1    B1 1248   3.039   4.638  19.353
    1BCK1    B1 1249   3.055   4.470  19.167
    1BCK1    B1 1250   3.059   4.333  18.953
    1BCK1    B1 1251   3.057   4.222  18.721
    1BCK1    B1 1252   3.052   4.132  18.477
    1BCK1    B1 1253   3.045   4.059  18.224
    1BCK1    B1 1254   3.037   3.997  17.964
    1BCK1    B1 1255   3.030   3.944  17.699
    1BCK1    B1 1256   3.024   3.898  17.429
    1BCK1    B1 1257   3.019   3.857  17.155
    1BCK1    B1 1258   3.015   3.820  16.876
    1BCK1    B1 1259   3.013   3.787  16.594
    1BCK1    B1 1260   3.013   3.756  16.307
    1BCK1    B1 1261   2.987   8.125  20.238
    1BCK1    B1 1262   2.990   7.895  20.354
    1BCK1    B1 1263   2.999   7.656  20.457
    1BCK1    B1 1264   3.012   7.420  20.544
    1BCK1    B1 1265   3.031   7.173   0.001
    1BCK1    B1 1266   3.051   6.937   0.069
    1BCK1    B1 1267   3.062   6.687   0.134
    1BCK1    B1 1268   3.095   6.450   0.176
    1BCK1    B1 1269   3.146   6.198   0.197
    1BCK1    B1 1270   3.162   5.958   0.207
    1BCK1    B1 1271   3.154   5.701   0.198
    1BCK1    B1 1272   3.128   5.465   0.168
    1BCK1    B1 1273   3.087   5.219   0.113
    1BCK1    B1 1274   3.049   4.991   0.052
    1BCK1    B1 1275   3.014   4.750  20.607
    1BCK1    B1 1276   2.987   4.518  20.550
    1BCK1    B1 1277   2.969   4.273  20.512
    1BCK1    B1 1278   2.961   4.031  20.498
    1BCK1    B1 1279   2.683   5.811   3.606
    1BCK1    B1 1280   2.498   5.670   3.677
    1BCK1    B1 1281   2.340   5.500   3.750
    1BCK1    B1 1282   2.214   5.303   3.820
    1BCK1    B1 1283   2.106   5.095   3.888
    1BCK1    B1 1284   1.997   4.889   3.958
    1BCK1    B1 1285   1.879   4.692   4.039
    1BCK1    B1 1286   1.754   4.507   4.137
    1BCK1    B1 1287   1.623   4.338   4.253
    1BCK1    B1 1288   1.484   4.190   4.389
    1BCK1    B1 1289   1.338   4.078   4.548
    1BCK1    B1 1290   1.192   4.000   4.726
    1BCK1    B1 1291   1.048   3.943   4.914
    1BCK1    B1 1292   0.908   3.889   5.106
    1BCK1    B1 1293   0.778   3.832   5.304
    1BCK1    B1 1294   0.643   3.764   5.495
    1BCK1    B1 1295   0.462   3.687   5.638
    1BCK1    B1 1296   0.263   3.590   5.735
    1BCK1    B1 1297   3.590   6.174   8.616
    1BCK1    B1 1298   3.405   6.082   8.493
    1BCK1    B1 1299   3.250   6.059   8.307
    1BCK1    B1 1300   3.178   5.982   8.088
    1BCK1    B1 1301   3.072   5.972   7.869
    1BCK1    B1 1302   2.860   5.947   7.747
    1BCK1    B1 1303   2.639   5.842   7.766
    1BCK1    B1 1304   2.516   5.630   7.794
    1BCK1    B1 1305   2.457   5.440   7.644
    1BCK1    B1 1306   2.473   5.432   7.394
    1BCK1    B1 1307   2.542   5.607   7.232
    1BCK1    B1 1308   2.657   5.823   7.230
    1BCK1    B1 1309   2.864   5.952   7.226
    1BCK1    B1 1310   3.060   6.020   7.098
    1BCK1    B1 1311   3.156   6.130   6.903
    1BCK1    B1 1312   3.206   6.312   6.750
    1BCK1    B1 1313   3.258   6.420   6.538
    1BCK1    B1 1314   3.384   6.406   6.331
    1BCK1    B1 1315   3.428   8.580   6.246
    1BCK1    B1 1316   3.309   8.451   6.411
    1BCK1    B1 1317   3.195   8.321   6.582
    1BCK1    B1 1318   3.127   8.203   6.784
    1BCK1    B1 1319   3.097   8.073   6.987
    1BCK1    B1 1320   2.982   7.916   7.135
    1BCK1    B1 1321   2.782   7.786   7.186
    1BCK1    B1 1322   2.555   7.769   7.279
    1BCK1    B1 1323   2.458   7.730   7.504
    1BCK1    B1 1324   2.561   7.634   7.708
    1BCK1    B1 1325   2.741   7.475   7.763
    1BCK1    B1 1326   2.809   7.247   7.816
    1BCK1    B1 1327   2.835   7.053   7.961
    1BCK1    B1 1328   2.946   6.872   8.080
    1BCK1    B1 1329   3.101   6.694   8.138
    1BCK1    B1 1330   3.243   6.578   8.301
    1BCK1    B1 1331   3.328   6.585   8.530
    1BCK1    B1 1332   3.353   6.606   8.769
    1BCK1    B1 1333   6.086   0.403   0.511
    1BCK1    B1 1334   6.297   0.320   0.592
    1BCK1    B1 1335   6.493   0.221   0.697
    1BCK1    B1 1336   6.689   0.129   0.806
    1BCK1    B1 1337   6.882   0.022   0.908
    1BCK1    B1 1338   7.072  20.523   0.996
    1BCK1    B1 1339   7.266  20.386   1.047
    1BCK1    B1 1340   7.464  20.246   1.073
    1BCK1    B1 1341   7.670  20.160   1.171
    1BCK1    B1 1342   7.838  20.167   1.349
    1BCK1    B1 1343   7.925  20.262   1.556
    1BCK1    B1 1344   7.955  20.402   1.753
    1BCK1    B1 1345   7.994  20.540   1.949
    1BCK1    B1 1346   8.048   0.036   2.155
    1BCK1    B1 1347   8.132   0.108   2.371
    1BCK1    B1 1348   8.242   0.147   2.585
    1BCK1    B1 1349   8.356   0.260   2.768
    1BCK1    B1 1350   8.525   0.403   2.867
    1BCK1    B1 1351   3.761  19.870   9.722
    1BCK1    B1 1352   3.887  19.723   9.880
    1BCK1    B1 1353   4.012  19.578  10.046
    1BCK1    B1 1354   4.133  19.429  10.216
    1BCK1    B1 1355   4.248  19.273  10.390
    1BCK1    B1 1356   4.357  19.111  10.566
    1BCK1    B1 1357   4.459  18.940  10.744
    1BCK1    B1 1358   4.554  18.762  10.925
    1BCK1    B1 1359   4.641  18.578  11.108
    1BCK1    B1 1360   4.720  18.389  11.294
    1BCK1    B1 1361   4.793  18.194  11.484
    1BCK1    B1 1362   4.859  17.996  11.676
    1BCK1    B1 1363   4.918  17.793  11.872
    1BCK1    B1 1364   4.972  17.588  12.069
    1BCK1    B1 1365   5.021  17.379  12.271
    1BCK1    B1 1366   5.065  17.167  12.474
    1BCK1    B1 1367   5.105  16.953  12.680
    1BCK1    B1 1368   5.141  16.737  12.888
    1BCK1    B1 1369   2.480   9.532   2.269
    1BCK1    B1 1370   2.318   9.693   2.172
    1BCK1    B1 1371   2.162   9.863   2.077
    1BCK1    B1 1372   2.012  10.043   1.977
    1BCK1    B1 1373   1.872  10.228   1.872
    1BCK1    B1 1374   1.739  10.423   1.761
    1BCK1    B1 1375   1.617  10.621   1.647
    1BCK1    B1 1376   1.504  10.832   1.528
    1BCK1    B1 1377   1.405  11.047   1.410
    1BCK1    B1 1378   1.316  11.276   1.288
    1BCK1    B1 1379   1.242  11.508   1.169
    1BCK1    B1 1380   1.179  11.754   1.048
    1BCK1    B1 1381   1.132  12.001   0.929
    1BCK1    B1 1382   1.097  12.260   0.808
    1BCK1    B1 1383   1.076  12.520   0.689
    1BCK1    B1 1384   1.069  12.788   0.566
    1BCK1    B1 1385   1.074  13.056   0.442
    1BCK1    B1 1386   1.093  13.329   0.313
    1BCK1    B1 1387   6.343   3.207   3.599
    1BCK1    B1 1388   6.573   3.222   3.525
    1BCK1    B1 1389   6.759   3.182   3.373
    1BCK1    B1 1390   6.881   3.044   3.214
    1BCK1    B1 1391   7.049   2.940   3.071
    1BCK1    B1 1392   7.193   2.915   2.875
    1BCK1    B1 1393   7.220   2.909   2.633
    1BCK1    B1 1394   7.202   2.842   2.399
    1BCK1    B1 1395   7.346   2.775   2.209
    1BCK1    B1 1396   7.596   2.775   2.191
    1BCK1    B1 1397   7.761   2.843   2.364
    1BCK1    B1 1398   7.754   2.909   2.600
    1BCK1    B1 1399   7.773   2.917   2.842
    1BCK1    B1 1400   7.913   2.970   3.035
    1BCK1    B1 1401   8.082   3.064   3.183
    1BCK1    B1 1402   8.217   3.027   3.382
    1BCK1    B1 1403   8.363   2.878   3.506
    1BCK1    B1 1404   8.552   2.759   3.594
    1BCK1    B1 1405   6.402   5.341   6.114
    1BCK1    B1 1406   6.573   5.321   6.284
    1BCK1    B1 1407   6.704   5.260   6.480
    1BCK1    B1 1408   6.804   5.184   6.689
    1BCK1    B1 1409   6.896   5.106   6.901
    1BCK1    B1 1410   6.995   5.032   7.111
    1BCK1    B1 1411   7.111   4.959   7.312
    1BCK1    B1 1412   7.240   4.870   7.499
    1BCK1    B1 1413   7.369   4.748   7.665
    1BCK1    B1 1414   7.500   4.598   7.805
    1BCK1    B1 1415   7.646   4.438   7.916
    1BCK1    B1 1416   7.804   4.272   7.998
    1BCK1    B1 1417   7.959   4.094   8.058
    1BCK1    B1 1418   8.105   3.905   8.105
    1BCK1    B1 1419   8.250   3.715   8.154
    1BCK1    B1 1420   8.398   3.534   8.221
    1BCK1    B1 1421   8.547   3.369   8.322
    1BCK1    B1 1422   8.693   3.218   8.443
    1BCK1    B1 1423   5.528   6.205   2.387
    1BCK1    B1 1424   5.390   6.387   2.306
    1BCK1    B1 1425   5.254   6.578   2.241
    1BCK1    B1 1426   5.122   6.777   2.190
    1BCK1    B1 1427   5.007   6.980   2.115
    1BCK1    B1 1428   4.944   7.173   1.979
    1BCK1    B1 1429   4.956   7.326   1.788
    1BCK1    B1 1430   4.903   7.488   1.612
    1BCK1    B1 1431   4.753   7.653   1.507
    1BCK1    B1 1432   4.539   7.763   1.455
    1BCK1    B1 1433   4.327   7.836   1.352
    1BCK1    B1 1434   4.153   7.930   1.202
    1BCK1    B1 1435   3.998   8.032   1.035
    1BCK1    B1 1436   3.853   8.142   0.862
    1BCK1    B1 1437   3.717   8.265   0.689
    1BCK1    B1 1438   3.597   8.406   0.515
    1BCK1    B1 1439   3.498   8.563   0.340
    1BCK1    B1 1440   3.422   8.733   0.162
    1BCK1    B1 1441   5.576   8.881   2.384
    1BCK1    B1 1442   5.515   8.651   2.311
    1BCK1    B1 1443   5.421   8.434   2.229
    1BCK1    B1 1444   5.287   8.240   2.150
    1BCK1    B1 1445   5.130   8.063   2.075
    1BCK1    B1 1446   4.954   7.896   2.024
    1BCK1    B1 1447   4.756   7.749   2.017
    1BCK1    B1 1448   4.573   7.589   1.971
    1BCK1    B1 1449   4.455   7.421   1.833
    1BCK1    B1 1450   4.396   7.303   1.625
    1BCK1    B1 1451   4.304   7.224   1.410
    1BCK1    B1 1452   4.175   7.122   1.225
    1BCK1    B1 1453   4.037   7.017   1.048
    1BCK1    B1 1454   3.904   6.919   0.861
    1BCK1    B1 1455   3.783   6.832   0.662
    1BCK1    B1 1456   3.676   6.752   0.451
    1BCK1    B1 1457   3.589   6.678   0.228
    1BCK1    B1 1458   3.532   6.610  20.616
    1BCK1    B1 1459   8.568   6.593  19.841
    1BCK1    B1 1460   8.369   6.720  19.780
    1BCK1    B1 1461   8.184   6.857  19.690
    1BCK1    B1 1462   8.013   6.997  19.577
    1BCK1    B1 1463   7.853   7.137  19.444
    1BCK1    B1 1464   7.706   7.271  19.291
    1BCK1    B1 1465   7.572   7.400  19.118
    1BCK1    B1 1466   7.452   7.520  18.927
    1BCK1    B1 1467   7.344   7.631  18.721
    1BCK1    B1 1468   7.249   7.732  18.502
    1BCK1    B1 1469   7.165   7.824  18.271
    1BCK1    B1 1470   7.091   7.907  18.032
    1BCK1    B1 1471   7.025   7.981  17.784
    1BCK1    B1 1472   6.967   8.046  17.531
    1BCK1    B1 1473   6.914   8.104  17.271
    1BCK1    B1 1474   6.866   8.154  17.007
    1BCK1    B1 1475   6.821   8.198  16.738
    1BCK1    B1 1476   6.780   8.236  16.466
    1BCK1    B1 1477   5.707   9.487   9.708
    1BCK1    B1 1478   5.698   9.579   9.471
    1BCK1    B1 1479   5.736   9.710   9.258
    1BCK1    B1 1480   5.834   9.876   9.098
    1BCK1    B1 1481   5.978  10.060   9.007
    1BCK1    B1 1482   6.126  10.259   8.971
    1BCK1    B1 1483   6.236  10.485   8.962
    1BCK1    B1 1484   6.284  10.734   8.962
    1BCK1    B1 1485   6.278  10.989   8.963
    1BCK1    B1 1486   6.243  11.245   8.966
    1BCK1    B1 1487   6.196  11.503   8.970
    1BCK1    B1 1488   6.149  11.763   8.975
    1BCK1    B1 1489   6.105  12.028   8.979
    1BCK1    B1 1490   6.068  12.297   8.983
    1BCK1    B1 1491   6.039  12.571   8.987
    1BCK1    B1 1492   6.017  12.849   8.989
    1BCK1    B1 1493   6.002  13.131   8.990
    1BCK1    B1 1494   5.993  13.417   8.990
    1BCK1    B1 1495   9.120   8.575   3.297
    1BCK1    B1 1496   9.333   8.440   3.302
    1BCK1    B1 1497   9.506   8.261   3.286
    1BCK1    B1 1498   9.631   8.057   3.216
    1BCK1    B1 1499   9.733   7.883   3.071
    1BCK1    B1 1500   9.849   7.796   2.871
    1BCK1    B1 1501   9.990   7.824   2.671
    1BCK1    B1 1502  10.188   7.762   2.534
    1BCK1    B1 1503  10.320   7.547   2.544
    1BCK1    B1 1504  10.254   7.353   2.689
    1BCK1    B1 1505  10.064   7.309   2.843
    1BCK1    B1 1506   9.873   7.233   2.984
    1BCK1    B1 1507   9.669   7.127   3.088
    1BCK1    B1 1508   9.447   7.022   3.160
    1BCK1    B1 1509   9.210   6.929   3.208
    1BCK1    B1 1510   8.961   6.854   3.240
    1BCK1    B1 1511   8.702   6.798   3.259
    1BCK1    B1 1512   8.436   6.755   3.264
    1BCK1    B1 1513   9.243   0.254   6.546
    1BCK1    B1 1514   9.320   0.328   6.769
    1BCK1    B1 1515   9.238   0.463   6.960
    1BCK1    B1 1516   9.053   0.607   7.031
    1BCK1    B1 1517   8.868   0.733   7.125
    1BCK1    B1 1518   8.753   0.928   7.218
    1BCK1    B1 1519   8.685   1.162   7.204
    1BCK1    B1 1520   8.652   1.394   7.134
    1BCK1    B1 1521   8.584   1.617   7.213
    1BCK1    B1 1522   8.543   1.756   7.411
    1BCK1    B1 1523   8.587   1.841   7.635
    1BCK1    B1 1524   8.694   1.985   7.801
    1BCK1    B1 1525   8.824   2.183   7.857
    1BCK1    B1 1526   9.014   2.314   7.935
    1BCK1    B1 1527   9.190   2.351   8.100
    1BCK1    B1 1528   9.279   2.330   8.325
    1BCK1    B1 1529   9.345   2.294   8.554
    1BCK1    B1 1530   9.444   2.229   8.765
    1BCK1    B1 1531   9.362   0.654   8.524
    1BCK1    B1 1532   9.224   0.563   8.348
    1BCK1    B1 1533   9.114   0.398   8.207
    1BCK1    B1 1534   9.117   0.182   8.095
    1BCK1    B1 1535   9.090   0.027   7.908
    1BCK1    B1 1536   8.938  20.512   7.777
    1BCK1    B1 1537   8.749  20.357   7.780
    1BCK1    B1 1538   8.648  20.134   7.783
    1BCK1    B1 1539   8.601  19.949   7.623
    1BCK1    B1 1540   8.601  19.956   7.373
    1BCK1    B1 1541   8.636  20.156   7.228
    1BCK1    B1 1542   8.699  20.390   7.276
    1BCK1    B1 1543   8.877  20.560   7.274
    1BCK1    B1 1544   9.006   0.030   7.082
    1BCK1    B1 1545   8.958   0.014   6.841
    1BCK1    B1 1546   8.836   0.060   6.634
    1BCK1    B1 1547   8.793   0.138   6.406
    1BCK1    B1 1548   8.644   0.177   6.216
    1BCK1    B1 1549   9.487   3.254   2.822
    1BCK1    B1 1550   9.485   3.495   2.845
    1BCK1    B1 1551   9.379   3.709   2.895
    1BCK1    B1 1552   9.201   3.861   2.959
    1BCK1    B1 1553   9.021   4.016   3.009
    1BCK1    B1 1554   8.824   4.144   3.072
    1BCK1    B1 1555   8.602   4.177   3.164
    1BCK1    B1 1556   8.378   4.193   3.260
    1BCK1    B1 1557   8.213   4.364   3.330
    1BCK1    B1 1558   8.227   4.612   3.332
    1BCK1    B1 1559   8.399   4.766   3.241
    1BCK1    B1 1560   8.616   4.769   3.129
    1BCK1    B1 1561   8.836   4.834   3.049
    1BCK1    B1 1562   9.027   4.976   2.997
    1BCK1    B1 1563   9.214   5.120   2.940
    1BCK1    B1 1564   9.401   5.255   2.863
    1BCK1    B1 1565   9.515   5.461   2.796
    1BCK1    B1 1566   9.521   5.701   2.763
    1BCK1    B1 1567   8.481   8.677  20.278
    1BCK1    B1 1568   8.349   8.778  20.099
    1BCK1    B1 1569   8.217   8.869  19.912
    1BCK1    B1 1570   8.086   8.955  19.719
    1BCK1    B1 1571   7.953   9.027  19.520
    1BCK1    B1 1572   7.817   9.082  19.315
    1BCK1    B1 1573   7.682   9.117  19.104
    1BCK1    B1 1574   7.548   9.132  18.887
    1BCK1    B1 1575   7.419   9.131  18.664
    1BCK1    B1 1576   7.298   9.119  18.435
    1BCK1    B1 1577   7.186   9.099  18.200
    1BCK1    B1 1578   7.084   9.076  17.958
    1BCK1    B1 1579   6.992   9.052  17.709
    1BCK1    B1 1580   6.911   9.030  17.455
    1BCK1    B1 1581   6.840   9.011  17.195
    1BCK1    B1 1582   6.778   8.996  16.931
    1BCK1    B1 1583   6.724   8.986  16.662
    1BCK1    B1 1584   6.678   8.981  16.389
    1BCK1    B1 1585   9.449   2.361   9.562
    1BCK1    B1 1586   9.605   2.232   9.702
    1BCK1    B1 1587   9.757   2.115   9.860
    1BCK1    B1 1588   9.893   1.999  10.036
    1BCK1    B1 1589  10.001   1.878  10.229
    1BCK1    B1 1590  10.071   1.752  10.439
    1BCK1    B1 1591  10.098   1.623  10.661
    1BCK1    B1 1592  10.081   1.498  10.889
    1BCK1    B1 1593  10.025   1.379  11.118
    1BCK1    B1 1594   9.932   1.268  11.345
    1BCK1    B1 1595   9.810   1.165  11.568
    1BCK1    B1 1596   9.663   1.070  11.786
    1BCK1    B1 1597   9.495   0.983  11.999
    1BCK1    B1 1598   9.309   0.901  12.208
    1BCK1    B1 1599   9.107   0.824  12.412
    1BCK1    B1 1600   8.891   0.750  12.612
    1BCK1    B1 1601   8.662   0.679  12.809
    1BCK1    B1 1602   8.422   0.609  13.003
    1BCK1    B1 1603   7.972   6.111  20.320
    1BCK1    B1 1604   7.770   6.098  20.463
    1BCK1    B1 1605   7.542   6.066  20.553
    1BCK1    B1 1606   7.304   6.018  20.602
    1BCK1    B1 1607   7.065   5.960   0.008
    1BCK1    B1 1608   6.827   5.900   0.029
    1BCK1    B1 1609   6.586   5.845   0.047
    1BCK1    B1 1610   6.344   5.797   0.057
    1BCK1    B1 1611   6.103   5.749   0.036
    1BCK1    B1 1612   5.865   5.732  20.598
    1BCK1    B1 1613   5.631   5.734  20.516
    1BCK1    B1 1614   5.387   5.779  20.522
    1BCK1    B1 1615   5.162   5.857  20.592
    1BCK1    B1 1616   4.930   5.939  20.615
    1BCK1    B1 1617   4.693   6.010  20.600
    1BCK1    B1 1618   4.456   6.062  20.550
    1BCK1    B1 1619   4.227   6.087  20.455
    1BCK1    B1 1620   4.028   6.083  20.308
    1BCK1    B1 1621   0.309   6.010   3.397
    1BCK1    B1 1622   0.044   5.993   3.432
    1BCK1    B1 1623  23.213   5.983   3.498
    1BCK1    B1 1624  22.977   5.983   3.602
    1BCK1    B1 1625  22.774   5.995   3.755
    1BCK1    B1 1626  22.622   6.021   3.953
    1BCK1    B1 1627  22.530   6.065   4.181
    1BCK1    B1 1628  22.471   6.137   4.410
    1BCK1    B1 1629  22.380   6.230   4.620
    1BCK1    B1 1630  22.297   6.221   4.854
    1BCK1    B1 1631  22.370   6.120   5.071
    1BCK1    B1 1632  22.579   6.031   5.181
    1BCK1    B1 1633  22.825   5.986   5.235
    1BCK1    B1 1634  23.084   5.961   5.274
    1BCK1    B1 1635  23.351   5.946   5.304
    1BCK1    B1 1636   0.203   5.938   5.327
    1BCK1    B1 1637   0.485   5.939   5.349
    1BCK1    B1 1638   0.775   5.943   5.373
    1BCK1    B1 1639   8.307  19.819   0.093
    1BCK1    B1 1640   8.481  19.643   0.067
    1BCK1    B1 1641   8.418  19.401   0.029
    1BCK1    B1 1642   8.192  19.316  20.597
    1BCK1    B1 1643   7.966  19.263  20.516
    1BCK1    B1 1644   7.766  19.134  20.458
    1BCK1    B1 1645   7.565  18.983  20.459
    1BCK1    B1 1646   7.370  18.840  20.509
    1BCK1    B1 1647   7.221  18.634  20.529
    1BCK1    B1 1648   7.110  18.408  20.531
    1BCK1    B1 1649   7.020  18.162  20.520
    1BCK1    B1 1650   6.947  17.917  20.498
    1BCK1    B1 1651   6.882  17.658  20.463
    1BCK1    B1 1652   6.827  17.404  20.416
    1BCK1    B1 1653   6.776  17.141  20.353
    1BCK1    B1 1654   6.729  16.884  20.275
    1BCK1    B1 1655   6.684  16.624  20.178
    1BCK1    B1 1656   6.640  16.369  20.064
    1HEX     C0 1657   1.972  19.334  17.785
    1HB      S1 1658   5.173  20.328  15.485
    1HB      S2 1659   1.318  19.863  18.383
    1HB      S3 1660   1.088  19.955  15.651
    1HB      S4 1661   1.440  16.397  19.447
    1HB      S5 1662   1.137  20.049  19.237
    1HB      S6 1663   1.379  19.521  18.701
    1HEX     C0 1664  23.414   0.031   3.030
    1HB      S1 1665   0.360   0.008   3.021
    1HB      S2 1666  23.053   0.051   3.040
    1HB      S3 1667   0.022   0.382   3.093
    1HB      S4 1668  23.402  20.289   2.975
    1HB      S5 1669  23.417  20.589   3.394
    1HB      S6 1670  23.413   0.083   2.668
    1HEX     C0 1671   2.309   0.186   6.051
    1HB      S1 1672   5.357   0.389   6.242
    1HB      S2 1673   1.287   0.118   6.103
    1HB      S3 1674   1.657   0.380   5.958
    1HB      S4 1675   1.676  20.511   5.951
    1HB      S5 1676   1.668   0.127   6.384
    1HB      S6 1677   1.262   0.164   5.612
    1HEX     C0 1678   0.047  20.609   8.986
    1HB      S1 1679   0.417  20.517   9.037
    1HB      S2 1680  23.104   0.085   8.987
    1HB      S3 1681   0.154   0.279   8.860
    1HB      S4 1682  23.400  20.264   9.051
    1HB      S5 1683   0.030   0.066   9.341
    1HB      S6 1684  23.394  20.514   8.610
    1HEX     C0 1685   0.078   3.088  18.767
    1HB      S1 1686   0.360   3.022  19.336
    1HB      S2 1687  23.246   3.177  19.360
    1HB      S3 1688   0.208   3.432  19.522
    1HB      S4 1689  23.412   2.734  19.383
    1HB      S5 1690   0.095   3.101  19.837
    1HB      S6 1691   0.035   3.057  16.180
    1HEX     C0 1692   0.002   2.941   3.007
    1HB      S1 1693   0.357   2.963   3.038
    1HB      S2 1694  23.061   2.975   2.980
    1HB      S3 1695   0.002   3.322   3.040
    1HB      S4 1696   0.013   2.594   2.919
    1HB      S5 1697  23.385   2.883   3.362
    1HB      S6 1698   0.024   3.006   2.637
    1HEX     C0 1699   0.042   3.068   6.088
    1HB      S1 1700   0.268   3.328   6.155
    1HB      S2 1701  23.025   2.825   6.208
    1HB      S3 1702  23.256   3.477   6.008
    1HB      S4 1703   0.527   2.926   6.209
    1HB      S5 1704   0.018   2.997   6.433
    1HB      S6 1705   0.082   3.146   5.712
    1HEX     C0 1706   0.071   3.032   9.005
    1HB      S1 1707   0.462   3.033   9.038
    1HB      S2 1708  23.118   3.037   9.004
    1HB      S3 1709   0.072   3.382   8.924
    1HB      S4 1710   0.055   2.672   9.057
    1HB      S5 1711   0.061   3.092   9.357
    1HB      S6 1712   0.062   2.965   8.640
    1HEX     C0 1713   2.104   5.858  18.931
    1HB      S1 1714   5.122   5.646  19.753
    1HB      S2 1715   1.263   5.882  19.318
    1HB      S3 1716   1.637   6.162  19.261
    1HB      S4 1717   1.384   5.583  19.683
    1HB      S5 1718   1.556   6.027  19.700
    1HB      S6 1719   1.124   5.940  16.259
    1HEX     C0 1720   4.515   6.371   3.214
    1HB      S1 1721   6.424   6.611   2.855
    1HB      S2 1722   2.282   6.161   3.288
    1HB      S3 1723   6.180   6.523   3.648
    1HB      S4 1724   3.434   6.395   3.270
    1HB      S5 1725   6.455   6.513   3.294
    1HB      S6 1726   2.617   6.079   2.896
    1HEX     C0 1727  23.362   6.033   5.888
    1HB      S1 1728   0.374   5.902   5.839
    1HB      S2 1729  22.961   5.973   5.799
    1HB      S3 1730  23.161   6.403   5.946
    1HB      S4 1731  23.361   5.690   5.770
    1HB      S5 1732  23.186   6.006   6.249
    1HB      S6 1733   0.120   6.281   5.674
    1HEX     C0 1734   2.330   5.900  10.945
    1HB      S1 1735   1.919   6.032  10.267
    1HB      S2 1736   1.497   5.795  10.498
    1HB      S3 1737   1.539   6.161  10.077
    1HB      S4 1738   5.329   5.552  13.623
    1HB      S5 1739   1.353   6.253  10.486
    1HB      S6 1740   1.687   5.681  10.084
    1HEX     C0 1741   0.008   8.985   0.006
    1HB      S1 1742   0.374   8.978   0.009
    1HB      S2 1743  23.063   8.988   0.005
    1HB      S3 1744   0.008   9.352   0.005
    1HB      S4 1745   0.001   8.621   0.005
    1HB      S5 1746   0.008   8.984   0.372
    1HB      S6 1747   0.008   8.986  20.262
    1HEX     C0 1748   1.933   8.896   2.635
    1HB      S1 1749   5.023   8.616   2.473
    1HB      S2 1750   0.847   8.799   2.676
    1HB      S3 1751   0.854   9.317   2.598
    1HB      S4 1752   1.280   8.613   2.761
    1HB      S5 1753   1.131   9.048   2.913
    1HB      S6 1754   1.395   9.053   2.528
    1HEX     C0 1755   0.012   8.901   6.011
    1HB      S1 1756   0.387   8.975   5.930
    1HB      S2 1757  23.072   8.945   6.059
    1HB      S3 1758   0.018   9.279   6.091
    1HB      S4 1759  23.367   8.517   5.917
    1HB      S5 1760   0.135   8.789   6.322
    1HB      S6 1761  23.383   8.971   5.654
    1HEX     C0 1762   0.096   8.847   9.076
    1HB      S1 1763   0.425   8.969   9.186
    1HB      S2 1764  23.129   8.777   9.053
    1HB      S3 1765  23.280   9.204   9.108
    1HB      S4 1766   0.169   8.516   9.126
    1HB      S5 1767   0.015   8.901   9.451
    1HB      S6 1768   0.428   8.709   8.751
    1HEX     C0 1769   3.032  18.912  20.567
    1HB      S1 1770   3.269  19.364  20.462
    1HB      S2 1771   2.696  19.869   0.046
    1HB      S3 1772   3.165  19.749   0.081
    1HB      S4 1773   3.025  16.240  20.586
    1HB      S5 1774   2.905  19.373   0.197
    1HB      S6 1775   3.213  19.937  20.233
    1HEX     C0 1776   3.013  20.597   3.016
    1HB      S1 1777   3.377  20.591   3.058
    1HB      S2 1778   2.643  20.601   2.976
    1HB      S3 1779   3.015   0.344   3.012
    1HB      S4 1780   3.021  20.227   3.024
    1HB      S5 1781   2.964  20.602   3.368
    1HB      S6 1782   3.041  20.595   2.653
    1HEX     C0 1783   3.237  18.584   5.791
    1HB      S1 1784   3.505  19.220   5.854
    1HB      S2 1785   2.851  19.163   5.854
    1HB      S3 1786   3.148  19.542   5.874
    1HB      S4 1787   3.488  16.040   5.528
    1HB      S5 1788   3.178  19.192   6.205
    1HB      S6 1789   3.175  19.235   5.504
    1HEX     C0 1790   3.088  20.569   9.062
    1HB      S1 1791   3.429  20.357   9.346
    1HB      S2 1792   2.682  20.601   8.988
    1HB      S3 1793   3.054   0.317   9.067
    1HB      S4 1794   3.060  20.252   8.960
    1HB      S5 1795   2.954  20.482   9.411
    1HB      S6 1796   3.061   0.025   8.653
    1HEX     C0 1797   2.996   3.072  20.611
    1HB      S1 1798   3.358   3.060  20.613
    1HB      S2 1799   2.635   3.053  20.613
    1HB      S3 1800   2.983   3.471  20.570
    1HB      S4 1801   3.000   2.686  20.622
    1HB      S5 1802   2.997   3.063   0.353
    1HB      S6 1803   2.997   3.042  20.248
    1HEX     C0 1804   3.008   2.994   3.008
    1HB      S1 1805   3.379   3.021   2.986
    1HB      S2 1806   2.647   2.981   3.035
    1HB      S3 1807   3.010   3.367   3.009
    1HB      S4 1808   3.040   2.631   2.978
    1HB      S5 1809   3.026   2.976   3.370
    1HB      S6 1810   2.987   3.009   2.642
    1HEX     C0 1811   3.027   3.093   6.096
    1HB      S1 1812   3.384   3.171   6.084
    1HB      S2 1813   2.683   3.101   6.172
    1HB      S3 1814   3.010   3.497   6.129
    1HB      S4 1815   3.004   2.711   6.220
    1HB      S5 1816   3.080   3.128   6.483
    1HB      S6 1817   2.973   3.206   5.733
    1HEX     C0 1818   3.042   3.228  10.927
    1HB      S1 1819   3.412   3.196  10.129
    1HB      S2 1820   2.690   3.130  10.358
    1HB      S3 1821   2.996   3.485  10.243
    1HB      S4 1822   3.107   2.881  10.373
    1HB      S5 1823   3.021   3.475  13.523
    1HB      S6 1824   2.974   3.106   9.970
    1HEX     C0 1825   3.151   5.968  18.785
    1HB      S1 1826   3.527   5.978  19.606
    1HB      S2 1827   2.917   6.186  19.285
    1HB      S3 1828   3.264   6.369  19.730
    1HB      S4 1829   3.114   5.732  19.285
    1HB      S5 1830   3.034   5.952  19.682
    1HB      S6 1831   3.071   5.649  16.160
    1HEX     C0 1832   3.261   5.907   3.038
    1HB      S1 1833   3.696   6.033   3.209
    1HB      S2 1834   2.876   5.747   3.121
    1HB      S3 1835   3.417   6.210   2.805
    1HB      S4 1836   3.267   5.564   2.874
    1HB      S5 1837   3.187   5.891   3.459
    1HB      S6 1838   3.014   5.964   2.679
    1HEX     C0 1839   3.013   6.019   6.063
    1HB      S1 1840   3.382   6.061   5.950
    1HB      S2 1841   2.619   5.971   6.065
    1HB      S3 1842   2.927   6.350   6.144
    1HB      S4 1843   3.030   5.660   5.993
    1HB      S5 1844   3.179   5.946   6.388
    1HB      S6 1845   2.958   6.060   5.687
    1HEX     C0 1846   2.986   6.125   9.091
    1HB      S1 1847   3.327   6.131   9.004
    1HB      S2 1848   2.656   6.187   9.118
    1HB      S3 1849   3.034   6.525   9.106
    1HB      S4 1850   2.840   5.728   9.230
    1HB      S5 1851   3.109   6.159   9.465
    1HB      S6 1852   2.987   6.247   8.690
    1HEX     C0 1853   3.052  10.581  18.786
    1HB      S1 1854   3.229   9.934  19.183
    1HB      S2 1855   2.793  10.083  19.307
    1HB      S3 1856   3.200  10.218  19.566
    1HB      S4 1857   2.991   9.324  19.540
    1HB      S5 1858   3.140   9.658  19.854
    1HB      S6 1859   3.009  13.502  15.994
    1HEX     C0 1860   2.989   9.005   2.957
    1HB      S1 1861   3.350   9.056   2.989
    1HB      S2 1862   2.641   8.906   2.965
    1HB      S3 1863   2.945   9.360   3.045
    1HB      S4 1864   3.082   8.643   2.929
    1HB      S5 1865   2.982   8.944   3.340
    1HB      S6 1866   2.903   9.168   2.578
    1HEX     C0 1867   3.026   8.972   6.019
    1HB      S1 1868   3.388   9.014   5.995
    1HB      S2 1869   2.656   8.966   6.027
    1HB      S3 1870   3.001   9.344   6.021
    1HB      S4 1871   3.030   8.609   6.008
    1HB      S5 1872   3.047   8.954   6.381
    1HB      S6 1873   3.009   8.979   5.649
    1HEX     C0 1874   2.874  12.036  10.582
    1HB      S1 1875   3.247  10.435   9.695
    1HB      S2 1876   2.729  11.260  10.351
    1HB      S3 1877   2.949  14.070   9.861
    1HB      S4 1878   2.775  10.445   9.721
    1HB      S5 1879   2.528  14.285  13.521
    1HB      S6 1880   3.031  11.351  10.003
    1HEX     C0 1881   6.045  20.554  20.604
    1HB      S1 1882   6.390   0.001   0.024
    1HB      S2 1883   5.665  20.583  20.618
    1HB      S3 1884   6.008   0.338   0.013
    1HB      S4 1885   6.242  20.166  20.378
    1HB      S5 1886   6.015  20.580   0.364
    1HB      S6 1887   6.027   0.006  20.254
    1HEX     C0 1888   6.178  18.723   3.200
    1HB      S1 1889   6.431  19.377   3.152
    1HB      S2 1890   5.792  19.336   3.127
    1HB      S3 1891   6.140  19.783   3.164
    1HB      S4 1892   6.437  16.122   3.450
    1HB      S5 1893   6.098  19.345   3.485
    1HB      S6 1894   6.119  19.358   2.790
    1HEX     C0 1895   5.922  20.604   6.016
    1HB      S1 1896   6.287  20.592   6.037
    1HB      S2 1897   5.559  20.608   5.998
    1HB      S3 1898   5.922   0.345   6.047
    1HB      S4 1899   5.912  20.238   5.992
    1HB      S5 1900   5.903  20.580   6.385
    1HB      S6 1901   5.957   0.016   5.647
    1HEX     C0 1902   5.971  18.688   8.960
    1HB      S1 1903   6.328  19.615   8.920
    1HB      S2 1904   5.601  19.226   8.965
    1HB      S3 1905   5.855  19.623   8.973
    1HB      S4 1906   5.961  16.140   8.979
    1HB      S5 1907   6.030  19.249   9.212
    1HB      S6 1908   6.013  19.260   8.699
    1HEX     C0 1909   5.846   3.012  18.617
    1HB      S1 1910   6.247   3.011  19.215
    1HB      S2 1911   5.567   3.011  19.242
    1HB      S3 1912   5.908   3.352  19.230
    1HB      S4 1913   5.908   2.671  19.227
    1HB      S5 1914   5.919   3.010  19.569
    1HB      S6 1915   5.595   3.014  16.119
    1HEX     C0 1916   6.006   3.044   3.065
    1HB      S1 1917   6.352   3.081   3.097
    1HB      S2 1918   5.635   3.033   2.993
    1HB      S3 1919   5.984   3.409   3.022
    1HB      S4 1920   6.007   2.679   3.077
    1HB      S5 1921   5.920   3.049   3.409
    1HB      S6 1922   6.049   3.011   2.691
    1HEX     C0 1923   5.969   3.003   6.060
    1HB      S1 1924   6.347   2.959   6.008
    1HB      S2 1925   5.554   3.047   6.047
    1HB      S3 1926   5.993   3.359   6.039
    1HB      S4 1927   5.921   2.657   6.038
    1HB      S5 1928   6.089   3.040   6.428
    1HB      S6 1929   5.957   3.008   5.675
    1HEX     C0 1930   5.694   2.828  10.858
    1HB      S1 1931   6.035   2.994  10.316
    1HB      S2 1932   5.383   2.882  10.056
    1HB      S3 1933   5.724   3.204   9.956
    1HB      S4 1934   5.740   2.603  10.370
    1HB      S5 1935   5.484   2.541  13.511
    1HB      S6 1936   5.855   2.748   9.944
    1HEX     C0 1937   6.107   6.028  18.888
    1HB      S1 1938   6.383   6.060  19.444
    1HB      S2 1939   5.725   5.922  19.928
    1HB      S3 1940   5.947   6.273  19.454
    1HB      S4 1941   5.979   5.792  19.451
    1HB      S5 1942   6.155   6.110  19.922
    1HB      S6 1943   6.393   6.018  16.212
    1HEX     C0 1944   6.060   5.940   2.984
    1HB      S1 1945   6.443   5.774   2.915
    1HB      S2 1946   5.718   6.045   3.087
    1HB      S3 1947   6.203   6.199   2.992
    1HB      S4 1948   5.968   5.622   2.953
    1HB      S5 1949   6.109   5.906   3.378
    1HB      S6 1950   5.914   6.035   2.621
    1HEX     C0 1951   5.982   5.871   6.003
    1HB      S1 1952   6.360   5.821   5.945
    1HB      S2 1953   5.608   5.939   6.048
    1HB      S3 1954   6.019   6.232   5.957
    1HB      S4 1955   5.978   5.523   6.105
    1HB      S5 1956   5.980   5.956   6.385
    1HB      S6 1957   5.891   5.736   5.660
    1HEX     C0 1958   5.959   6.034   9.028
    1HB      S1 1959   6.349   6.032   9.050
    1HB      S2 1960   5.556   6.055   9.024
    1HB      S3 1961   5.974   6.390   9.000
    1HB      S4 1962   5.960   5.675   9.050
    1HB      S5 1963   5.984   6.060   9.396
    1HB      S6 1964   6.011   6.004   8.669
    1HEX     C0 1965   5.833  12.136  17.288
    1HB      S1 1966   6.163  11.427  18.051
    1HB      S2 1967   5.510  14.299  15.234
    1HB      S3 1968   6.246  14.093  18.856
    1HB      S4 1969   5.769  11.174  17.967
    1HB      S5 1970   5.766  11.515  18.298
    1HB      S6 1971   5.557  10.294  15.352
    1HEX     C0 1972   5.723  10.749   2.938
    1HB      S1 1973   6.010  10.185   2.838
    1HB      S2 1974   5.532  10.170   2.920
    1HB      S3 1975   5.511  13.420   2.972
    1HB      S4 1976   5.803   9.694   3.018
    1HB      S5 1977   5.833  10.143   3.294
    1HB      S6 1978   5.693   9.816   2.580
    1HEX     C0 1979   5.984   8.956   5.983
    1HB      S1 1980   6.351   9.046   5.947
    1HB      S2 1981   5.603   8.953   5.943
    1HB      S3 1982   5.952   9.330   5.996
    1HB      S4 1983   6.101   8.610   5.925
    1HB      S5 1984   5.887   8.816   6.331
    1HB      S6 1985   5.970   8.975   5.606
    1HEX     C0 1986   6.157   8.851  12.303
    1HB      S1 1987   6.464   8.500  14.232
    1HB      S2 1988   5.814   8.906  11.483
    1HB      S3 1989   5.892   9.180  10.899
    1HB      S4 1990   6.234   8.692  11.597
    1HB      S5 1991   6.367   8.968  14.194
    1HB      S6 1992   6.156   8.836  11.163
    1HEX     C0 1993   6.656  18.792   0.268
    1HB      S1 1994   7.618  19.615   0.156
    1HB      S2 1995   3.657  16.079   0.531
    1HB      S3 1996   7.129  19.612   0.209
    1HB      S4 1997   7.517  19.196   0.258
    1HB      S5 1998   7.319  19.448   0.601
    1HB      S6 1999   7.302  19.385  20.468
    1HEX     C0 2000   8.958  20.617   3.036
    1HB      S1 2001   9.327  20.619   2.979
    1HB      S2 2002   8.621  20.614   3.129
    1HB      S3 2003   8.987   0.347   3.100
    1HB      S4 2004   8.960  20.264   2.945
    1HB      S5 2005   9.034  20.520   3.389
    1HB      S6 2006   8.851   0.084   2.688
    1HEX     C0 2007   6.999   0.048   6.017
    1HB      S1 2008   8.217   0.026   6.331
    1HB      S2 2009   3.910   0.041   5.769
    1HB      S3 2010   7.992   0.153   5.929
    1HB      S4 2011   7.655  20.403   5.955
    1HB      S5 2012   7.756   0.113   6.315
    1HB      S6 2013   7.535   0.251   5.882
    1HEX     C0 2014   9.384   0.355   8.889
    1HB      S1 2015  13.926   0.590   8.543
    1HB      S2 2016   5.136   0.496   8.976
    1HB      S3 2017   9.023   0.524   8.968
    1HB      S4 2018   9.197  20.469   8.976
    1HB      S5 2019   9.161   0.201   9.298
    1HB      S6 2020   9.142   0.179   8.640
    1HEX     C0 2021   9.023   3.045  20.597
    1HB      S1 2022   9.377   2.987  20.560
    1HB      S2 2023   8.655   3.050   0.004
    1HB      S3 2024   9.141   3.429  20.522
    1HB      S4 2025   8.992   2.660  20.616
    1HB      S5 2026   9.050   3.046   0.334
    1HB      S6 2027   8.984   3.017  20.236
    1HEX     C0 2028   8.950   3.072   3.141
    1HB      S1 2029   9.198   3.353   3.338
    1HB      S2 2030   8.613   3.052   3.106
    1HB      S3 2031   9.008   3.318   2.880
    1HB      S4 2032   9.071   2.773   3.197
    1HB      S5 2033   8.807   3.157   3.534
    1HB      S6 2034   8.854   2.813   2.765
    1HEX     C0 2035   9.009   3.009   6.026
    1HB      S1 2036   9.372   3.003   6.018
    1HB      S2 2037   8.639   3.011   6.007
    1HB      S3 2038   9.017   3.372   6.047
    1HB      S4 2039   9.005   2.641   6.012
    1HB      S5 2040   8.982   2.992   6.387
    1HB      S6 2041   9.011   3.017   5.655
    1HEX     C0 2042   9.080   2.881   8.960
    1HB      S1 2043   9.407   3.050   8.917
    1HB      S2 2044   8.771   2.725   8.987
    1HB      S3 2045   8.914   3.209   8.866
    1HB      S4 2046   9.286   2.575   8.988
    1HB      S5 2047   9.120   2.814   9.371
    1HB      S6 2048   9.084   2.807   8.585
    1HEX     C0 2049   8.790   6.085  18.821
    1HB      S1 2050   9.205   6.037  19.394
    1HB      S2 2051   8.448   6.105  19.661
    1HB      S3 2052   8.811   6.320  19.406
    1HB      S4 2053   8.782   5.820  19.422
    1HB      S5 2054   9.013   6.231  19.899
    1HB      S6 2055   8.553   6.040  16.176
    1HEX     C0 2056   9.024   5.988   3.001
    1HB      S1 2057   9.365   6.140   3.003
    1HB      S2 2058   8.658   5.871   2.988
    1HB      S3 2059   8.887   6.309   3.072
    1HB      S4 2060   9.104   5.645   2.998
    1HB      S5 2061   9.035   5.959   3.383
    1HB      S6 2062   9.038   6.009   2.639
    1HEX     C0 2063   6.815   6.021   5.833
    1HB      S1 2064   7.801   5.854   5.923
    1HB      S2 2065   3.869   6.005   5.611
    1HB      S3 2066   7.879   6.327   5.984
    1HB      S4 2067   7.367   5.690   5.833
    1HB      S5 2068   7.423   6.095   6.108
    1HB      S6 2069   7.557   6.099   5.610
    1HEX     C0 2070   8.982   5.962   9.006
    1HB      S1 2071   9.346   5.975   9.018
    1HB      S2 2072   8.610   5.983   9.003
    1HB      S3 2073   8.988   6.334   8.999
    1HB      S4 2074   8.956   5.601   9.017
    1HB      S5 2075   8.963   5.968   9.373
    1HB      S6 2076   8.998   5.945   8.642
    1HEX     C0 2077   8.969   8.982  20.605
    1HB      S1 2078   9.338   8.988  20.601
    1HB      S2 2079   8.602   8.983  20.610
    1HB      S3 2080   8.972   9.349  20.602
    1HB      S4 2081   8.971   8.618  20.611
    1HB      S5 2082   8.978   8.989   0.350
    1HB      S6 2083   8.952   8.971  20.239
    1HEX     C0 2084   6.901   9.005   3.100
    1HB      S1 2085   8.099   8.950   3.234
    1HB      S2 2086   3.812   9.186   3.149
    1HB      S3 2087   7.568   9.336   3.116
    1HB      S4 2088   7.934   8.633   2.940
    1HB      S5 2089   7.530   8.894   3.301
    1HB      S6 2090   7.524   8.958   2.823
    1HEX     C0 2091   7.170   9.136   6.198
    1HB      S1 2092   8.043   9.279   6.314
    1HB      S2 2093   7.673   9.124   6.101
    1HB      S3 2094   7.865   9.443   5.829
    1HB      S4 2095   7.960   8.820   6.326
    1HB      S5 2096   3.989   9.111   6.418
    1HB      S6 2097   8.168   8.763   5.892
    1HEX     C0 2098   6.861  10.760  10.645
    1HB      S1 2099   7.698  10.288  10.326
    1HB      S2 2100   3.787   9.908   9.642
    1HB      S3 2101   7.366  10.505  10.066
    1HB      S4 2102   7.289  10.062  10.233
    1HB      S5 2103   7.465  13.611  13.553
    1HB      S6 2104   7.907   9.835   9.677
  23.42295  20.62295  20.62295
