My System
77184
    1STR   BCK1    1   0.860  60.042   0.017
    1STR    O03    2   0.825  60.056  60.060
    1STR    N04    3   0.986  60.012   0.055
    1STR    C05    4   1.085  59.951  60.136
    1STR    C06    5   1.221  59.997  60.134
    1STR    C07    6   1.323  59.928  60.061
    1STR    N08    7   1.458  59.970  60.063
    1STR    C09    8   1.569  59.900  60.029
    1STR    O0A    9   1.569  59.782  59.996
    1STR    O0B   10   1.684  59.974  60.036
    1STR    C0C   11   1.809  59.917  59.989
    1STR    C0D   12   1.821  59.941  59.837
    1STR    C0E   13   1.933  59.973  60.063
    1STR    O0F   14   2.052  59.909  60.015
    1STR    C0G   15   2.175  59.945  60.079
    1STR    C0H   16   2.185  59.873   0.055
    1STR    C0I   17   2.295  59.906  59.989
    1STR    O0J   18   2.418  59.948  60.049
    1STR    C0K   19  13.288  59.746   0.204
    1STR    C0M   20  13.293  59.818   0.068
    1STR    C0N   21  13.408  59.790   0.291
    1STR    O0O   22  13.530  59.737   0.238
    1STR    C0P   23  13.639  59.813   0.221
    1STR    O0Q   24  13.647  59.933   0.245
    1STR    N0R   25  13.738  59.738   0.171
    1STR    C0S   26  13.867  59.769   0.126
    1STR    C0T   27  13.928  59.673   0.042
    1STR    C0U   28  14.052  59.699  60.142
    1STR    C0V   29  14.120  59.820   0.006
    1STR    C0W   30  14.243  59.849  60.081
    1STR    C0X   31  14.067  59.913   0.098
    1STR    N0Y   32  14.129  60.036   0.123
    1STR   BCK2   33  14.254  60.071   0.160
    1STR    O10   34  14.282   0.030   0.168
    1STR    C13   35  13.938  59.888   0.154
    1STR    C14   36   1.283  59.815  59.986
    1STR    C15   37   1.152  59.767  59.991
    1STR    C16   38   1.054  59.831  60.068
    1STR    C17   39   0.919  59.763  60.080
    1STR    H1B   40   1.005  60.025   0.153
    1STR    H1C   41   1.247  60.086   0.029
    1STR    H1D   42   1.480  60.064  60.093
    1STR    H1E   43   1.809  59.810  60.007
    1STR    H1F   44   1.824  60.047  59.813
    1STR    H1G   45   1.911  59.894  59.798
    1STR    H1H   46   1.736  59.896  59.784
    1STR    H1I   47   1.921  59.955   0.010
    1STR    H1J   48   1.941  60.081  60.049
    1STR    H1K   49   2.179  60.053  60.094
    1STR    H1M   50   2.178  59.765   0.042
    1STR    H1N   51   2.107  59.904   0.124
    1STR    H1O   52   2.281  59.894   0.103
    1STR    H1P   53   2.296  59.798  59.973
    1STR    H1Q   54   2.283  59.952  59.891
    1STR   C010   55   2.539  59.913  59.980
    1STR   H011   56   2.534  59.808  59.947
    1STR   C012   57   2.558  60.004  59.858
    1STR   H013   58   2.558  60.109  59.887
    1STR   H014   59   2.480  59.990  59.783
    1STR   H015   60   2.653  59.984  59.809
    1STR   C016   61   2.658  59.927  60.078
    1STR   H017   62   2.664  60.030  60.113
    1STR   H018   63   2.639  59.864   0.005
    1STR   O019   64   2.780  59.888  60.015
    1STR   C020   65   2.898  59.901  60.096
    1STR   H021   66   2.896  59.996  60.149
    1STR   C022   67   2.906  59.785   0.036
    1STR   H023   68   2.904  59.689  60.145
    1STR   H024   69   2.824  59.787   0.108
    1STR   H025   70   2.999  59.789   0.093
    1STR   C026   71   3.022  59.903  60.003
    1STR   H027   72   3.028  59.809  59.948
    1STR   H028   73   3.010  59.982  59.929
    1STR   O029   74   3.140  59.923  60.080
    1STR   C030   75   3.263  59.922  60.006
    1STR   H031   76   3.263  59.840  59.934
    1STR   C032   77   3.281  60.056  59.933
    1STR   H033   78   3.277  60.140  60.003
    1STR   H034   79   3.205  60.072  59.857
    1STR   H035   80   3.378  60.060  59.883
    1STR   C036   81   3.378  59.897  60.105
    1STR   H037   82   3.383  59.977   0.019
    1STR   H038   83   3.359  59.804  60.160
    1STR   O039   84   3.502  59.887  60.035
    1STR   C040   85   3.618  59.868  60.116
    1STR   H041   86   3.614  59.934   0.043
    1STR   C042   87   3.627  59.721   0.001
    1STR   H043   88   3.626  59.654  60.075
    1STR   H044   89   3.545  59.693   0.067
    1STR   H045   90   3.719  59.703   0.056
    1STR   C046   91   3.741  59.908  60.032
    1STR   H047   92   3.749  59.843  59.944
    1STR   H048   93   3.728  60.010  59.996
    1STR   O049   94   3.859  59.898  60.112
    1STR   C050   95   3.981  59.929  60.045
    1STR   H051   96   3.982  59.882  59.946
    1STR   C052   97   3.997  60.081  60.032
    1STR   H053   98   3.992  60.130  60.129
    1STR   H054   99   3.921  60.125  59.968
    1STR   H055  100   4.094  60.106  59.988
    1STR   C056  101   4.096  59.868  60.127
    1STR   H057  102   4.099  59.913   0.066
    1STR   H058  103   4.077  59.761  60.141
    1STR   O059  104   4.220  59.888  60.059
    1STR   C060  105   4.336  59.839  60.126
    1STR   H061  106   4.331  59.864   0.072
    1STR   C062  107   4.346  59.687  60.109
    1STR   H063  108   4.347  59.659  60.003
    1STR   H064  109   4.264  59.634  60.157
    1STR   H065  110   4.439  59.649  60.153
    1STR   C066  111   4.458  59.911  60.067
    1STR   H067  112   4.467  59.887  59.961
    1STR   H068  113   4.443  60.019  60.074
    1STR   O069  114   4.575  59.872  60.138
    1STR   C070  115   4.697  59.929  60.089
    1STR   H071  116   4.699  59.926  59.980
    1STR   C072  117   4.710  60.074  60.139
    1STR   H073  118   4.704  60.079   0.087
    1STR   H074  119   4.634  60.139  60.097
    1STR   H075  120   4.807  60.116  60.110
    1STR   C076  121   4.812  59.841  60.141
    1STR   H077  122   4.814  59.843   0.090
    1STR   H078  123   4.795  59.738  60.111
    1STR   O079  124   4.936  59.889  60.088
    1STR   C080  125   5.052  59.819  60.132
    1STR   H081  126   5.046  59.799   0.079
    1STR   C082  127   5.065  59.686  60.055
    1STR   H083  128   5.066  59.703  59.947
    1STR   H084  129   4.984  59.617  60.077
    1STR   H085  130   5.158  59.635  60.081
    1STR   C086  131   5.173  59.910  60.107
    1STR   H087  132   5.183  59.930  60.001
    1STR   H088  133   5.156  60.006  60.157
    1STR   O089  134   5.291  59.848  60.158
    1STR   C090  135   5.411  59.920  60.138
    1STR   H091  136   5.414  59.961  60.037
    1STR   C092  137   5.422  60.034   0.081
    1STR   H093  138   5.415  59.995   0.183
    1STR   H094  139   5.344  60.109   0.068
    1STR   H095  140   5.518  60.085   0.072
    1STR   C096  141   5.528  59.821  60.152
    1STR   H097  142   5.529  59.779   0.092
    1STR   H098  143   5.512  59.738  60.083
    1STR   O099  144   5.651  59.887  60.123
    1STR   C100  145   5.767  59.807  60.136
    1STR   H101  146   5.761  59.746   0.067
    1STR   C102  147   5.783  59.716  60.013
    1STR   H103  148   5.784  59.775  59.921
    1STR   H104  149   5.702  59.643  60.005
    1STR   H105  150   5.876  59.660  60.018
    1STR   C106  151   5.887  59.902  60.151
    1STR   H107  152   5.897  59.963  60.061
    1STR   H108  153   5.868  59.970   0.074
    1STR   O109  154   6.006  59.826   0.014
    1STR   C110  155   6.125  59.903   0.026
    1STR   H111  156   6.128  59.981  60.109
    1STR   C112  157   6.134  59.965   0.166
    1STR   H113  158   6.126  59.889   0.243
    1STR   H114  159   6.055  60.039   0.183
    1STR   H115  160   6.229  60.017   0.179
    1STR   C116  161   6.243  59.808  60.160
    1STR   H117  162   6.245  59.729   0.075
    1STR   H118  163   6.229  59.759  60.063
    1STR   O119  164   6.365  59.882   0.001
    1STR   C120  165   6.483  59.804  60.142
    1STR   H121  166   6.478  59.712   0.041
    1STR   C122  167   6.500  59.771  59.993
    1STR   H123  168   6.501  59.861  59.932
    1STR   H124  169   6.421  59.706  59.956
    1STR   H125  170   6.595  59.719  59.976
    1STR   C126  171   6.601  59.887   0.035
    1STR   H127  172   6.611  59.979  60.137
    1STR   H128  173   6.581  59.916   0.138
    1STR   O129  174   6.721  59.810   0.027
    1STR   C130  175   6.839  59.877   0.070
    1STR   H131  176   6.840  59.979   0.031
    1STR   C132  177   6.846  59.879   0.223
    1STR   H133  178   6.839  59.778   0.264
    1STR   H134  179   6.765  59.938   0.267
    1STR   H135  180   6.940  59.922   0.257
    1STR   C136  181   6.958  59.802   0.009
    1STR   H137  182   6.961  59.700   0.047
    1STR   H138  183   6.945  59.796  60.061
    1STR   O139  184   7.079  59.871   0.041
    1STR   C140  185   7.198  59.809  60.154
    1STR   H141  186   7.194  59.701   0.011
    1STR   C142  187   7.217  59.838  60.004
    1STR   H143  188   7.216  59.946  59.985
    1STR   H144  189   7.139  59.793  59.943
    1STR   H145  190   7.312  59.799  59.968
    1STR   C146  191   7.315  59.865   0.077
    1STR   H147  192   7.323  59.973   0.061
    1STR   H148  193   7.294  59.850   0.183
    1STR   O149  194   7.436  59.799   0.040
    1STR   C150  195   7.553  59.845   0.107
    1STR   H151  196   7.553  59.954   0.112
    1STR   C152  197   7.559  59.785   0.248
    1STR   H153  198   7.554  59.677   0.245
    1STR   H154  199   7.478  59.821   0.311
    1STR   H155  200   7.652  59.813   0.297
    1STR   C156  201   7.673  59.802   0.022
    1STR   H157  202   7.678  59.693   0.016
    1STR   H158  203   7.661  59.839  60.080
    1STR   O159  204   7.793  59.854   0.080
    1STR   C160  205   7.913  59.818   0.013
    1STR   H161  206   7.911  59.712  60.146
    1STR   C162  207   7.932  59.905  60.048
    1STR   H163  208   7.930  60.011  60.073
    1STR   H164  209   7.855  59.886  59.973
    1STR   H165  210   8.028  59.884  60.000
    1STR   C166  211   8.029  59.838   0.113
    1STR   H167  212   8.035  59.943   0.142
    1STR   H168  213   8.007  59.781   0.204
    1STR   O169  214   8.151  59.794   0.054
    1STR   C170  215   8.267  59.811   0.135
    1STR   H171  216   8.265  59.909   0.183
    1STR   C172  217   8.273  59.700   0.241
    1STR   H173  218   8.270  59.601   0.195
    1STR   H174  219   8.191  59.706   0.312
    1STR   H175  220   8.366  59.706   0.298
    1STR   C176  221   8.388  59.806   0.041
    1STR   H177  222   8.394  59.709  60.152
    1STR   H178  223   8.376  59.881  60.123
    1STR   O179  224   8.507  59.832   0.116
    1STR   C180  225   8.628  59.827   0.042
    1STR   H181  226   8.627  59.741  60.135
    1STR   C182  227   8.646  59.957  60.122
    1STR   H183  228   8.642  60.044   0.027
    1STR   H184  229   8.569  59.969  60.045
    1STR   H185  230   8.742  59.958  60.071
    1STR   C186  231   8.743  59.808   0.143
    1STR   H187  232   8.747  59.893   0.211
    1STR   H188  233   8.722  59.719   0.203
    1STR   O189  234   8.866  59.792   0.072
    1STR   C190  235   8.981  59.777   0.154
    1STR   H191  236   8.977  59.847   0.238
    1STR   C192  237   8.989  59.633   0.207
    1STR   H193  238   8.988  59.561   0.125
    1STR   H194  239   8.906  59.609   0.274
    1STR   H195  240   9.081  59.617   0.263
    1STR   C196  241   9.103  59.812   0.068
    1STR   H197  242   9.111  59.743  60.144
    1STR   H198  243   9.090  59.912   0.026
    1STR   O199  244   9.221  59.807   0.148
    1STR   C200  245   9.342  59.834   0.079
    1STR   H201  246   9.343  59.783  60.143
    1STR   C202  247   9.358  59.986   0.058
    1STR   H203  248   9.353  60.039   0.153
    1STR   H204  249   9.282  60.026  60.152
    1STR   H205  250   9.455  60.008   0.013
    1STR   C206  251   9.457  59.777   0.165
    1STR   H207  252   9.460  59.828   0.261
    1STR   H208  253   9.437  59.672   0.184
    1STR   O209  254   9.580  59.793   0.095
    1STR   C210  255   9.696  59.748   0.166
    1STR   H211  256   9.691  59.779   0.270
    1STR   C212  257   9.706  59.595   0.156
    1STR   H213  258   9.706  59.562   0.053
    1STR   H214  259   9.624  59.545   0.208
    1STR   H215  260   9.798  59.559   0.202
    1STR   C216  261   9.818  59.816   0.102
    1STR   H217  262   9.827  59.786  60.157
    1STR   H218  263   9.803  59.924   0.103
    1STR   O219  264   9.935  59.781   0.175
    1STR   C220  265  10.057  59.835   0.124
    1STR   H221  266  10.059  59.827   0.015
    1STR   C222  267  10.070  59.983   0.165
    1STR   H223  268  10.063  59.994   0.273
    1STR   H224  269   9.993  60.045   0.120
    1STR   H225  270  10.166  60.023   0.134
    1STR   C226  271  10.172  59.751   0.180
    1STR   H227  272  10.174  59.758   0.289
    1STR   H228  273  10.154  59.646   0.156
    1STR   O229  274  10.295  59.795   0.124
    1STR   C230  275  10.411  59.727   0.172
    1STR   H231  276  10.405  59.713   0.280
    1STR   C232  277  10.423  59.590   0.102
    1STR   H233  278  10.424  59.601  60.154
    1STR   H234  279  10.342  59.523   0.128
    1STR   H235  280  10.516  59.540   0.131
    1STR   C236  281  10.532  59.816   0.142
    1STR   H237  282  10.542  59.831   0.034
    1STR   H238  283  10.516  59.914   0.186
    1STR   O239  284  10.650  59.757   0.196
    1STR   C240  285  10.771  59.828   0.172
    1STR   H241  286  10.774  59.864   0.068
    1STR   C242  287  10.781  59.947   0.269
    1STR   H243  288  10.774  59.914   0.372
    1STR   H244  289  10.704  60.021   0.251
    1STR   H245  290  10.877  59.998   0.257
    1STR   C246  291  10.887  59.729   0.191
    1STR   H247  292  10.889  59.693   0.294
    1STR   H248  293  10.871  59.643   0.126
    1STR   O249  294  11.010  59.794   0.159
    1STR   C250  295  11.127  59.714   0.176
    1STR   H251  296  11.121  59.658   0.270
    1STR   C252  297  11.142  59.617   0.058
    1STR   H253  298  11.143  59.670  60.123
    1STR   H254  299  11.061  59.544   0.054
    1STR   H255  300  11.235  59.561   0.065
    1STR   C256  301  11.247  59.809   0.185
    1STR   H257  302  11.257  59.866   0.092
    1STR   H258  303  11.229  59.881   0.265
    1STR   O259  304  11.366  59.735   0.212
    1STR   C260  305  11.486  59.811   0.220
    1STR   H261  306  11.489  59.885   0.139
    1STR   C262  307  11.494  59.882   0.356
    1STR   H263  308  11.486  59.810   0.438
    1STR   H264  309  11.415  59.956   0.369
    1STR   H265  310  11.589  59.934   0.367
    1STR   C266  311  11.604  59.715   0.199
    1STR   H267  312  11.605  59.640   0.279
    1STR   H268  313  11.590  59.661   0.106
    1STR   O269  314  11.727  59.788   0.197
    1STR   C270  315  11.845  59.710   0.182
    1STR   H271  316  11.839  59.621   0.246
    1STR   C272  317  11.861  59.668   0.035
    1STR   H273  318  11.861  59.755  60.129
    1STR   H274  319  11.781  59.601   0.002
    1STR   H275  320  11.955  59.615   0.020
    1STR   C276  321  11.964  59.795   0.229
    1STR   H277  322  11.973  59.884   0.167
    1STR   H278  323  11.945  59.829   0.331
    1STR   O279  324  12.084  59.718   0.224
    1STR   C280  325  12.203  59.786   0.264
    1STR   H281  326  12.205  59.886   0.220
    1STR   C282  327  12.209  59.796   0.417
    1STR   H283  328  12.201  59.698   0.463
    1STR   H284  329  12.129  59.859   0.457
    1STR   H285  330  12.303  59.841   0.449
    1STR   C286  331  12.324  59.708   0.209
    1STR   H287  332  12.326  59.607   0.251
    1STR   H288  333  12.312  59.696   0.101
    1STR   O289  334  12.446  59.777   0.238
    1STR   C290  335  12.565  59.713   0.193
    1STR   H291  336  12.562  59.606   0.216
    1STR   C292  337  12.582  59.734   0.042
    1STR   H293  338  12.580  59.840   0.017
    1STR   H294  339  12.504  59.684  60.145
    1STR   H295  340  12.677  59.694   0.008
    1STR   C296  341  12.684  59.774   0.272
    1STR   H297  342  12.690  59.881   0.251
    1STR   H298  343  12.664  59.763   0.378
    1STR   O299  344  12.806  59.710   0.236
    1STR   C300  345  12.923  59.760   0.302
    1STR   H301  346  12.921  59.869   0.304
    1STR   C302  347  12.929  59.705   0.446
    1STR   H303  348  12.924  59.596   0.447
    1STR   H304  349  12.848  59.743   0.507
    1STR   H305  350  13.022  59.734   0.494
    1STR   C306  351  13.047  59.717   0.221
    1STR   H307  352  13.057  59.608   0.222
    1STR   H308  353  13.031  59.746   0.117
    1STR   O309  354  13.166  59.778   0.272
    1STR    H1R  355  13.294  59.638   0.190
    1STR    H1S  356  13.389  59.801   0.019
    1STR    H1T  357  13.280  59.926   0.080
    1STR    H1U  358  13.216  59.783  60.159
    1STR    H1V  359  13.396  59.750   0.392
    1STR    H1W  360  13.411  59.898   0.301
    1STR    H1X  361  13.706  59.643   0.161
    1STR    H1Y  362  13.878  59.580   0.019
    1STR    H1Z  363  14.094  59.626  60.074
    1STR    H20  364  14.254  59.956  60.063
    1STR    H21  365  14.333  59.812  60.129
    1STR    H22  366  14.235  59.801  59.984
    1STR    H23  367  14.070  60.117   0.117
    1STR    H27  368  13.894  59.961   0.220
    1STR    H28  369   1.352  59.760  59.924
    1STR    H29  370   1.128  59.677  59.936
    1STR    H2A  371   0.880  59.770   0.022
    1STR    H2B  372   0.925  59.657  60.056
    1STR    H2C  373   0.847  59.808  60.012
    1STR   BCK1  374   0.873   0.015  15.079
    1STR    O03  375   0.817   0.114  15.124
    1STR    N04  376   0.998   0.014  15.028
    1STR    C05  377   1.086   0.121  14.999
    1STR    C06  378   1.226   0.109  15.027
    1STR    C07  379   1.320   0.210  14.992
    1STR    N08  380   1.459   0.192  15.015
    1STR    C09  381   1.563   0.275  14.991
    1STR    O0A  382   1.554   0.388  14.945
    1STR    O0B  383   1.684   0.218  15.022
    1STR    C0C  384   1.805   0.295  15.009
    1STR    C0D  385   1.822   0.384  15.134
    1STR    C0E  386   1.931   0.206  14.988
    1STR    O0F  387   2.050   0.286  14.978
    1STR    C0G  388   2.173   0.216  14.954
    1STR    C0H  389   2.182   0.176  14.806
    1STR    C0I  390   2.293   0.305  14.994
    1STR    O0J  391   2.416   0.233  14.978
    1STR    C0K  392  13.301   0.162  14.638
    1STR    C0M  393  13.293   0.212  14.783
    1STR    C0N  394  13.422   0.066  14.623
    1STR    O0O  395  13.547   0.135  14.639
    1STR    C0P  396  13.644   0.094  14.724
    1STR    O0Q  397  13.636   0.001  14.804
    1STR    N0R  398  13.750   0.172  14.706
    1STR    C0S  399  13.877   0.185  14.765
    1STR    C0T  400  13.952   0.294  14.716
    1STR    C0U  401  14.077   0.327  14.770
    1STR    C0V  402  14.132   0.251  14.875
    1STR    C0W  403  14.259   0.304  14.939
    1STR    C0X  404  14.066   0.133  14.920
    1STR    N0Y  405  14.126   0.055  15.021
    1STR   BCK2  406  14.254   0.011  15.023
    1STR    O10  407  14.328   0.014  14.925
    1STR    C13  408  13.936   0.104  14.867
    1STR    C14  409   1.269   0.327  14.931
    1STR    C15  410   1.132   0.339  14.901
    1STR    C16  411   1.041   0.237  14.931
    1STR    C17  412   0.899   0.254  14.880
    1STR    H1B  413   1.032  60.081  15.009
    1STR    H1C  414   1.261   0.019  15.076
    1STR    H1D  415   1.489   0.106  15.056
    1STR    H1E  416   1.797   0.360  14.921
    1STR    H1F  417   1.831   0.325  15.225
    1STR    H1G  418   1.911   0.447  15.125
    1STR    H1H  419   1.737   0.452  15.145
    1STR    H1I  420   1.916   0.147  14.898
    1STR    H1J  421   1.941   0.136  15.071
    1STR    H1K  422   2.176   0.127  15.017
    1STR    H1M  423   2.175   0.264  14.742
    1STR    H1N  424   2.103   0.107  14.777
    1STR    H1O  425   2.277   0.127  14.785
    1STR    H1P  426   2.294   0.395  14.932
    1STR    H1Q  427   2.281   0.337  15.097
    1STR   C010  428   2.537   0.305  15.006
    1STR   H011  429   2.533   0.404  14.959
    1STR   C012  430   2.555   0.319  15.158
    1STR   H013  431   2.555   0.222  15.206
    1STR   H014  432   2.478   0.380  15.203
    1STR   H015  433   2.651   0.367  15.180
    1STR   C016  434   2.656   0.228  14.943
    1STR   H017  435   2.662   0.128  14.986
    1STR   H018  436   2.637   0.216  14.836
    1STR   O019  437   2.779   0.298  14.964
    1STR   C020  438   2.896   0.234  14.913
    1STR   H021  439   2.894   0.128  14.938
    1STR   C022  440   2.904   0.253  14.761
    1STR   H023  441   2.902   0.358  14.733
    1STR   H024  442   2.823   0.203  14.709
    1STR   H025  443   2.997   0.210  14.722
    1STR   C026  444   3.020   0.296  14.982
    1STR   H027  445   3.026   0.402  14.960
    1STR   H028  446   3.009   0.286  15.090
    1STR   O029  447   3.139   0.229  14.939
    1STR   C030  448   3.262   0.279  14.992
    1STR   H031  449   3.261   0.388  14.990
    1STR   C032  450   3.280   0.230  15.137
    1STR   H033  451   3.276   0.121  15.142
    1STR   H034  452   3.204   0.269  15.204
    1STR   H035  453   3.377   0.261  15.176
    1STR   C036  454   3.378   0.231  14.903
    1STR   H037  455   3.382   0.122  14.903
    1STR   H038  456   3.358   0.262  14.800
    1STR   O039  457   3.501   0.286  14.948
    1STR   C040  458   3.617   0.245  14.876
    1STR   H041  459   3.614   0.138  14.856
    1STR   C042  460   3.626   0.323  14.743
    1STR   H043  461   3.625   0.430  14.761
    1STR   H044  462   3.544   0.299  14.676
    1STR   H045  463   3.719   0.299  14.691
    1STR   C046  464   3.741   0.272  14.964
    1STR   H047  465   3.748   0.379  14.985
    1STR   H048  466   3.728   0.222  15.060
    1STR   O049  467   3.859   0.225  14.899
    1STR   C050  468   3.981   0.248  14.969
    1STR   H051  469   3.982   0.349  15.010
    1STR   C052  470   3.997   0.145  15.081
    1STR   H053  471   3.991   0.043  15.042
    1STR   H054  472   3.921   0.156  15.158
    1STR   H055  473   4.094   0.156  15.130
    1STR   C056  474   4.096   0.238  14.867
    1STR   H057  475   4.099   0.138  14.824
    1STR   H058  476   4.077   0.308  14.785
    1STR   O059  477   4.220   0.269  14.931
    1STR   C060  478   4.335   0.259  14.848
    1STR   H061  479   4.330   0.169  14.787
    1STR   C062  480   4.346   0.384  14.758
    1STR   H063  481   4.347   0.475  14.818
    1STR   H064  482   4.264   0.390  14.687
    1STR   H065  483   4.438   0.381  14.700
    1STR   C066  484   4.458   0.247  14.941
    1STR   H067  485   4.467   0.336  15.003
    1STR   H068  486   4.443   0.162  15.008
    1STR   O069  487   4.575   0.227  14.862
    1STR   C070  488   4.697   0.218  14.936
    1STR   H071  489   4.699   0.294  15.014
    1STR   C072  490   4.710   0.078  14.997
    1STR   H073  491   4.703   0.001  14.921
    1STR   H074  492   4.633   0.058  15.072
    1STR   H075  493   4.807   0.067  15.047
    1STR   C076  494   4.812   0.247  14.838
    1STR   H077  495   4.814   0.173  14.759
    1STR   H078  496   4.795   0.344  14.791
    1STR   O079  497   4.936   0.248  14.910
    1STR   C080  498   5.052   0.271  14.830
    1STR   H081  499   5.046   0.212  14.738
    1STR   C082  500   5.065   0.420  14.797
    1STR   H083  501   5.066   0.480  14.888
    1STR   H084  502   4.984   0.456  14.734
    1STR   H085  503   5.158   0.440  14.743
    1STR   C086  504   5.173   0.220  14.910
    1STR   H087  505   5.183   0.277  15.002
    1STR   H088  506   5.156   0.116  14.938
    1STR   O089  507   5.291   0.232  14.830
    1STR   C090  508   5.411   0.192  14.895
    1STR   H091  509   5.414   0.230  14.997
    1STR   C092  510   5.422   0.038  14.895
    1STR   H093  511   5.415  60.158  14.794
    1STR   H094  512   5.344  60.152  14.956
    1STR   H095  513   5.518   0.007  14.937
    1STR   C096  514   5.528   0.256  14.817
    1STR   H097  515   5.529   0.218  14.715
    1STR   H098  516   5.512   0.363  14.812
    1STR   O099  517   5.651   0.226  14.883
    1STR   C100  518   5.767   0.277  14.819
    1STR   H101  519   5.762   0.260  14.711
    1STR   C102  520   5.783   0.427  14.849
    1STR   H103  521   5.784   0.446  14.956
    1STR   H104  522   5.702   0.486  14.805
    1STR   H105  523   5.876   0.465  14.808
    1STR   C106  524   5.887   0.196  14.873
    1STR   H107  525   5.897   0.212  14.980
    1STR   H108  526   5.868   0.090  14.857
    1STR   O109  527   6.006   0.237  14.805
    1STR   C110  528   6.125   0.172  14.848
    1STR   H111  529   6.128   0.166  14.957
    1STR   C112  530   6.134   0.031  14.787
    1STR   H113  531   6.126   0.035  14.678
    1STR   H114  532   6.055  60.126  14.824
    1STR   H115  533   6.229  60.144  14.812
    1STR   C116  534   6.243   0.260  14.802
    1STR   H117  535   6.245   0.267  14.694
    1STR   H118  536   6.229   0.361  14.841
    1STR   O119  537   6.365   0.205  14.851
    1STR   C120  538   6.483   0.275  14.813
    1STR   H121  539   6.478   0.303  14.708
    1STR   C122  540   6.500   0.400  14.900
    1STR   H123  541   6.501   0.374  15.006
    1STR   H124  542   6.421   0.473  14.884
    1STR   H125  543   6.595   0.450  14.878
    1STR   C126  544   6.601   0.177  14.830
    1STR   H127  545   6.611   0.148  14.935
    1STR   H128  546   6.581   0.087  14.773
    1STR   O129  547   6.721   0.240  14.784
    1STR   C130  548   6.839   0.162  14.798
    1STR   H131  549   6.840   0.113  14.895
    1STR   C132  550   6.845   0.057  14.686
    1STR   H133  551   6.839   0.103  14.588
    1STR   H134  552   6.765  60.143  14.693
    1STR   H135  553   6.940   0.002  14.690
    1STR   C136  554   6.958   0.258  14.791
    1STR   H137  555   6.961   0.308  14.694
    1STR   H138  556   6.945   0.336  14.867
    1STR   O139  557   7.079   0.186  14.814
    1STR   C140  558   7.198   0.263  14.807
    1STR   H141  559   7.194   0.331  14.722
    1STR   C142  560   7.217   0.343  14.937
    1STR   H143  561   7.216   0.277  15.024
    1STR   H144  562   7.139   0.417  14.952
    1STR   H145  563   7.312   0.396  14.937
    1STR   C146  564   7.315   0.165  14.784
    1STR   H147  565   7.323   0.097  14.869
    1STR   H148  566   7.294   0.105  14.696
    1STR   O149  567   7.436   0.239  14.767
    1STR   C150  568   7.553   0.160  14.749
    1STR   H151  569   7.553   0.076  14.819
    1STR   C152  570   7.559   0.108  14.604
    1STR   H153  571   7.554   0.191  14.533
    1STR   H154  572   7.478   0.039  14.581
    1STR   H155  573   7.652   0.055  14.586
    1STR   C156  574   7.673   0.249  14.782
    1STR   H157  575   7.678   0.333  14.713
    1STR   H158  576   7.661   0.290  14.882
    1STR   O159  577   7.793   0.172  14.774
    1STR   C160  578   7.913   0.243  14.799
    1STR   H161  579   7.911   0.340  14.748
    1STR   C162  580   7.932   0.264  14.950
    1STR   H163  581   7.930   0.169  15.003
    1STR   H164  582   7.855   0.329  14.992
    1STR   H165  583   8.028   0.312  14.971
    1STR   C166  584   8.029   0.161  14.739
    1STR   H167  585   8.035   0.064  14.789
    1STR   H168  586   8.007   0.142  14.634
    1STR   O169  587   8.151   0.234  14.753
    1STR   C170  588   8.267   0.166  14.705
    1STR   H171  589   8.265   0.062  14.735
    1STR   C172  590   8.273   0.177  14.551
    1STR   H173  591   8.270   0.281  14.519
    1STR   H174  592   8.191   0.124  14.503
    1STR   H175  593   8.366   0.133  14.514
    1STR   C176  594   8.388   0.233  14.771
    1STR   H177  595   8.394   0.338  14.741
    1STR   H178  596   8.376   0.231  14.879
    1STR   O179  597   8.507   0.163  14.733
    1STR   C180  598   8.628   0.217  14.784
    1STR   H181  599   8.628   0.326  14.776
    1STR   C182  600   8.646   0.175  14.931
    1STR   H183  601   8.642   0.067  14.942
    1STR   H184  602   8.569   0.219  14.996
    1STR   H185  603   8.742   0.209  14.970
    1STR   C186  604   8.743   0.163  14.697
    1STR   H187  605   8.747   0.055  14.704
    1STR   H188  606   8.722   0.188  14.593
    1STR   O189  607   8.866   0.222  14.739
    1STR   C190  608   8.981   0.178  14.668
    1STR   H191  609   8.977   0.070  14.654
    1STR   C192  610   8.989   0.249  14.531
    1STR   H193  611   8.988   0.357  14.543
    1STR   H194  612   8.907   0.221  14.466
    1STR   H195  613   9.081   0.222  14.480
    1STR   C196  614   9.103   0.211  14.755
    1STR   H197  615   9.111   0.318  14.770
    1STR   H198  616   9.090   0.166  14.853
    1STR   O199  617   9.221   0.160  14.692
    1STR   C200  618   9.343   0.186  14.762
    1STR   H201  619   9.344   0.289  14.798
    1STR   C202  620   9.358   0.089  14.879
    1STR   H203  621   9.353  60.145  14.846
    1STR   H204  622   9.282   0.104  14.956
    1STR   H205  623   9.455   0.103  14.928
    1STR   C206  624   9.457   0.171  14.660
    1STR   H207  625   9.460   0.068  14.623
    1STR   H208  626   9.438   0.235  14.575
    1STR   O209  627   9.581   0.206  14.722
    1STR   C210  628   9.696   0.192  14.640
    1STR   H211  629   9.691   0.098  14.583
    1STR   C212  630   9.706   0.311  14.543
    1STR   H213  631   9.706   0.406  14.597
    1STR   H214  632   9.624   0.313  14.472
    1STR   H215  633   9.798   0.306  14.485
    1STR   C216  634   9.818   0.185  14.733
    1STR   H217  635   9.827   0.277  14.790
    1STR   H218  636   9.803   0.104  14.805
    1STR   O219  637   9.936   0.161  14.655
    1STR   C220  638  10.057   0.156  14.729
    1STR   H221  639  10.059   0.236  14.804
    1STR   C222  640  10.070   0.019  14.798
    1STR   H223  641  10.063  60.098  14.726
    1STR   H224  642   9.993   0.004  14.874
    1STR   H225  643  10.167   0.011  14.849
    1STR   C226  644  10.172   0.180  14.631
    1STR   H227  645  10.174   0.101  14.555
    1STR   H228  646  10.155   0.274  14.578
    1STR   O229  647  10.296   0.185  14.702
    1STR   C230  648  10.412   0.204  14.621
    1STR   H231  649  10.406   0.140  14.532
    1STR   C232  650  10.424   0.351  14.580
    1STR   H233  651  10.425   0.416  14.667
    1STR   H234  652  10.342   0.383  14.515
    1STR   H235  653  10.517   0.368  14.525
    1STR   C236  654  10.533   0.158  14.703
    1STR   H237  655  10.543   0.220  14.792
    1STR   H238  656  10.517   0.056  14.737
    1STR   O239  657  10.651   0.166  14.623
    1STR   C240  658  10.772   0.129  14.689
    1STR   H241  659  10.775   0.173  14.789
    1STR   C242  660  10.782  60.136  14.698
    1STR   H243  661  10.774  60.090  14.599
    1STR   H244  662  10.705  60.093  14.761
    1STR   H245  663  10.878  60.106  14.741
    1STR   C246  664  10.889   0.188  14.608
    1STR   H247  665  10.890   0.146  14.508
    1STR   H248  666  10.873   0.296  14.598
    1STR   O249  667  11.012   0.162  14.675
    1STR   C250  668  11.129   0.210  14.609
    1STR   H251  669  11.123   0.188  14.502
    1STR   C252  670  11.143   0.361  14.630
    1STR   H253  671  11.144   0.386  14.736
    1STR   H254  672  11.063   0.417  14.583
    1STR   H255  673  11.237   0.398  14.587
    1STR   C256  674  11.250   0.134  14.666
    1STR   H257  675  11.260   0.155  14.773
    1STR   H258  676  11.232   0.027  14.656
    1STR   O259  677  11.369   0.171  14.597
    1STR   C260  678  11.489   0.109  14.643
    1STR   H261  679  11.492   0.109  14.752
    1STR   C262  680  11.496  60.124  14.590
    1STR   H263  681  11.488  60.122  14.481
    1STR   H264  682  11.417  60.062  14.631
    1STR   H265  683  11.591  60.078  14.617
    1STR   C266  684  11.608   0.193  14.592
    1STR   H267  685  11.609   0.194  14.483
    1STR   H268  686  11.595   0.296  14.625
    1STR   O269  687  11.731   0.140  14.643
    1STR   C270  688  11.849   0.208  14.602
    1STR   H271  689  11.844   0.231  14.495
    1STR   C272  690  11.864   0.339  14.682
    1STR   H273  691  11.864   0.319  14.789
    1STR   H274  692  11.785   0.410  14.660
    1STR   H275  693  11.959   0.388  14.658
    1STR   C276  694  11.970   0.115  14.624
    1STR   H277  695  11.979   0.090  14.730
    1STR   H278  696  11.951   0.021  14.572
    1STR   O279  697  12.091   0.175  14.577
    1STR   C280  698  12.210   0.097  14.593
    1STR   H281  699  12.212   0.054  14.693
    1STR   C282  700  12.214  60.146  14.487
    1STR   H283  701  12.205   0.028  14.386
    1STR   H284  702  12.134  60.073  14.500
    1STR   H285  703  12.308  60.092  14.492
    1STR   C286  704  12.332   0.192  14.580
    1STR   H287  705  12.333   0.237  14.481
    1STR   H288  706  12.320   0.273  14.652
    1STR   O289  707  12.454   0.121  14.603
    1STR   C290  708  12.575   0.198  14.595
    1STR   H291  709  12.571   0.261  14.506
    1STR   C292  710  12.589   0.285  14.720
    1STR   H293  711  12.585   0.225  14.811
    1STR   H294  712  12.511   0.361  14.727
    1STR   H295  713  12.684   0.338  14.720
    1STR   C296  714  12.695   0.101  14.580
    1STR   H297  715  12.699   0.035  14.667
    1STR   H298  716  12.677   0.037  14.494
    1STR   O299  717  12.818   0.172  14.566
    1STR   C300  718  12.936   0.091  14.553
    1STR   H301  719  12.931   0.009  14.625
    1STR   C302  720  12.944   0.035  14.411
    1STR   H303  721  12.939   0.114  14.337
    1STR   H304  722  12.863  60.125  14.389
    1STR   H305  723  13.038  60.141  14.395
    1STR   C306  724  13.061   0.176  14.588
    1STR   H307  725  13.076   0.252  14.512
    1STR   H308  726  13.041   0.228  14.681
    1STR   O309  727  13.179   0.094  14.602
    1STR    H1R  728  13.316   0.246  14.570
    1STR    H1S  729  13.388   0.255  14.814
    1STR    H1T  730  13.271   0.129  14.851
    1STR    H1U  731  13.217   0.288  14.797
    1STR    H1V  732  13.422   0.023  14.523
    1STR    H1W  733  13.414  60.141  14.692
    1STR    H1X  734  13.729   0.238  14.634
    1STR    H1Y  735  13.914   0.356  14.637
    1STR    H1Z  736  14.130   0.413  14.733
    1STR    H20  737  14.263   0.280  15.045
    1STR    H21  738  14.347   0.262  14.890
    1STR    H22  739  14.265   0.413  14.931
    1STR    H23  740  14.071   0.031  15.102
    1STR    H27  741  13.880   0.018  14.903
    1STR    H28  742   1.331   0.410  14.902
    1STR    H29  743   1.098   0.429  14.851
    1STR    H2A  744   0.854   0.159  14.852
    1STR    H2B  745   0.897   0.318  14.791
    1STR    H2C  746   0.838   0.302  14.956
    1STR   BCK1  747   0.848  60.035  30.172
    1STR    O03  748   0.836  59.913  30.165
    1STR    N04  749   0.964  60.098  30.199
    1STR    C05  750   1.074  60.049  30.273
    1STR    C06  751   1.209  60.050  30.224
    1STR    C07  752   1.320  60.012  30.307
    1STR    N08  753   1.455  60.018  30.262
    1STR    C09  754   1.568  59.970  30.320
    1STR    O0A  755   1.569  59.902  30.422
    1STR    O0B  756   1.683  60.004  30.253
    1STR    C0C  757   1.811  59.957  30.304
    1STR    C0D  758   1.831  59.809  30.266
    1STR    C0E  759   1.932  60.042  30.258
    1STR    O0F  760   2.053  59.991  30.318
    1STR    C0G  761   2.175  60.060  30.287
    1STR    C0H  762   2.184   0.029  30.369
    1STR    C0I  763   2.296  59.967  30.318
    1STR    O0J  764   2.419  60.031  30.281
    1STR    C0K  765  13.294   0.167  30.505
    1STR    C0M  766  13.299   0.035  30.427
    1STR    C0N  767  13.413   0.258  30.466
    1STR    O0O  768  13.535   0.210  30.525
    1STR    C0P  769  13.641   0.172  30.451
    1STR    O0Q  770  13.648   0.173  30.329
    1STR    N0R  771  13.737   0.129  30.533
    1STR    C0S  772  13.857   0.061  30.510
    1STR    C0T  773  13.898  60.132  30.611
    1STR    C0U  774  14.010  60.050  30.594
    1STR    C0V  775  14.087  60.057  30.476
    1STR    C0W  776  14.190  59.948  30.455
    1STR    C0X  777  14.059  60.158  30.380
    1STR    N0Y  778  14.137   0.016  30.265
    1STR   BCK2  779  14.270   0.024  30.243
    1STR    O10  780  14.310   0.036  30.128
    1STR    C13  781  13.940   0.075  30.396
    1STR    C14  782   1.290  59.976  30.441
    1STR    C15  783   1.159  59.976  30.490
    1STR    C16  784   1.051  60.015  30.408
    1STR    C17  785   0.914  60.026  30.472
    1STR    H1B  786   0.962   0.038  30.184
    1STR    H1C  787   1.227  60.080  30.122
    1STR    H1D  788   1.473  60.063  30.174
    1STR    H1E  789   1.808  59.964  30.413
    1STR    H1F  790   1.836  59.796  30.158
    1STR    H1G  791   1.924  59.770  30.308
    1STR    H1H  792   1.750  59.747  30.304
    1STR    H1I  793   1.916  60.146  30.288
    1STR    H1J  794   1.940  60.040  30.150
    1STR    H1K  795   2.178  60.083  30.180
    1STR    H1M  796   2.178   0.008  30.476
    1STR    H1N  797   2.105   0.100  30.345
    1STR    H1O  798   2.279   0.080  30.352
    1STR    H1P  799   2.297  59.942  30.424
    1STR    H1Q  800   2.284  59.874  30.264
    1STR   C010  801   2.540  59.959  30.310
    1STR   H011  802   2.535  59.918  30.411
    1STR   C012  803   2.559  59.846  30.208
    1STR   H013  804   2.559  59.884  30.106
    1STR   H014  805   2.481  59.770  30.216
    1STR   H015  806   2.654  59.795  30.225
    1STR   C016  807   2.659  60.058  30.305
    1STR   H017  808   2.665  60.102  30.205
    1STR   H018  809   2.640  60.140  30.375
    1STR   O019  810   2.781  59.992  30.338
    1STR   C020  811   2.899  60.073  30.332
    1STR   H021  812   2.897  60.135  30.242
    1STR   C022  813   2.907   0.003  30.457
    1STR   H023  814   2.905  60.103  30.548
    1STR   H024  815   2.826   0.075  30.462
    1STR   H025  816   3.000   0.060  30.457
    1STR   C026  817   3.022  59.981  30.323
    1STR   H027  818   3.029  59.918  30.411
    1STR   H028  819   3.011  59.915  30.237
    1STR   O029  820   3.141  60.060  30.309
    1STR   C030  821   3.264  59.986  30.304
    1STR   H031  822   3.263  59.907  30.379
    1STR   C032  823   3.282  59.925  30.164
    1STR   H033  824   3.278  60.002  30.086
    1STR   H034  825   3.206  59.851  30.141
    1STR   H035  826   3.379  59.875  30.156
    1STR   C036  827   3.379  60.083  30.337
    1STR   H037  828   3.384   0.003  30.263
    1STR   H038  829   3.359  60.129  30.434
    1STR   O039  830   3.503  60.011  30.341
    1STR   C040  831   3.619  60.090  30.367
    1STR   H041  832   3.615   0.023  30.309
    1STR   C042  833   3.628  60.122  30.517
    1STR   H043  834   3.627  60.031  30.577
    1STR   H044  835   3.545   0.025  30.551
    1STR   H045  836   3.720   0.016  30.540
    1STR   C046  837   3.742  60.010  30.320
    1STR   H047  838   3.750  59.917  30.377
    1STR   H048  839   3.729  59.983  30.215
    1STR   O049  840   3.860  60.089  30.336
    1STR   C050  841   3.982  60.025  30.300
    1STR   H051  842   3.983  59.923  30.338
    1STR   C052  843   3.998  60.025  30.147
    1STR   H053  844   3.992  60.127  30.107
    1STR   H054  845   3.921  59.965  30.098
    1STR   H055  846   4.094  59.984  30.119
    1STR   C056  847   4.097  60.101  30.368
    1STR   H057  848   4.100   0.044  30.332
    1STR   H058  849   4.078  60.106  30.476
    1STR   O059  850   4.220  60.035  30.342
    1STR   C060  851   4.336  60.098  30.397
    1STR   H061  852   4.331   0.046  30.381
    1STR   C062  853   4.347  60.068  30.547
    1STR   H063  854   4.347  59.960  30.565
    1STR   H064  855   4.264  60.111  30.604
    1STR   H065  856   4.439  60.108  30.588
    1STR   C066  857   4.458  60.045  30.320
    1STR   H067  858   4.468  59.938  30.335
    1STR   H068  859   4.443  60.062  30.213
    1STR   O069  860   4.576  60.113  30.365
    1STR   C070  861   4.697  60.070  30.304
    1STR   H071  862   4.700  59.961  30.298
    1STR   C072  863   4.711  60.131  30.164
    1STR   H073  864   4.704   0.080  30.168
    1STR   H074  865   4.634  60.095  30.096
    1STR   H075  866   4.807  60.106  30.120
    1STR   C076  867   4.813  60.114  30.396
    1STR   H077  868   4.814   0.063  30.404
    1STR   H078  869   4.795  60.075  30.496
    1STR   O079  870   4.936  60.065  30.344
    1STR   C080  871   5.052  60.102  30.418
    1STR   H081  872   5.046   0.047  30.446
    1STR   C082  873   5.065  60.014  30.543
    1STR   H083  874   5.066  59.908  30.517
    1STR   H084  875   4.984  60.030  30.613
    1STR   H085  876   5.158  60.036  30.596
    1STR   C086  877   5.173  60.085  30.325
    1STR   H087  878   5.183  59.981  30.295
    1STR   H088  879   5.156  60.143  30.234
    1STR   O089  880   5.291  60.131  30.391
    1STR   C090  881   5.411  60.117  30.317
    1STR   H091  882   5.414  60.020  30.267
    1STR   C092  883   5.422   0.070  30.213
    1STR   H093  884   5.415   0.167  30.260
    1STR   H094  885   5.344   0.063  30.137
    1STR   H095  886   5.518   0.065  30.161
    1STR   C096  887   5.528  60.122  30.417
    1STR   H097  888   5.529   0.059  30.467
    1STR   H098  889   5.512  60.046  30.493
    1STR   O099  890   5.651  60.099  30.348
    1STR   C100  891   5.767  60.105  30.430
    1STR   H101  892   5.762   0.030  30.498
    1STR   C102  893   5.783  59.974  30.509
    1STR   H103  894   5.784  59.888  30.442
    1STR   H104  895   5.702  59.960  30.581
    1STR   H105  896   5.876  59.974  30.565
    1STR   C106  897   5.887  60.128  30.336
    1STR   H107  898   5.897  60.044  30.267
    1STR   H108  899   5.868   0.057  30.276
    1STR   O109  900   6.006  60.145  30.414
    1STR   C110  901   6.125   0.003  30.338
    1STR   H111  902   6.128  60.094  30.254
    1STR   C112  903   6.134   0.148  30.288
    1STR   H113  904   6.126   0.219  30.371
    1STR   H114  905   6.055   0.172  30.217
    1STR   H115  906   6.229   0.166  30.238
    1STR   C116  907   6.243  60.129  30.431
    1STR   H117  908   6.245   0.037  30.516
    1STR   H118  909   6.229  60.028  30.471
    1STR   O119  910   6.365  60.137  30.357
    1STR   C120  911   6.483  60.111  30.433
    1STR   H121  912   6.478   0.001  30.529
    1STR   C122  913   6.500  59.959  30.453
    1STR   H123  914   6.501  59.907  30.357
    1STR   H124  915   6.421  59.917  30.514
    1STR   H125  916   6.595  59.938  30.503
    1STR   C126  917   6.601   0.011  30.355
    1STR   H127  918   6.611  60.122  30.258
    1STR   H128  919   6.581   0.116  30.335
    1STR   O129  920   6.721  60.156  30.431
    1STR   C130  921   6.839   0.044  30.368
    1STR   H131  922   6.840   0.015  30.263
    1STR   C132  923   6.846   0.197  30.379
    1STR   H133  924   6.839   0.229  30.484
    1STR   H134  925   6.766   0.247  30.324
    1STR   H135  926   6.940   0.235  30.339
    1STR   C136  927   6.958  60.137  30.438
    1STR   H137  928   6.961   0.006  30.543
    1STR   H138  929   6.945  60.029  30.434
    1STR   O139  930   7.079   0.015  30.372
    1STR   C140  931   7.198  60.123  30.429
    1STR   H141  932   7.194  60.131  30.538
    1STR   C142  933   7.217  59.976  30.387
    1STR   H143  934   7.216  59.966  30.279
    1STR   H144  935   7.139  59.912  30.427
    1STR   H145  936   7.312  59.938  30.423
    1STR   C146  937   7.315   0.050  30.380
    1STR   H147  938   7.323   0.044  30.272
    1STR   H148  939   7.294   0.155  30.405
    1STR   O149  940   7.436   0.008  30.443
    1STR   C150  941   7.553   0.079  30.403
    1STR   H151  942   7.553   0.093  30.294
    1STR   C152  943   7.559   0.214  30.474
    1STR   H153  944   7.554   0.202  30.583
    1STR   H154  945   7.478   0.281  30.445
    1STR   H155  946   7.652   0.266  30.451
    1STR   C156  947   7.673  60.151  30.439
    1STR   H157  948   7.678  60.135  30.546
    1STR   H158  949   7.661  60.053  30.392
    1STR   O159  950   7.793   0.053  30.392
    1STR   C160  951   7.913  60.143  30.422
    1STR   H161  952   7.911  60.107  30.525
    1STR   C162  953   7.932  60.026  30.325
    1STR   H163  954   7.930  60.060  30.221
    1STR   H164  955   7.855  59.950  30.337
    1STR   H165  956   8.028  59.977  30.341
    1STR   C166  957   8.029   0.084  30.411
    1STR   H167  958   8.035   0.122  30.309
    1STR   H168  959   8.007   0.170  30.475
    1STR   O169  960   8.151   0.022  30.450
    1STR   C170  961   8.267   0.104  30.440
    1STR   H171  962   8.265   0.160  30.346
    1STR   C172  963   8.273   0.200  30.560
    1STR   H173  964   8.270   0.145  30.654
    1STR   H174  965   8.191   0.271  30.560
    1STR   H175  966   8.366   0.257  30.558
    1STR   C176  967   8.388   0.010  30.436
    1STR   H177  968   8.394  60.113  30.529
    1STR   H178  969   8.376  60.099  30.355
    1STR   O179  970   8.507   0.087  30.417
    1STR   C180  971   8.628   0.013  30.415
    1STR   H181  972   8.627  60.098  30.495
    1STR   C182  973   8.646  60.104  30.279
    1STR   H183  974   8.642   0.017  30.197
    1STR   H184  975   8.569  60.029  30.260
    1STR   H185  976   8.742  60.054  30.273
    1STR   C186  977   8.743   0.111  30.444
    1STR   H187  978   8.747   0.187  30.365
    1STR   H188  979   8.722   0.163  30.537
    1STR   O189  980   8.866   0.040  30.453
    1STR   C190  981   8.981   0.120  30.475
    1STR   H191  982   8.977   0.209  30.412
    1STR   C192  983   8.989   0.160  30.623
    1STR   H193  984   8.988   0.072  30.688
    1STR   H194  985   8.907   0.225  30.653
    1STR   H195  986   9.081   0.215  30.643
    1STR   C196  987   9.103   0.037  30.432
    1STR   H197  988   9.111  60.108  30.494
    1STR   H198  989   9.090   0.004  30.330
    1STR   O199  990   9.221   0.117  30.444
    1STR   C200  991   9.342   0.051  30.411
    1STR   H201  992   9.344  60.110  30.454
    1STR   C202  993   9.358   0.043  30.258
    1STR   H203  994   9.353   0.142  30.213
    1STR   H204  995   9.282  60.140  30.212
    1STR   H205  996   9.455   0.000  30.232
    1STR   C206  997   9.457   0.131  30.475
    1STR   H207  998   9.460   0.231  30.434
    1STR   H208  999   9.438   0.141  30.582
    1STR   O209 1000   9.580   0.063  30.453
    1STR   C210 1001   9.696   0.129  30.505
    1STR   H211 1002   9.691   0.236  30.483
    1STR   C212 1003   9.706   0.106  30.656
    1STR   H213 1004   9.706   0.000  30.681
    1STR   H214 1005   9.624   0.153  30.711
    1STR   H215 1006   9.798   0.149  30.696
    1STR   C216 1007   9.818   0.071  30.431
    1STR   H217 1008   9.827  60.125  30.452
    1STR   H218 1009   9.803   0.082  30.324
    1STR   O219 1010   9.935   0.141  30.472
    1STR   C220 1011  10.057   0.095  30.414
    1STR   H221 1012  10.059  60.145  30.414
    1STR   C222 1013  10.070   0.149  30.271
    1STR   H223 1014  10.063   0.257  30.269
    1STR   H224 1015   9.993   0.109  30.205
    1STR   H225 1016  10.166   0.121  30.228
    1STR   C226 1017  10.172   0.144  30.504
    1STR   H227 1018  10.174   0.253  30.506
    1STR   H228 1019  10.154   0.110  30.606
    1STR   O229 1020  10.295   0.092  30.455
    1STR   C230 1021  10.411   0.133  30.527
    1STR   H231 1022  10.405   0.240  30.550
    1STR   C232 1023  10.424   0.052  30.657
    1STR   H233 1024  10.425  60.105  30.636
    1STR   H234 1025  10.342   0.072  30.726
    1STR   H235 1026  10.516   0.076  30.709
    1STR   C236 1027  10.533   0.111  30.435
    1STR   H237 1028  10.543   0.005  30.411
    1STR   H238 1029  10.516   0.164  30.341
    1STR   O239 1030  10.650   0.160  30.499
    1STR   C240 1031  10.771   0.142  30.426
    1STR   H241 1032  10.774   0.042  30.381
    1STR   C242 1033  10.782   0.249  30.316
    1STR   H243 1034  10.774   0.349  30.358
    1STR   H244 1035  10.704   0.238  30.240
    1STR   H245 1036  10.878   0.242  30.265
    1STR   C246 1037  10.888   0.152  30.526
    1STR   H247 1038  10.889   0.252  30.571
    1STR   H248 1039  10.872   0.080  30.606
    1STR   O249 1040  11.011   0.126  30.459
    1STR   C250 1041  11.128   0.136  30.540
    1STR   H251 1042  11.122   0.225  30.603
    1STR   C252 1043  11.142   0.010  30.626
    1STR   H253 1044  11.143  60.080  30.565
    1STR   H254 1045  11.062   0.000  30.699
    1STR   H255 1046  11.236   0.012  30.683
    1STR   C256 1047  11.248   0.154  30.446
    1STR   H257 1048  11.258   0.066  30.381
    1STR   H258 1049  11.230   0.239  30.381
    1STR   O259 1050  11.367   0.173  30.522
    1STR   C260 1051  11.487   0.188  30.446
    1STR   H261 1052  11.490   0.114  30.366
    1STR   C262 1053  11.495   0.330  30.388
    1STR   H263 1054  11.487   0.405  30.467
    1STR   H264 1055  11.416   0.349  30.315
    1STR   H265 1056  11.590   0.346  30.337
    1STR   C266 1057  11.606   0.160  30.540
    1STR   H267 1058  11.607   0.233  30.622
    1STR   H268 1059  11.592   0.062  30.586
    1STR   O269 1060  11.728   0.165  30.467
    1STR   C270 1061  11.846   0.142  30.544
    1STR   H271 1062  11.841   0.197  30.638
    1STR   C272 1063  11.862  60.152  30.573
    1STR   H273 1064  11.862  60.094  30.480
    1STR   H274 1065  11.782  60.113  30.636
    1STR   H275 1066  11.956  60.132  30.624
    1STR   C276 1067  11.966   0.196  30.464
    1STR   H277 1068  11.975   0.143  30.369
    1STR   H278 1069  11.947   0.301  30.439
    1STR   O279 1070  12.087   0.184  30.540
    1STR   C280 1071  12.206   0.230  30.476
    1STR   H281 1072  12.208   0.195  30.372
    1STR   C282 1073  12.211   0.384  30.479
    1STR   H283 1074  12.202   0.421  30.581
    1STR   H284 1075  12.131   0.429  30.420
    1STR   H285 1076  12.305   0.420  30.438
    1STR   C286 1077  12.327   0.168  30.549
    1STR   H287 1078  12.328   0.202  30.653
    1STR   H288 1079  12.315   0.060  30.550
    1STR   O289 1080  12.449   0.204  30.483
    1STR   C290 1081  12.569   0.154  30.542
    1STR   H291 1082  12.565   0.167  30.650
    1STR   C292 1083  12.585   0.005  30.508
    1STR   H293 1084  12.582  60.149  30.400
    1STR   H294 1085  12.507  60.104  30.553
    1STR   H295 1086  12.680  60.127  30.545
    1STR   C296 1087  12.688   0.237  30.488
    1STR   H297 1088  12.693   0.226  30.379
    1STR   H298 1089  12.669   0.342  30.508
    1STR   O299 1090  12.811   0.195  30.548
    1STR   C300 1091  12.928   0.265  30.503
    1STR   H301 1092  12.924   0.276  30.394
    1STR   C302 1093  12.934   0.403  30.570
    1STR   H303 1094  12.929   0.394  30.678
    1STR   H304 1095  12.853   0.468  30.537
    1STR   H305 1096  13.027   0.454  30.545
    1STR   C306 1097  13.053   0.180  30.537
    1STR   H307 1098  13.063   0.172  30.645
    1STR   H308 1099  13.036   0.079  30.499
    1STR   O309 1100  13.171   0.236  30.478
    1STR    H1R 1101  13.300   0.148  30.613
    1STR    H1S 1102  13.396  60.147  30.439
    1STR    H1T 1103  13.285   0.053  30.320
    1STR    H1U 1104  13.223  60.124  30.460
    1STR    H1V 1105  13.397   0.359  30.505
    1STR    H1W 1106  13.421   0.268  30.358
    1STR    H1X 1107  13.708   0.139  30.629
    1STR    H1Y 1108  13.839  60.121  30.702
    1STR    H1Z 1109  14.034  59.976  30.669
    1STR    H20 1110  14.218  59.938  30.350
    1STR    H21 1111  14.279  59.967  30.514
    1STR    H22 1112  14.150  59.851  30.486
    1STR    H23 1113  14.086   0.033  30.180
    1STR    H27 1114  13.912   0.147  30.320
    1STR    H28 1115   1.366  59.949  30.512
    1STR    H29 1116   1.142  59.950  30.593
    1STR    H2A 1117   0.867  60.121  30.446
    1STR    H2B 1118   0.919  60.020  30.580
    1STR    H2C 1119   0.849  59.945  30.437
    1STR   BCK1 1120   0.863  60.079  45.098
    1STR    O03 1121   0.811   0.009  45.032
    1STR    N04 1122   0.991  60.040  45.086
    1STR    C05 1123   1.082  60.063  44.981
    1STR    C06 1124   1.220  60.092  45.006
    1STR    C07 1125   1.316  60.104  44.900
    1STR    N08 1126   1.454  60.128  44.927
    1STR    C09 1127   1.561  60.112  44.846
    1STR    O0A 1128   1.555  60.070  44.731
    1STR    O0B 1129   1.680  60.148  44.905
    1STR    C0C 1130   1.802  60.148  44.827
    1STR    C0D 1131   1.814   0.121  44.751
    1STR    C0E 1132   1.929  60.123  44.913
    1STR    O0F 1133   2.048  60.122  44.832
    1STR    C0G 1134   2.172  60.093  44.899
    1STR    C0H 1135   2.182  59.942  44.925
    1STR    C0I 1136   2.292  60.141  44.813
    1STR    O0J 1137   2.415  60.118  44.883
    1STR    C0K 1138  13.295  59.755  44.921
    1STR    C0M 1139  13.295  59.906  44.891
    1STR    C0N 1140  13.415  59.720  45.013
    1STR    O0O 1141  13.539  59.738  44.943
    1STR    C0P 1142  13.646  59.797  45.001
    1STR    O0Q 1143  13.649  59.846  45.114
    1STR    N0R 1144  13.747  59.797  44.914
    1STR    C0S 1145  13.875  59.854  44.916
    1STR    C0T 1146  13.935  59.868  44.789
    1STR    C0U 1147  14.059  59.932  44.776
    1STR    C0V 1148  14.129  59.980  44.888
    1STR    C0W 1149  14.253  60.063  44.862
    1STR    C0X 1150  14.078  59.955  45.019
    1STR    N0Y 1151  14.151  59.991  45.134
    1STR   BCK2 1152  14.282  59.970  45.159
    1STR    O10 1153  14.357  59.906  45.086
    1STR    C13 1154  13.948  59.896  45.031
    1STR    C14 1155   1.269  60.090  44.768
    1STR    C15 1156   1.135  60.058  44.742
    1STR    C16 1157   1.042  60.041  44.846
    1STR    C17 1158   0.904  59.991  44.808
    1STR    H1B 1159   1.023  59.980  45.161
    1STR    H1C 1160   1.252  60.105  45.108
    1STR    H1D 1161   1.480   0.000  45.018
    1STR    H1E 1162   1.798  60.067  44.754
    1STR    H1F 1163   1.821   0.206  44.819
    1STR    H1G 1164   1.903   0.122  44.688
    1STR    H1H 1165   1.728   0.137  44.685
    1STR    H1I 1166   1.917  60.027  44.965
    1STR    H1J 1167   1.938   0.039  44.990
    1STR    H1K 1168   2.175  60.147  44.993
    1STR    H1M 1169   2.175  59.885  44.832
    1STR    H1N 1170   2.104  59.906  44.992
    1STR    H1O 1171   2.278  59.917  44.971
    1STR    H1P 1172   2.293  60.088  44.717
    1STR    H1Q 1173   2.280   0.087  44.790
    1STR   C010 1174   2.536  60.152  44.813
    1STR   H011 1175   2.532  60.115  44.711
    1STR   C012 1176   2.555   0.145  44.812
    1STR   H013 1177   2.555   0.185  44.913
    1STR   H014 1178   2.477   0.196  44.755
    1STR   H015 1179   2.650   0.172  44.766
    1STR   C016 1180   2.655  60.083  44.884
    1STR   H017 1181   2.661  60.117  44.987
    1STR   H018 1182   2.637  59.976  44.887
    1STR   O019 1183   2.778  60.110  44.816
    1STR   C020 1184   2.896  60.054  44.875
    1STR   H021 1185   2.894  60.069  44.983
    1STR   C022 1186   2.904  59.904  44.844
    1STR   H023 1187   2.902  59.886  44.736
    1STR   H024 1188   2.823  59.848  44.889
    1STR   H025 1189   2.997  59.861  44.883
    1STR   C026 1190   3.020  60.128  44.820
    1STR   H027 1191   3.026  60.115  44.712
    1STR   H028 1192   3.009   0.075  44.839
    1STR   O029 1193   3.139  60.079  44.883
    1STR   C030 1194   3.262  60.137  44.838
    1STR   H031 1195   3.261  60.145  44.729
    1STR   C032 1196   3.280   0.117  44.900
    1STR   H033 1197   3.276   0.112  45.008
    1STR   H034 1198   3.204   0.187  44.866
    1STR   H035 1199   3.377   0.159  44.872
    1STR   C036 1200   3.377  60.043  44.878
    1STR   H037 1201   3.382  60.034  44.986
    1STR   H038 1202   3.358  59.944  44.838
    1STR   O039 1203   3.501  60.094  44.827
    1STR   C040 1204   3.617  60.018  44.861
    1STR   H041 1205   3.614  59.989  44.966
    1STR   C042 1206   3.626  59.893  44.772
    1STR   H043 1207   3.625  59.919  44.667
    1STR   H044 1208   3.544  59.823  44.790
    1STR   H045 1209   3.719  59.838  44.792
    1STR   C046 1210   3.741  60.108  44.842
    1STR   H047 1211   3.749  60.139  44.737
    1STR   H048 1212   3.728   0.039  44.901
    1STR   O049 1213   3.859  60.039  44.883
    1STR   C050 1214   3.981  60.111  44.866
    1STR   H051 1215   3.982   0.001  44.769
    1STR   C052 1216   3.997   0.054  44.979
    1STR   H053 1217   3.991   0.006  45.077
    1STR   H054 1218   3.921   0.131  44.975
    1STR   H055 1219   4.094   0.104  44.972
    1STR   C056 1220   4.096  60.008  44.868
    1STR   H057 1221   4.099  59.957  44.964
    1STR   H058 1222   4.077  59.933  44.791
    1STR   O059 1223   4.220  60.075  44.842
    1STR   C060 1224   4.335  59.991  44.845
    1STR   H061 1225   4.330  59.922  44.929
    1STR   C062 1226   4.346  59.913  44.713
    1STR   H063 1227   4.347  59.980  44.627
    1STR   H064 1228   4.264  59.842  44.700
    1STR   H065 1229   4.438  59.855  44.710
    1STR   C066 1230   4.458  60.082  44.866
    1STR   H067 1231   4.467  60.152  44.782
    1STR   H068 1232   4.443  60.142  44.956
    1STR   O069 1233   4.575  60.002  44.878
    1STR   C070 1234   4.697  60.075  44.894
    1STR   H071 1235   4.699  60.160  44.825
    1STR   C072 1236   4.710  60.124  45.039
    1STR   H073 1237   4.703  60.041  45.109
    1STR   H074 1238   4.633   0.037  45.065
    1STR   H075 1239   4.807   0.013  45.054
    1STR   C076 1240   4.812  59.981  44.856
    1STR   H077 1241   4.814  59.895  44.924
    1STR   H078 1242   4.795  59.942  44.756
    1STR   O079 1243   4.936  60.052  44.861
    1STR   C080 1244   5.052  59.975  44.832
    1STR   H081 1245   5.046  59.878  44.882
    1STR   C082 1246   5.065  59.955  44.680
    1STR   H083 1247   5.066  60.051  44.628
    1STR   H084 1248   4.983  59.896  44.639
    1STR   H085 1249   5.158  59.903  44.656
    1STR   C086 1250   5.173  60.050  44.889
    1STR   H087 1251   5.183  60.147  44.841
    1STR   H088 1252   5.156  60.069  44.995
    1STR   O089 1253   5.291  59.972  44.871
    1STR   C090 1254   5.411  60.032  44.916
    1STR   H091 1255   5.414  60.137  44.887
    1STR   C092 1256   5.422  60.019  45.069
    1STR   H093 1257   5.415  59.915  45.101
    1STR   H094 1258   5.344  60.075  45.121
    1STR   H095 1259   5.518  60.057  45.105
    1STR   C096 1260   5.528  59.960  44.846
    1STR   H097 1261   5.529  59.855  44.874
    1STR   H098 1262   5.512  59.965  44.738
    1STR   O099 1263   5.651  60.024  44.881
    1STR   C100 1264   5.767  59.964  44.825
    1STR   H101 1265   5.761  59.855  44.832
    1STR   C102 1266   5.783  60.007  44.678
    1STR   H103 1267   5.784  60.116  44.669
    1STR   H104 1268   5.702  59.969  44.616
    1STR   H105 1269   5.876  59.969  44.637
    1STR   C106 1270   5.887  60.011  44.910
    1STR   H107 1271   5.897  60.119  44.904
    1STR   H108 1272   5.868  59.986  45.014
    1STR   O109 1273   6.006  59.946  44.864
    1STR   C110 1274   6.125  59.983  44.932
    1STR   H111 1275   6.128  60.091  44.947
    1STR   C112 1276   6.134  59.910  45.067
    1STR   H113 1277   6.127  59.802  45.054
    1STR   H114 1278   6.055  59.941  45.135
    1STR   H115 1279   6.229  59.932  45.116
    1STR   C116 1280   6.243  59.946  44.840
    1STR   H117 1281   6.245  59.838  44.824
    1STR   H118 1282   6.229  59.993  44.743
    1STR   O119 1283   6.365  59.990  44.900
    1STR   C120 1284   6.483  59.958  44.827
    1STR   H121 1285   6.478  59.855  44.789
    1STR   C122 1286   6.500  60.056  44.709
    1STR   H123 1287   6.501  60.159  44.744
    1STR   H124 1288   6.421  60.046  44.635
    1STR   H125 1289   6.594  60.038  44.658
    1STR   C126 1290   6.601  59.966  44.925
    1STR   H127 1291   6.611  60.068  44.963
    1STR   H128 1292   6.581  59.902  45.010
    1STR   O129 1293   6.721  59.926  44.859
    1STR   C130 1294   6.839  59.933  44.938
    1STR   H131 1295   6.840  60.026  44.995
    1STR   C132 1296   6.845  59.812  45.033
    1STR   H133 1297   6.839  59.718  44.977
    1STR   H134 1298   6.765  59.813  45.106
    1STR   H135 1299   6.940  59.812  45.088
    1STR   C136 1300   6.958  59.935  44.841
    1STR   H137 1301   6.961  59.843  44.783
    1STR   H138 1302   6.945  60.017  44.770
    1STR   O139 1303   7.079  59.952  44.915
    1STR   C140 1304   7.198  59.951  44.838
    1STR   H141 1305   7.194  59.872  44.762
    1STR   C142 1306   7.217  60.088  44.770
    1STR   H143 1307   7.216   0.009  44.843
    1STR   H144 1308   7.139  60.109  44.697
    1STR   H145 1309   7.312  60.092  44.717
    1STR   C146 1310   7.315  59.920  44.933
    1STR   H147 1311   7.323  59.998  45.009
    1STR   H148 1312   7.294  59.826  44.985
    1STR   O149 1313   7.436  59.909  44.858
    1STR   C150 1314   7.553  59.884  44.935
    1STR   H151 1315   7.553  59.946  45.025
    1STR   C152 1316   7.559  59.735  44.974
    1STR   H153 1317   7.554  59.672  44.886
    1STR   H154 1318   7.478  59.707  45.041
    1STR   H155 1319   7.652  59.713  45.026
    1STR   C156 1320   7.674  59.925  44.849
    1STR   H157 1321   7.678  59.863  44.759
    1STR   H158 1322   7.661  60.028  44.817
    1STR   O159 1323   7.793  59.910  44.926
    1STR   C160 1324   7.913  59.941  44.856
    1STR   H161 1325   7.911  59.899  44.756
    1STR   C162 1326   7.932  60.094  44.849
    1STR   H163 1327   7.930  60.138  44.948
    1STR   H164 1328   7.855  60.142  44.789
    1STR   H165 1329   8.028  60.119  44.804
    1STR   C166 1330   8.029  59.874  44.933
    1STR   H167 1331   8.035  59.916  45.034
    1STR   H168 1332   8.007  59.768  44.943
    1STR   O169 1333   8.151  59.894  44.862
    1STR   C170 1334   8.267  59.840  44.925
    1STR   H171 1335   8.265  59.862  45.032
    1STR   C172 1336   8.273  59.689  44.901
    1STR   H173 1337   8.270  59.666  44.794
    1STR   H174 1338   8.191  59.636  44.949
    1STR   H175 1339   8.366  59.647  44.941
    1STR   C176 1340   8.388  59.912  44.864
    1STR   H177 1341   8.394  59.892  44.757
    1STR   H178 1342   8.376  60.020  44.876
    1STR   O179 1343   8.507  59.868  44.931
    1STR   C180 1344   8.628  59.924  44.881
    1STR   H181 1345   8.628  59.926  44.772
    1STR   C182 1346   8.646  60.067  44.936
    1STR   H183 1347   8.642  60.069  45.045
    1STR   H184 1348   8.569  60.135  44.898
    1STR   H185 1349   8.742  60.108  44.906
    1STR   C186 1350   8.743  59.833  44.927
    1STR   H187 1351   8.747  59.830  45.036
    1STR   H188 1352   8.722  59.731  44.894
    1STR   O189 1353   8.866  59.879  44.872
    1STR   C190 1354   8.981  59.805  44.910
    1STR   H191 1355   8.977  59.781  45.017
    1STR   C192 1356   8.989  59.675  44.828
    1STR   H193 1357   8.988  59.696  44.721
    1STR   H194 1358   8.906  59.607  44.849
    1STR   H195 1359   9.081  59.621  44.850
    1STR   C196 1360   9.103  59.894  44.885
    1STR   H197 1361   9.111  59.919  44.779
    1STR   H198 1362   9.090  59.988  44.939
    1STR   O199 1363   9.221  59.828  44.931
    1STR   C200 1364   9.343  59.899  44.910
    1STR   H201 1365   9.344  59.944  44.810
    1STR   C202 1366   9.358  60.008  45.017
    1STR   H203 1367   9.353  59.965  45.118
    1STR   H204 1368   9.282  60.085  45.009
    1STR   H205 1369   9.455  60.058  45.008
    1STR   C206 1370   9.457  59.797  44.917
    1STR   H207 1371   9.460  59.751  45.016
    1STR   H208 1372   9.438  59.717  44.845
    1STR   O209 1373   9.580  59.861  44.887
    1STR   C210 1374   9.696  59.778  44.894
    1STR   H211 1375   9.691  59.714  44.982
    1STR   C212 1376   9.706  59.692  44.767
    1STR   H213 1377   9.706  59.754  44.677
    1STR   H214 1378   9.623  59.621  44.758
    1STR   H215 1379   9.798  59.634  44.767
    1STR   C216 1380   9.818  59.870  44.909
    1STR   H217 1381   9.827  59.935  44.822
    1STR   H218 1382   9.803  59.935  44.995
    1STR   O219 1383   9.935  59.791  44.926
    1STR   C220 1384  10.057  59.864  44.937
    1STR   H221 1385  10.059  59.945  44.864
    1STR   C222 1386  10.070  59.921  45.080
    1STR   H223 1387  10.063  59.842  45.154
    1STR   H224 1388   9.993  59.995  45.102
    1STR   H225 1389  10.166  59.971  45.093
    1STR   C226 1390  10.172  59.768  44.905
    1STR   H227 1391  10.174  59.686  44.977
    1STR   H228 1392  10.154  59.724  44.807
    1STR   O229 1393  10.296  59.839  44.906
    1STR   C230 1394  10.411  59.760  44.880
    1STR   H231 1395  10.406  59.666  44.936
    1STR   C232 1396  10.424  59.732  44.730
    1STR   H233 1397  10.425  59.825  44.672
    1STR   H234 1398  10.342  59.671  44.692
    1STR   H235 1399  10.516  59.679  44.708
    1STR   C236 1400  10.533  59.838  44.933
    1STR   H237 1401  10.543  59.933  44.879
    1STR   H238 1402  10.516  59.863  45.038
    1STR   O239 1403  10.651  59.759  44.919
    1STR   C240 1404  10.771  59.822  44.961
    1STR   H241 1405  10.774  59.925  44.926
    1STR   C242 1406  10.782  59.817  45.114
    1STR   H243 1407  10.774  59.715  45.151
    1STR   H244 1408  10.704  59.876  45.163
    1STR   H245 1409  10.878  59.857  45.148
    1STR   C246 1410  10.888  59.747  44.894
    1STR   H247 1411  10.889  59.643  44.928
    1STR   H248 1412  10.872  59.745  44.787
    1STR   O249 1413  11.011  59.811  44.926
    1STR   C250 1414  11.128  59.749  44.873
    1STR   H251 1415  11.122  59.641  44.886
    1STR   C252 1416  11.142  59.784  44.724
    1STR   H253 1417  11.143  59.892  44.709
    1STR   H254 1418  11.062  59.742  44.664
    1STR   H255 1419  11.236  59.744  44.684
    1STR   C256 1420  11.249  59.800  44.954
    1STR   H257 1421  11.259  59.908  44.943
    1STR   H258 1422  11.230  59.780  45.060
    1STR   O259 1423  11.368  59.733  44.911
    1STR   C260 1424  11.487  59.774  44.977
    1STR   H261 1425  11.490  59.882  44.987
    1STR   C262 1426  11.495  59.708  45.116
    1STR   H263 1427  11.487  59.600  45.109
    1STR   H264 1428  11.416  59.743  45.182
    1STR   H265 1429  11.590  59.731  45.164
    1STR   C266 1430  11.606  59.731  44.889
    1STR   H267 1431  11.607  59.622  44.878
    1STR   H268 1432  11.592  59.773  44.789
    1STR   O269 1433  11.729  59.777  44.946
    1STR   C270 1434  11.847  59.742  44.874
    1STR   H271 1435  11.842  59.637  44.842
    1STR   C272 1436  11.863  59.833  44.751
    1STR   H273 1437  11.862  59.938  44.780
    1STR   H274 1438  11.783  59.818  44.678
    1STR   H275 1439  11.957  59.813  44.700
    1STR   C276 1440  11.967  59.756  44.970
    1STR   H277 1441  11.976  59.859  45.003
    1STR   H278 1442  11.948  59.696  45.058
    1STR   O279 1443  12.087  59.713  44.905
    1STR   C280 1444  12.206  59.723  44.984
    1STR   H281 1445  12.208  59.819  45.036
    1STR   C282 1446  12.211  59.607  45.085
    1STR   H283 1447  12.203  59.511  45.035
    1STR   H284 1448  12.131  59.614  45.159
    1STR   H285 1449  12.305  59.608  45.140
    1STR   C286 1450  12.328  59.719  44.889
    1STR   H287 1451  12.329  59.624  44.835
    1STR   H288 1452  12.316  59.797  44.814
    1STR   O289 1453  12.450  59.737  44.961
    1STR   C290 1454  12.570  59.734  44.883
    1STR   H291 1455  12.566  59.651  44.812
    1STR   C292 1456  12.585  59.867  44.808
    1STR   H293 1457  12.583  59.952  44.876
    1STR   H294 1458  12.507  59.882  44.733
    1STR   H295 1459  12.680  59.870  44.754
    1STR   C296 1460  12.689  59.710  44.979
    1STR   H297 1461  12.694  59.791  45.051
    1STR   H298 1462  12.670  59.618  45.035
    1STR   O299 1463  12.812  59.700  44.906
    1STR   C300 1464  12.929  59.679  44.986
    1STR   H301 1465  12.926  59.744  45.074
    1STR   C302 1466  12.936  59.532  45.030
    1STR   H303 1467  12.930  59.465  44.945
    1STR   H304 1468  12.855  59.506  45.098
    1STR   H305 1469  13.029  59.511  45.083
    1STR   C306 1470  13.054  59.718  44.904
    1STR   H307 1471  13.066  59.650  44.819
    1STR   H308 1472  13.037  59.817  44.863
    1STR   O309 1473  13.172  59.718  44.986
    1STR    H1R 1474  13.305  59.698  44.829
    1STR    H1S 1475  13.391  59.937  44.849
    1STR    H1T 1476  13.278  59.964  44.981
    1STR    H1U 1477  13.219  59.934  44.818
    1STR    H1V 1478  13.409  59.615  45.044
    1STR    H1W 1479  13.411  59.778  45.105
    1STR    H1X 1480  13.720  59.751  44.829
    1STR    H1Y 1481  13.886  59.834  44.700
    1STR    H1Z 1482  14.101  59.947  44.677
    1STR    H20 1483  14.269  60.136  44.942
    1STR    H21 1484  14.341  60.000  44.854
    1STR    H22 1485  14.243  60.119  44.769
    1STR    H23 1486  14.100  60.035  45.209
    1STR    H27 1487  13.904  59.882  45.128
    1STR    H28 1488   1.333  60.101  44.682
    1STR    H29 1489   1.104  60.043  44.639
    1STR    H2A 1490   0.865  59.922  44.883
    1STR    H2B 1491   0.906  59.937  44.713
    1STR    H2C 1492   0.835  60.075  44.798
    1STR   BCK1 1493   0.870  15.024   0.130
    1STR    O03 1494   0.825  15.074   0.232
    1STR    N04 1495   0.991  15.053   0.078
    1STR    C05 1496   1.084  15.151   0.118
    1STR    C06 1497   1.224  15.120   0.121
    1STR    C07 1498   1.323  15.216   0.156
    1STR    N08 1499   1.461  15.183   0.153
    1STR    C09 1500   1.567  15.250   0.204
    1STR    O0A 1501   1.558  15.351   0.273
    1STR    O0B 1502   1.686  15.192   0.172
    1STR    C0C 1503   1.809  15.247   0.223
    1STR    C0D 1504   1.829  15.200   0.368
    1STR    C0E 1505   1.932  15.210   0.136
    1STR    O0F 1506   2.052  15.266   0.191
    1STR    C0G 1507   2.174  15.240   0.120
    1STR    C0H 1508   2.183  15.333  60.158
    1STR    C0I 1509   2.295  15.263   0.214
    1STR    O0J 1510   2.417  15.231   0.147
    1STR    C0K 1511  13.295  15.460  60.048
    1STR    C0M 1512  13.287  15.373   0.014
    1STR    C0N 1513  13.419  15.418  59.964
    1STR    O0O 1514  13.540  15.455  60.031
    1STR    C0P 1515  13.639  15.366  60.059
    1STR    O0Q 1516  13.636  15.245  60.040
    1STR    N0R 1517  13.741  15.435  60.110
    1STR    C0S 1518  13.869  15.406   0.000
    1STR    C0T 1519  13.941  15.519   0.041
    1STR    C0U 1520  14.067  15.507   0.102
    1STR    C0V 1521  14.124  15.381   0.123
    1STR    C0W 1522  14.253  15.376   0.203
    1STR    C0X 1523  14.059  15.264   0.074
    1STR    N0Y 1524  14.120  15.139   0.097
    1STR   BCK2 1525  14.248  15.107   0.069
    1STR    O10 1526  14.317  15.168  60.148
    1STR    C13 1527  13.929  15.277   0.016
    1STR    C14 1528   1.279  15.346   0.189
    1STR    C15 1529   1.143  15.379   0.184
    1STR    C16 1530   1.045  15.285   0.146
    1STR    C17 1531   0.903  15.335   0.129
    1STR    H1B 1532   1.017  14.995   0.000
    1STR    H1C 1533   1.254  15.019   0.097
    1STR    H1D 1534   1.489  15.098   0.108
    1STR    H1E 1535   1.802  15.356   0.222
    1STR    H1F 1536   1.837  15.092   0.374
    1STR    H1G 1537   1.920  15.243   0.411
    1STR    H1H 1538   1.746  15.232   0.431
    1STR    H1I 1539   1.916  15.247   0.034
    1STR    H1J 1540   1.941  15.101   0.129
    1STR    H1K 1541   2.176  15.136   0.088
    1STR    H1M 1542   2.177  15.437   0.027
    1STR    H1N 1543   2.103  15.314  60.085
    1STR    H1O 1544   2.277  15.318  60.105
    1STR    H1P 1545   2.297  15.366   0.248
    1STR    H1Q 1546   2.283  15.201   0.303
    1STR   C010 1547   2.538  15.252   0.221
    1STR   H011 1548   2.534  15.349   0.271
    1STR   C012 1549   2.557  15.140   0.324
    1STR   H013 1550   2.557  15.042   0.277
    1STR   H014 1551   2.479  15.141   0.401
    1STR   H015 1552   2.652  15.151   0.376
    1STR   C016 1553   2.657  15.255   0.121
    1STR   H017 1554   2.663  15.160   0.068
    1STR   H018 1555   2.638  15.332   0.047
    1STR   O019 1556   2.780  15.282   0.190
    1STR   C020 1557   2.898  15.283   0.108
    1STR   H021 1558   2.895  15.199   0.039
    1STR   C022 1559   2.905  15.415   0.030
    1STR   H023 1560   2.903  15.501   0.098
    1STR   H024 1561   2.824  15.426  60.119
    1STR   H025 1562   2.998  15.421  60.133
    1STR   C026 1563   3.021  15.265   0.199
    1STR   H027 1564   3.027  15.348   0.270
    1STR   H028 1565   3.010  15.174   0.258
    1STR   O029 1566   3.140  15.259   0.120
    1STR   C030 1567   3.263  15.248   0.193
    1STR   H031 1568   3.262  15.316   0.278
    1STR   C032 1569   3.281  15.103   0.241
    1STR   H033 1570   3.277  15.033   0.158
    1STR   H034 1571   3.205  15.074   0.313
    1STR   H035 1572   3.378  15.091   0.290
    1STR   C036 1573   3.378  15.290   0.100
    1STR   H037 1574   3.383  15.223   0.013
    1STR   H038 1575   3.359  15.390   0.062
    1STR   O039 1576   3.502  15.287   0.171
    1STR   C040 1577   3.618  15.320   0.095
    1STR   H041 1578   3.614  15.270  60.157
    1STR   C042 1579   3.627  15.472   0.076
    1STR   H043 1580   3.626  15.524   0.172
    1STR   H044 1581   3.545  15.511   0.016
    1STR   H045 1582   3.719  15.499   0.024
    1STR   C046 1583   3.741  15.266   0.170
    1STR   H047 1584   3.749  15.314   0.268
    1STR   H048 1585   3.728  15.159   0.188
    1STR   O049 1586   3.859  15.289   0.093
    1STR   C050 1587   3.981  15.248   0.154
    1STR   H051 1588   3.982  15.276   0.259
    1STR   C052 1589   3.997  15.095   0.140
    1STR   H053 1590   3.992  15.065   0.036
    1STR   H054 1591   3.921  15.041   0.196
    1STR   H055 1592   4.094  15.063   0.179
    1STR   C056 1593   4.096  15.322   0.084
    1STR   H057 1594   4.099  15.295  60.138
    1STR   H058 1595   4.077  15.430   0.089
    1STR   O059 1596   4.220  15.290   0.147
    1STR   C060 1597   4.336  15.350   0.089
    1STR   H061 1598   4.330  15.344  60.140
    1STR   C062 1599   4.346  15.497   0.133
    1STR   H063 1600   4.347  15.506   0.242
    1STR   H064 1601   4.264  15.558   0.095
    1STR   H065 1602   4.439  15.542   0.096
    1STR   C066 1603   4.458  15.269   0.135
    1STR   H067 1604   4.467  15.274   0.244
    1STR   H068 1605   4.443  15.164   0.109
    1STR   O069 1606   4.575  15.320   0.072
    1STR   C070 1607   4.697  15.256   0.110
    1STR   H071 1608   4.699  15.239   0.218
    1STR   C072 1609   4.710  15.121   0.036
    1STR   H073 1610   4.703  15.135  60.088
    1STR   H074 1611   4.634  15.050   0.066
    1STR   H075 1612   4.807  15.075   0.057
    1STR   C076 1613   4.812  15.351   0.074
    1STR   H077 1614   4.814  15.368  60.126
    1STR   H078 1615   4.795  15.447   0.121
    1STR   O079 1616   4.936  15.295   0.118
    1STR   C080 1617   5.052  15.372   0.087
    1STR   H081 1618   5.046  15.409  60.145
    1STR   C082 1619   5.065  15.489   0.186
    1STR   H083 1620   5.066  15.453   0.289
    1STR   H084 1621   4.984  15.560   0.176
    1STR   H085 1622   5.158  15.543   0.169
    1STR   C086 1623   5.173  15.277   0.095
    1STR   H087 1624   5.183  15.239   0.197
    1STR   H088 1625   5.156  15.192   0.030
    1STR   O089 1626   5.291  15.347   0.056
    1STR   C090 1627   5.411  15.272   0.064
    1STR   H091 1628   5.414  15.214   0.156
    1STR   C092 1629   5.422  15.178  60.102
    1STR   H093 1630   5.415  15.234  60.009
    1STR   H094 1631   5.344  15.102  60.102
    1STR   H095 1632   5.518  15.126  60.102
    1STR   C096 1633   5.528  15.372   0.067
    1STR   H097 1634   5.529  15.431  60.135
    1STR   H098 1635   5.512  15.442   0.150
    1STR   O099 1636   5.651  15.302   0.084
    1STR   C100 1637   5.767  15.383   0.085
    1STR   H101 1638   5.762  15.459   0.007
    1STR   C102 1639   5.783  15.451   0.222
    1STR   H103 1640   5.784  15.377   0.303
    1STR   H104 1641   5.702  15.522   0.243
    1STR   H105 1642   5.876  15.507   0.227
    1STR   C106 1643   5.887  15.292   0.054
    1STR   H107 1644   5.897  15.216   0.131
    1STR   H108 1645   5.868  15.240  60.120
    1STR   O109 1646   6.006  15.371   0.044
    1STR   C110 1647   6.125  15.298   0.019
    1STR   H111 1648   6.128  15.207   0.081
    1STR   C112 1649   6.134  15.260  60.030
    1STR   H113 1650   6.126  15.349  59.967
    1STR   H114 1651   6.055  15.191  60.001
    1STR   H115 1652   6.229  15.212  60.008
    1STR   C116 1653   6.243  15.387   0.062
    1STR   H117 1654   6.245  15.478   0.001
    1STR   H118 1655   6.229  15.418   0.165
    1STR   O119 1656   6.365  15.314   0.047
    1STR   C120 1657   6.483  15.387   0.080
    1STR   H121 1658   6.478  15.488   0.038
    1STR   C122 1659   6.500  15.394   0.232
    1STR   H123 1660   6.501  15.294   0.276
    1STR   H124 1661   6.421  15.451   0.280
    1STR   H125 1662   6.595  15.442   0.258
    1STR   C126 1663   6.601  15.315   0.013
    1STR   H127 1664   6.611  15.214   0.053
    1STR   H128 1665   6.581  15.305  60.066
    1STR   O129 1666   6.721  15.389   0.034
    1STR   C130 1667   6.839  15.331  60.141
    1STR   H131 1668   6.840  15.223   0.001
    1STR   C132 1669   6.846  15.356  59.989
    1STR   H133 1670   6.839  15.462  59.967
    1STR   H134 1671   6.765  15.305  59.935
    1STR   H135 1672   6.940  15.319  59.948
    1STR   C136 1673   6.958  15.394   0.053
    1STR   H137 1674   6.961  15.502   0.034
    1STR   H138 1675   6.945  15.381   0.161
    1STR   O139 1676   7.079  15.332   0.010
    1STR   C140 1677   7.198  15.385   0.067
    1STR   H141 1678   7.194  15.494   0.069
    1STR   C142 1679   7.217  15.330   0.209
    1STR   H143 1680   7.216  15.221   0.210
    1STR   H144 1681   7.139  15.364   0.277
    1STR   H145 1682   7.312  15.362   0.251
    1STR   C146 1683   7.315  15.344  60.135
    1STR   H147 1684   7.323  15.235  60.132
    1STR   H148 1685   7.294  15.377  60.034
    1STR   O149 1686   7.436  15.402   0.023
    1STR   C150 1687   7.553  15.368  60.110
    1STR   H151 1688   7.553  15.262  60.086
    1STR   C152 1689   7.559  15.452  59.981
    1STR   H153 1690   7.554  15.558  60.002
    1STR   H154 1691   7.478  15.428  59.912
    1STR   H155 1692   7.652  15.433  59.927
    1STR   C156 1693   7.674  15.396   0.040
    1STR   H157 1694   7.678  15.502   0.065
    1STR   H158 1695   7.661  15.342   0.134
    1STR   O159 1696   7.793  15.355  60.134
    1STR   C160 1697   7.913  15.380   0.046
    1STR   H161 1698   7.911  15.479   0.092
    1STR   C162 1699   7.932  15.272   0.155
    1STR   H163 1700   7.930  15.172   0.112
    1STR   H164 1701   7.855  15.278   0.232
    1STR   H165 1702   8.028  15.285   0.205
    1STR   C166 1703   8.029  15.377  60.105
    1STR   H167 1704   8.035  15.278  60.058
    1STR   H168 1705   8.007  15.448  60.025
    1STR   O169 1706   8.151  15.410   0.011
    1STR   C170 1707   8.267  15.407  60.088
    1STR   H171 1708   8.265  15.319  60.023
    1STR   C172 1709   8.273  15.535  60.003
    1STR   H173 1710   8.270  15.624  60.066
    1STR   H174 1711   8.191  15.542  59.932
    1STR   H175 1712   8.366  15.539  59.946
    1STR   C176 1713   8.389  15.396   0.021
    1STR   H177 1714   8.394  15.483   0.086
    1STR   H178 1715   8.376  15.308   0.085
    1STR   O179 1716   8.507  15.383  60.102
    1STR   C180 1717   8.628  15.375   0.017
    1STR   H181 1718   8.628  15.448   0.098
    1STR   C182 1719   8.646  15.233   0.073
    1STR   H183 1720   8.642  15.158  60.154
    1STR   H184 1721   8.569  15.208   0.146
    1STR   H185 1722   8.742  15.223   0.123
    1STR   C186 1723   8.743  15.412  60.081
    1STR   H187 1724   8.747  15.340  59.999
    1STR   H188 1725   8.722  15.510  60.037
    1STR   O189 1726   8.866  15.415  60.153
    1STR   C190 1727   8.981  15.444  60.075
    1STR   H191 1728   8.977  15.389  59.980
    1STR   C192 1729   8.989  15.595  60.048
    1STR   H193 1730   8.988  15.652  60.141
    1STR   H194 1731   8.907  15.630  59.986
    1STR   H195 1732   9.081  15.620  59.995
    1STR   C196 1733   9.103  15.394  60.154
    1STR   H197 1734   9.111  15.448   0.088
    1STR   H198 1735   9.090  15.289   0.018
    1STR   O199 1736   9.221  15.413  60.075
    1STR   C200 1737   9.343  15.374  60.139
    1STR   H201 1738   9.344  15.409   0.082
    1STR   C202 1739   9.358  15.222  60.133
    1STR   H203 1740   9.353  15.185  60.030
    1STR   H204 1741   9.282  15.170   0.031
    1STR   H205 1742   9.455  15.191   0.013
    1STR   C206 1743   9.457  15.445  60.064
    1STR   H207 1744   9.460  15.413  59.960
    1STR   H208 1745   9.438  15.553  60.064
    1STR   O209 1746   9.581  15.418  60.130
    1STR   C210 1747   9.696  15.475  60.069
    1STR   H211 1748   9.691  15.462  59.960
    1STR   C212 1749   9.706  15.624  60.104
    1STR   H213 1750   9.706  15.638   0.052
    1STR   H214 1751   9.624  15.682  60.063
    1STR   H215 1752   9.798  15.667  60.065
    1STR   C216 1753   9.818  15.396  60.119
    1STR   H217 1754   9.827  15.408   0.068
    1STR   H218 1755   9.803  15.290  60.099
    1STR   O219 1756   9.935  15.443  60.054
    1STR   C220 1757  10.057  15.381  60.095
    1STR   H221 1758  10.059  15.371   0.043
    1STR   C222 1759  10.070  15.243  60.028
    1STR   H223 1760  10.063  15.251  59.920
    1STR   H224 1761   9.993  15.174  60.062
    1STR   H225 1762  10.167  15.198  60.052
    1STR   C226 1763  10.172  15.474  60.054
    1STR   H227 1764  10.174  15.486  59.945
    1STR   H228 1765  10.155  15.573  60.096
    1STR   O229 1766  10.296  15.421  60.101
    1STR   C230 1767  10.412  15.497  60.066
    1STR   H231 1768  10.406  15.529  59.962
    1STR   C232 1769  10.424  15.619  60.159
    1STR   H233 1770  10.425  15.589   0.104
    1STR   H234 1771  10.342  15.690  60.145
    1STR   H235 1772  10.517  15.673  60.139
    1STR   C236 1773  10.533  15.404  60.080
    1STR   H237 1774  10.543  15.370   0.024
    1STR   H238 1775  10.516  15.315  60.019
    1STR   O239 1776  10.651  15.472  60.038
    1STR   C240 1777  10.772  15.397  60.049
    1STR   H241 1778  10.775  15.344  60.144
    1STR   C242 1779  10.782  15.297  59.933
    1STR   H243 1780  10.774  15.347  59.836
    1STR   H244 1781  10.705  15.221  59.937
    1STR   H245 1782  10.878  15.245  59.935
    1STR   C246 1783  10.889  15.497  60.047
    1STR   H247 1784  10.890  15.551  59.952
    1STR   H248 1785  10.873  15.571  60.125
    1STR   O249 1786  11.012  15.428  60.067
    1STR   C250 1787  11.129  15.510  60.064
    1STR   H251 1788  11.123  15.581  59.982
    1STR   C252 1789  11.143  15.585   0.038
    1STR   H253 1790  11.144  15.516   0.122
    1STR   H254 1791  11.062  15.656   0.054
    1STR   H255 1792  11.236  15.641   0.041
    1STR   C256 1793  11.250  15.418  60.039
    1STR   H257 1794  11.259  15.346  60.120
    1STR   H258 1795  11.231  15.361  59.948
    1STR   O259 1796  11.368  15.496  60.026
    1STR   C260 1797  11.488  15.422  60.005
    1STR   H261 1798  11.491  15.335  60.071
    1STR   C262 1799  11.496  15.376  59.858
    1STR   H263 1800  11.487  15.461  59.790
    1STR   H264 1801  11.417  15.305  59.833
    1STR   H265 1802  11.591  15.327  59.838
    1STR   C266 1803  11.607  15.513  60.041
    1STR   H267 1804  11.608  15.600  59.975
    1STR   H268 1805  11.594  15.549  60.142
    1STR   O269 1806  11.730  15.441  60.029
    1STR   C270 1807  11.849  15.515  60.059
    1STR   H271 1808  11.843  15.613  60.012
    1STR   C272 1809  11.864  15.530   0.051
    1STR   H273 1810  11.863  15.433   0.100
    1STR   H274 1811  11.784  15.591   0.095
    1STR   H275 1812  11.958  15.579   0.076
    1STR   C276 1813  11.969  15.440  59.998
    1STR   H277 1814  11.977  15.341  60.043
    1STR   H278 1815  11.950  15.425  59.892
    1STR   O279 1816  12.089  15.514  60.017
    1STR   C280 1817  12.208  15.454  59.965
    1STR   H281 1818  12.210  15.348  59.991
    1STR   C282 1819  12.213  15.471  59.813
    1STR   H283 1820  12.204  15.576  59.784
    1STR   H284 1821  12.133  15.416  59.763
    1STR   H285 1822  12.307  15.434  59.772
    1STR   C286 1823  12.330  15.522  60.032
    1STR   H287 1824  12.332  15.628  60.008
    1STR   H288 1825  12.319  15.514  60.140
    1STR   O289 1826  12.452  15.459  59.990
    1STR   C290 1827  12.573  15.513  60.046
    1STR   H291 1828  12.569  15.623  60.042
    1STR   C292 1829  12.588  15.467   0.031
    1STR   H293 1830  12.584  15.358   0.038
    1STR   H294 1831  12.510  15.507   0.096
    1STR   H295 1832  12.683  15.499   0.073
    1STR   C296 1833  12.692  15.466  59.959
    1STR   H297 1834  12.697  15.357  59.960
    1STR   H298 1835  12.674  15.496  59.856
    1STR   O299 1836  12.815  15.522  60.007
    1STR   C300 1837  12.933  15.482  59.935
    1STR   H301 1838  12.929  15.375  59.914
    1STR   C302 1839  12.942  15.561  59.804
    1STR   H303 1840  12.937  15.668  59.822
    1STR   H304 1841  12.861  15.535  59.735
    1STR   H305 1842  13.036  15.540  59.752
    1STR   C306 1843  13.057  15.507  60.025
    1STR   H307 1844  13.071  15.614  60.039
    1STR   H308 1845  13.036  15.465  60.123
    1STR   O309 1846  13.176  15.447  59.970
    1STR    H1R 1847  13.308  15.565  60.075
    1STR    H1S 1848  13.381  15.376   0.069
    1STR    H1T 1849  13.269  15.269  60.148
    1STR    H1U 1850  13.210  15.406   0.083
    1STR    H1V 1851  13.418  15.471  59.868
    1STR    H1W 1852  13.416  15.312  59.940
    1STR    H1X 1853  13.714  15.532  60.112
    1STR    H1Y 1854  13.900  15.618   0.030
    1STR    H1Z 1855  14.118  15.596   0.135
    1STR    H20 1856  14.253  15.291   0.272
    1STR    H21 1857  14.339  15.367   0.137
    1STR    H22 1858  14.267  15.465   0.263
    1STR    H23 1859  14.067  15.069   0.147
    1STR    H27 1860  13.875  15.190  60.143
    1STR    H28 1861   1.347  15.425   0.216
    1STR    H29 1862   1.113  15.480   0.208
    1STR    H2A 1863   0.851  15.283   0.049
    1STR    H2B 1864   0.902  15.441   0.104
    1STR    H2C 1865   0.847  15.323   0.222
    1STR   BCK1 1866   0.852  14.915  15.079
    1STR    O03 1867   0.833  14.860  14.972
    1STR    N04 1868   0.973  14.920  15.139
    1STR    C05 1869   1.079  14.830  15.118
    1STR    C06 1870   1.213  14.872  15.090
    1STR    C07 1871   1.320  14.777  15.076
    1STR    N08 1872   1.455  14.818  15.054
    1STR    C09 1873   1.569  14.746  15.066
    1STR    O0A 1874   1.573  14.629  15.103
    1STR    O0B 1875   1.683  14.815  15.032
    1STR    C0C 1876   1.809  14.744  15.023
    1STR    C0D 1877   1.823  14.682  14.883
    1STR    C0E 1878   1.933  14.832  15.057
    1STR    O0F 1879   2.052  14.752  15.051
    1STR    C0G 1880   2.176  14.817  15.087
    1STR    C0H 1881   2.185  14.829  15.240
    1STR    C0I 1882   2.295  14.735  15.032
    1STR    O0J 1883   2.419  14.802  15.060
    1STR    C0K 1884  13.288  14.800  15.435
    1STR    C0M 1885  13.295  14.787  15.282
    1STR    C0N 1886  13.408  14.882  15.487
    1STR    O0O 1887  13.529  14.807  15.477
    1STR    C0P 1888  13.638  14.854  15.414
    1STR    O0Q 1889  13.647  14.963  15.358
    1STR    N0R 1890  13.734  14.762  15.418
    1STR    C0S 1891  13.860  14.755  15.357
    1STR    C0T 1892  13.910  14.625  15.332
    1STR    C0U 1893  14.030  14.607  15.262
    1STR    C0V 1894  14.106  14.718  15.219
    1STR    C0W 1895  14.223  14.691  15.126
    1STR    C0X 1896  14.065  14.849  15.254
    1STR    N0Y 1897  14.138  14.962  15.217
    1STR   BCK2 1898  14.267  14.996  15.231
    1STR    O10 1899  14.307  15.100  15.182
    1STR    C13 1900  13.939  14.866  15.319
    1STR    C14 1901   1.286  14.640  15.086
    1STR    C15 1902   1.156  14.599  15.117
    1STR    C16 1903   1.054  14.692  15.137
    1STR    C17 1904   0.919  14.640  15.185
    1STR    H1B 1905   0.981  14.982  15.218
    1STR    H1C 1906   1.234  14.977  15.080
    1STR    H1D 1907   1.472  14.913  15.027
    1STR    H1E 1908   1.810  14.663  15.096
    1STR    H1F 1909   1.826  14.759  14.805
    1STR    H1G 1910   1.914  14.624  14.875
    1STR    H1H 1911   1.740  14.615  14.861
    1STR    H1I 1912   1.920  14.874  15.157
    1STR    H1J 1913   1.940  14.916  14.987
    1STR    H1K 1914   2.180  14.916  15.042
    1STR    H1M 1915   2.178  14.731  15.287
    1STR    H1N 1916   2.107  14.892  15.282
    1STR    H1O 1917   2.281  14.872  15.269
    1STR    H1P 1918   2.296  14.635  15.076
    1STR    H1Q 1919   2.283  14.722  14.925
    1STR   C010 1920   2.539  14.735  15.021
    1STR   H011 1921   2.534  14.630  15.049
    1STR   C012 1922   2.558  14.747  14.868
    1STR   H013 1923   2.558  14.851  14.837
    1STR   H014 1924   2.480  14.695  14.813
    1STR   H015 1925   2.653  14.703  14.838
    1STR   C016 1926   2.658  14.799  15.096
    1STR   H017 1927   2.665  14.905  15.071
    1STR   H018 1928   2.639  14.793  15.203
    1STR   O019 1929   2.781  14.733  15.063
    1STR   C020 1930   2.899  14.787  15.125
    1STR   H021 1931   2.897  14.896  15.119
    1STR   C022 1932   2.906  14.742  15.271
    1STR   H023 1933   2.904  14.634  15.280
    1STR   H024 1934   2.825  14.783  15.331
    1STR   H025 1935   2.999  14.777  15.317
    1STR   C026 1936   3.022  14.738  15.046
    1STR   H027 1937   3.028  14.630  15.049
    1STR   H028 1938   3.010  14.766  14.941
    1STR   O029 1939   3.141  14.797  15.100
    1STR   C030 1940   3.263  14.757  15.038
    1STR   H031 1941   3.263  14.649  15.021
    1STR   C032 1942   3.282  14.831  14.905
    1STR   H033 1943   3.278  14.939  14.919
    1STR   H034 1944   3.206  14.803  14.832
    1STR   H035 1945   3.378  14.807  14.860
    1STR   C036 1946   3.379  14.788  15.135
    1STR   H037 1947   3.383  14.896  15.154
    1STR   H038 1948   3.359  14.740  15.231
    1STR   O039 1949   3.503  14.742  15.081
    1STR   C040 1950   3.619  14.770  15.159
    1STR   H041 1951   3.615  14.872  15.197
    1STR   C042 1952   3.627  14.670  15.276
    1STR   H043 1953   3.627  14.567  15.240
    1STR   H044 1954   3.545  14.682  15.347
    1STR   H045 1955   3.720  14.685  15.332
    1STR   C046 1956   3.742  14.758  15.067
    1STR   H047 1957   3.750  14.657  15.028
    1STR   H048 1958   3.728  14.825  14.982
    1STR   O049 1959   3.859  14.793  15.140
    1STR   C050 1960   3.982  14.783  15.067
    1STR   H051 1961   3.983  14.691  15.008
    1STR   C052 1962   3.997  14.905  14.974
    1STR   H053 1963   3.992  14.998  15.030
    1STR   H054 1964   3.921  14.907  14.896
    1STR   H055 1965   4.094  14.902  14.924
    1STR   C056 1966   4.097  14.775  15.169
    1STR   H057 1967   4.099  14.867  15.229
    1STR   H058 1968   4.078  14.693  15.238
    1STR   O059 1969   4.220  14.756  15.100
    1STR   C060 1970   4.336  14.751  15.184
    1STR   H061 1971   4.331  14.830  15.260
    1STR   C062 1972   4.347  14.613  15.251
    1STR   H063 1973   4.347  14.534  15.176
    1STR   H064 1974   4.264  14.595  15.320
    1STR   H065 1975   4.439  14.606  15.308
    1STR   C066 1976   4.458  14.780  15.095
    1STR   H067 1977   4.467  14.703  15.018
    1STR   H068 1978   4.443  14.875  15.043
    1STR   O069 1979   4.576  14.785  15.176
    1STR   C070 1980   4.697  14.807  15.105
    1STR   H071 1981   4.700  14.746  15.014
    1STR   C072 1982   4.710  14.956  15.068
    1STR   H073 1983   4.704  15.019  15.157
    1STR   H074 1984   4.634  14.988  14.998
    1STR   H075 1985   4.807  14.976  15.021
    1STR   C076 1986   4.812  14.761  15.195
    1STR   H077 1987   4.814  14.821  15.286
    1STR   H078 1988   4.795  14.658  15.225
    1STR   O079 1989   4.936  14.773  15.125
    1STR   C080 1990   5.052  14.737  15.200
    1STR   H081 1991   5.046  14.778  15.301
    1STR   C082 1992   5.065  14.584  15.206
    1STR   H083 1993   5.066  14.541  15.106
    1STR   H084 1994   4.984  14.538  15.261
    1STR   H085 1995   5.158  14.555  15.255
    1STR   C086 1996   5.173  14.801  15.130
    1STR   H087 1997   5.183  14.761  15.029
    1STR   H088 1998   5.156  14.908  15.120
    1STR   O089 1999   5.291  14.776  15.206
    1STR   C090 2000   5.411  14.826  15.150
    1STR   H091 2001   5.414  14.806  15.042
    1STR   C092 2002   5.422  14.977  15.176
    1STR   H093 2003   5.415  14.999  15.282
    1STR   H094 2004   5.345  15.033  15.124
    1STR   H095 2005   5.518  15.016  15.141
    1STR   C096 2006   5.528  14.749  15.215
    1STR   H097 2007   5.529  14.768  15.322
    1STR   H098 2008   5.512  14.642  15.201
    1STR   O099 2009   5.651  14.790  15.155
    1STR   C100 2010   5.767  14.729  15.209
    1STR   H101 2011   5.762  14.727  15.318
    1STR   C102 2012   5.783  14.587  15.154
    1STR   H103 2013   5.784  14.587  15.045
    1STR   H104 2014   5.702  14.521  15.186
    1STR   H105 2015   5.876  14.542  15.188
    1STR   C106 2016   5.887  14.817  15.171
    1STR   H107 2017   5.897  14.821  15.062
    1STR   H108 2018   5.868  14.919  15.205
    1STR   O109 2019   6.006  14.766  15.231
    1STR   C110 2020   6.125  14.837  15.200
    1STR   H111 2021   6.128  14.862  15.093
    1STR   C112 2022   6.133  14.965  15.284
    1STR   H113 2023   6.126  14.942  15.391
    1STR   H114 2024   6.055  15.036  15.259
    1STR   H115 2025   6.228  15.016  15.268
    1STR   C116 2026   6.243  14.743  15.229
    1STR   H117 2027   6.245  14.717  15.335
    1STR   H118 2028   6.229  14.650  15.173
    1STR   O119 2029   6.365  14.806  15.190
    1STR   C120 2030   6.483  14.730  15.216
    1STR   H121 2031   6.478  14.684  15.315
    1STR   C122 2032   6.500  14.622  15.108
    1STR   H123 2033   6.501  14.666  15.008
    1STR   H124 2034   6.421  14.547  15.112
    1STR   H125 2035   6.595  14.569  15.122
    1STR   C126 2036   6.601  14.829  15.216
    1STR   H127 2037   6.610  14.876  15.118
    1STR   H128 2038   6.581  14.908  15.288
    1STR   O129 2039   6.721  14.759  15.251
    1STR   C130 2040   6.839  14.839  15.251
    1STR   H131 2041   6.840  14.904  15.163
    1STR   C132 2042   6.846  14.923  15.379
    1STR   H133 2043   6.839  14.859  15.468
    1STR   H134 2044   6.766  14.996  15.385
    1STR   H135 2045   6.940  14.977  15.384
    1STR   C136 2046   6.958  14.743  15.240
    1STR   H137 2047   6.961  14.677  15.327
    1STR   H138 2048   6.945  14.680  15.152
    1STR   O139 2049   7.079  14.818  15.230
    1STR   C140 2050   7.198  14.740  15.223
    1STR   H141 2051   7.194  14.659  15.296
    1STR   C142 2052   7.217  14.685  15.081
    1STR   H143 2053   7.216  14.765  15.007
    1STR   H144 2054   7.139  14.614  15.054
    1STR   H145 2055   7.312  14.632  15.073
    1STR   C146 2056   7.315  14.832  15.263
    1STR   H147 2057   7.323  14.915  15.192
    1STR   H148 2058   7.294  14.876  15.361
    1STR   O149 2059   7.436  14.757  15.267
    1STR   C150 2060   7.553  14.832  15.299
    1STR   H151 2061   7.553  14.927  15.245
    1STR   C152 2062   7.559  14.857  15.450
    1STR   H153 2063   7.554  14.764  15.506
    1STR   H154 2064   7.478  14.921  15.485
    1STR   H155 2065   7.652  14.907  15.477
    1STR   C156 2066   7.674  14.750  15.251
    1STR   H157 2067   7.678  14.655  15.304
    1STR   H158 2068   7.661  14.727  15.145
    1STR   O159 2069   7.793  14.825  15.272
    1STR   C160 2070   7.913  14.758  15.235
    1STR   H161 2071   7.911  14.654  15.269
    1STR   C162 2072   7.932  14.764  15.083
    1STR   H163 2073   7.930  14.867  15.047
    1STR   H164 2074   7.855  14.709  15.030
    1STR   H165 2075   8.028  14.721  15.054
    1STR   C166 2076   8.029  14.829  15.308
    1STR   H167 2077   8.035  14.933  15.276
    1STR   H168 2078   8.007  14.830  15.415
    1STR   O169 2079   8.151  14.760  15.282
    1STR   C170 2080   8.267  14.818  15.341
    1STR   H171 2081   8.265  14.926  15.330
    1STR   C172 2082   8.273  14.781  15.490
    1STR   H173 2083   8.270  14.672  15.504
    1STR   H174 2084   8.191  14.824  15.547
    1STR   H175 2085   8.366  14.817  15.535
    1STR   C176 2086   8.389  14.764  15.265
    1STR   H177 2087   8.394  14.655  15.275
    1STR   H178 2088   8.376  14.785  15.159
    1STR   O179 2089   8.507  14.826  15.314
    1STR   C180 2090   8.628  14.782  15.254
    1STR   H181 2091   8.627  14.673  15.243
    1STR   C182 2092   8.646  14.849  15.117
    1STR   H183 2093   8.642  14.957  15.125
    1STR   H184 2094   8.569  14.817  15.046
    1STR   H185 2095   8.742  14.822  15.073
    1STR   C186 2096   8.743  14.819  15.349
    1STR   H187 2097   8.747  14.927  15.362
    1STR   H188 2098   8.722  14.777  15.448
    1STR   O189 2099   8.866  14.768  15.298
    1STR   C190 2100   8.981  14.800  15.376
    1STR   H191 2101   8.977  14.904  15.408
    1STR   C192 2102   8.989  14.706  15.497
    1STR   H193 2103   8.988  14.602  15.467
    1STR   H194 2104   8.907  14.722  15.567
    1STR   H195 2105   9.081  14.724  15.553
    1STR   C196 2106   9.103  14.783  15.284
    1STR   H197 2107   9.111  14.679  15.251
    1STR   H198 2108   9.090  14.845  15.195
    1STR   O199 2109   9.221  14.822  15.354
    1STR   C200 2110   9.342  14.808  15.282
    1STR   H201 2111   9.343  14.713  15.228
    1STR   C202 2112   9.358  14.924  15.183
    1STR   H203 2113   9.353  15.020  15.234
    1STR   H204 2114   9.282  14.923  15.105
    1STR   H205 2115   9.455  14.919  15.132
    1STR   C206 2116   9.457  14.806  15.384
    1STR   H207 2117   9.460  14.900  15.439
    1STR   H208 2118   9.437  14.727  15.457
    1STR   O209 2119   9.580  14.782  15.317
    1STR   C210 2120   9.696  14.781  15.401
    1STR   H211 2121   9.691  14.864  15.472
    1STR   C212 2122   9.706  14.647  15.475
    1STR   H213 2123   9.706  14.564  15.405
    1STR   H214 2124   9.624  14.633  15.545
    1STR   H215 2125   9.798  14.642  15.533
    1STR   C216 2126   9.818  14.805  15.310
    1STR   H217 2127   9.827  14.723  15.238
    1STR   H218 2128   9.803  14.897  15.254
    1STR   O219 2129   9.935  14.814  15.391
    1STR   C220 2130  10.057  14.832  15.319
    1STR   H221 2131  10.059  14.766  15.232
    1STR   C222 2132  10.070  14.979  15.274
    1STR   H223 2133  10.063  15.047  15.360
    1STR   H224 2134   9.993  15.008  15.203
    1STR   H225 2135  10.166  14.996  15.226
    1STR   C226 2136  10.172  14.791  15.412
    1STR   H227 2137  10.174  14.856  15.500
    1STR   H228 2138  10.154  14.690  15.447
    1STR   O229 2139  10.295  14.798  15.341
    1STR   C230 2140  10.411  14.766  15.418
    1STR   H231 2141  10.405  14.813  15.516
    1STR   C232 2142  10.423  14.614  15.432
    1STR   H233 2143  10.424  14.565  15.335
    1STR   H234 2144  10.342  14.571  15.490
    1STR   H235 2145  10.516  14.587  15.483
    1STR   C236 2146  10.532  14.826  15.344
    1STR   H237 2147  10.542  14.780  15.246
    1STR   H238 2148  10.516  14.932  15.329
    1STR   O239 2149  10.650  14.804  15.422
    1STR   C240 2150  10.771  14.852  15.363
    1STR   H241 2151  10.774  14.826  15.257
    1STR   C242 2152  10.781  15.004  15.381
    1STR   H243 2153  10.774  15.032  15.486
    1STR   H244 2154  10.704  15.058  15.327
    1STR   H245 2155  10.877  15.041  15.344
    1STR   C246 2156  10.887  14.779  15.432
    1STR   H247 2157  10.889  14.803  15.539
    1STR   H248 2158  10.871  14.671  15.424
    1STR   O249 2159  11.010  14.816  15.371
    1STR   C250 2160  11.127  14.758  15.428
    1STR   H251 2161  11.121  14.761  15.537
    1STR   C252 2162  11.142  14.612  15.381
    1STR   H253 2163  11.143  14.606  15.272
    1STR   H254 2164  11.061  14.549  15.417
    1STR   H255 2165  11.235  14.569  15.417
    1STR   C256 2166  11.247  14.843  15.385
    1STR   H257 2167  11.257  14.841  15.276
    1STR   H258 2168  11.229  14.947  15.413
    1STR   O259 2169  11.366  14.795  15.447
    1STR   C260 2170  11.486  14.864  15.412
    1STR   H261 2171  11.489  14.883  15.305
    1STR   C262 2172  11.494  14.996  15.490
    1STR   H263 2173  11.486  14.980  15.597
    1STR   H264 2174  11.415  15.066  15.460
    1STR   H265 2175  11.589  15.046  15.471
    1STR   C266 2176  11.604  14.772  15.447
    1STR   H267 2177  11.606  14.751  15.554
    1STR   H268 2178  11.590  14.676  15.397
    1STR   O269 2179  11.727  14.832  15.406
    1STR   C270 2180  11.845  14.758  15.435
    1STR   H271 2181  11.840  14.717  15.536
    1STR   C272 2182  11.861  14.644  15.333
    1STR   H273 2183  11.861  14.682  15.231
    1STR   H274 2184  11.781  14.570  15.341
    1STR   H275 2185  11.955  14.591  15.349
    1STR   C276 2186  11.964  14.855  15.430
    1STR   H277 2187  11.973  14.897  15.329
    1STR   H278 2188  11.945  14.938  15.497
    1STR   O279 2189  12.085  14.787  15.467
    1STR   C280 2190  12.203  14.866  15.463
    1STR   H281 2191  12.205  14.927  15.372
    1STR   C282 2192  12.209  14.957  15.587
    1STR   H283 2193  12.201  14.899  15.679
    1STR   H284 2194  12.129  15.031  15.588
    1STR   H285 2195  12.303  15.012  15.591
    1STR   C286 2196  12.324  14.771  15.459
    1STR   H287 2197  12.326  14.709  15.548
    1STR   H288 2198  12.312  14.703  15.374
    1STR   O289 2199  12.446  14.845  15.447
    1STR   C290 2200  12.566  14.767  15.443
    1STR   H291 2201  12.562  14.689  15.519
    1STR   C292 2202  12.582  14.703  15.304
    1STR   H293 2203  12.580  14.779  15.226
    1STR   H294 2204  12.504  14.631  15.282
    1STR   H295 2205  12.677  14.651  15.297
    1STR   C296 2206  12.684  14.860  15.476
    1STR   H297 2207  12.690  14.940  15.402
    1STR   H298 2208  12.664  14.908  15.572
    1STR   O299 2209  12.807  14.787  15.481
    1STR   C300 2210  12.924  14.864  15.509
    1STR   H301 2211  12.921  14.957  15.452
    1STR   C302 2212  12.929  14.895  15.660
    1STR   H303 2213  12.924  14.804  15.719
    1STR   H304 2214  12.848  14.961  15.691
    1STR   H305 2215  13.023  14.946  15.685
    1STR   C306 2216  13.048  14.784  15.464
    1STR   H307 2217  13.057  14.693  15.523
    1STR   H308 2218  13.032  14.754  15.360
    1STR   O309 2219  13.166  14.864  15.474
    1STR    H1R 2220  13.293  14.701  15.481
    1STR    H1S 2221  13.391  14.747  15.250
    1STR    H1T 2222  13.283  14.884  15.234
    1STR    H1U 2223  13.218  14.720  15.243
    1STR    H1V 2224  13.394  14.906  15.593
    1STR    H1W 2225  13.414  14.978  15.435
    1STR    H1X 2226  13.703  14.681  15.469
    1STR    H1Y 2227  13.854  14.538  15.362
    1STR    H1Z 2228  14.063  14.507  15.239
    1STR    H20 2229  14.244  14.776  15.062
    1STR    H21 2230  14.313  14.666  15.182
    1STR    H22 2231  14.201  14.607  15.060
    1STR    H23 2232  14.085  15.036  15.174
    1STR    H27 2233  13.903  14.966  15.341
    1STR    H28 2234   1.358  14.562  15.071
    1STR    H29 2235   1.137  14.493  15.128
    1STR    H2A 2236   0.878  14.705  15.262
    1STR    H2B 2237   0.927  14.541  15.228
    1STR    H2C 2238   0.848  14.636  15.102
    1STR   BCK1 2239   0.868  15.024  30.071
    1STR    O03 2240   0.810  15.132  30.076
    1STR    N04 2241   0.995  15.006  30.029
    1STR    C05 2242   1.082  15.094  29.962
    1STR    C06 2243   1.222  15.098  29.994
    1STR    C07 2244   1.316  15.179  29.921
    1STR    N08 2245   1.455  15.177  29.952
    1STR    C09 2246   1.560  15.234  29.888
    1STR    O0A 2247   1.551  15.303  29.787
    1STR    O0B 2248   1.680  15.207  29.947
    1STR    C0C 2249   1.802  15.267  29.896
    1STR    C0D 2250   1.816  15.409  29.953
    1STR    C0E 2251   1.929  15.183  29.927
    1STR    O0F 2252   2.047  15.246  29.875
    1STR    C0G 2253   2.171  15.175  29.892
    1STR    C0H 2254   2.181  15.063  29.788
    1STR    C0I 2255   2.291  15.272  29.878
    1STR    O0J 2256   2.415  15.203  29.903
    1STR    C0K 2257  13.301  14.953  29.651
    1STR    C0M 2258  13.296  15.073  29.746
    1STR    C0N 2259  13.419  14.860  29.688
    1STR    O0O 2260  13.546  14.924  29.664
    1STR    C0P 2261  13.647  14.924  29.755
    1STR    O0Q 2262  13.642  14.878  29.868
    1STR    N0R 2263  13.752  14.986  29.700
    1STR    C0S 2264  13.878  15.026  29.746
    1STR    C0T 2265  13.945  15.116  29.661
    1STR    C0U 2266  14.067  15.173  29.697
    1STR    C0V 2267  14.128  15.141  29.819
    1STR    C0W 2268  14.252  15.221  29.857
    1STR    C0X 2269  14.072  15.040  29.903
    1STR    N0Y 2270  14.139  15.000  30.021
    1STR   BCK2 2271  14.269  14.968  30.034
    1STR    O10 2272  14.346  14.958  29.939
    1STR    C13 2273  13.943  14.988  29.868
    1STR    C14 2274   1.264  15.259  29.817
    1STR    C15 2275   1.128  15.255  29.783
    1STR    C16 2276   1.038  15.171  29.851
    1STR    C17 2277   0.897  15.163  29.795
    1STR    H1B 2278   1.031  14.914  30.048
    1STR    H1C 2279   1.258  15.038  30.075
    1STR    H1D 2280   1.485  15.124  30.032
    1STR    H1E 2281   1.795  15.274  29.787
    1STR    H1F 2282   1.825  15.409  30.061
    1STR    H1G 2283   1.904  15.459  29.912
    1STR    H1H 2284   1.730  15.471  29.926
    1STR    H1I 2285   1.916  15.084  29.882
    1STR    H1J 2286   1.939  15.168  30.034
    1STR    H1K 2287   2.175  15.133  29.993
    1STR    H1M 2288   2.174  15.102  29.687
    1STR    H1N 2289   2.103  14.988  29.801
    1STR    H1O 2290   2.276  15.011  29.797
    1STR    H1P 2291   2.292  15.316  29.778
    1STR    H1Q 2292   2.280  15.355  29.948
    1STR   C010 2293   2.536  15.279  29.887
    1STR   H011 2294   2.531  15.337  29.795
    1STR   C012 2295   2.554  15.372  30.008
    1STR   H013 2296   2.554  15.317  30.101
    1STR   H014 2297   2.477  15.448  30.013
    1STR   H015 2298   2.650  15.425  30.001
    1STR   C016 2299   2.655  15.180  29.875
    1STR   H017 2300   2.661  15.119  29.965
    1STR   H018 2301   2.636  15.113  29.792
    1STR   O019 2302   2.778  15.251  29.855
    1STR   C020 2303   2.896  15.170  29.847
    1STR   H021 2304   2.893  15.093  29.925
    1STR   C022 2305   2.904  15.103  29.709
    1STR   H023 2306   2.902  15.177  29.629
    1STR   H024 2307   2.822  15.033  29.692
    1STR   H025 2308   2.997  15.047  29.699
    1STR   C026 2309   3.020  15.258  29.873
    1STR   H027 2310   3.026  15.336  29.797
    1STR   H028 2311   3.008  15.309  29.969
    1STR   O029 2312   3.139  15.179  29.872
    1STR   C030 2313   3.261  15.250  29.890
    1STR   H031 2314   3.261  15.341  29.830
    1STR   C032 2315   3.280  15.286  30.038
    1STR   H033 2316   3.276  15.197  30.101
    1STR   H034 2317   3.204  15.355  30.074
    1STR   H035 2318   3.377  15.333  30.055
    1STR   C036 2319   3.377  15.161  29.840
    1STR   H037 2320   3.381  15.069  29.898
    1STR   H038 2321   3.358  15.132  29.737
    1STR   O039 2322   3.501  15.232  29.849
    1STR   C040 2323   3.617  15.159  29.810
    1STR   H041 2324   3.613  15.058  29.851
    1STR   C042 2325   3.626  15.153  29.656
    1STR   H043 2326   3.625  15.253  29.613
    1STR   H044 2327   3.544  15.097  29.612
    1STR   H045 2328   3.718  15.105  29.625
    1STR   C046 2329   3.740  15.229  29.870
    1STR   H047 2330   3.748  15.331  29.830
    1STR   H048 2331   3.727  15.238  29.978
    1STR   O049 2332   3.858  15.154  29.840
    1STR   C050 2333   3.981  15.211  29.886
    1STR   H051 2334   3.982  15.319  29.867
    1STR   C052 2335   3.997  15.185  30.037
    1STR   H053 2336   3.991  15.078  30.059
    1STR   H054 2337   3.921  15.235  30.096
    1STR   H055 2338   4.093  15.220  30.072
    1STR   C056 2339   4.096  15.148  29.806
    1STR   H057 2340   4.099  15.040  29.824
    1STR   H058 2341   4.077  15.163  29.700
    1STR   O059 2342   4.220  15.209  29.844
    1STR   C060 2343   4.335  15.156  29.779
    1STR   H061 2344   4.330  15.047  29.776
    1STR   C062 2345   4.346  15.212  29.636
    1STR   H063 2346   4.347  15.321  29.637
    1STR   H064 2347   4.264  15.180  29.573
    1STR   H065 2348   4.438  15.179  29.589
    1STR   C066 2349   4.458  15.195  29.864
    1STR   H067 2350   4.467  15.303  29.868
    1STR   H068 2351   4.443  15.160  29.966
    1STR   O069 2352   4.575  15.136  29.808
    1STR   C070 2353   4.697  15.168  29.875
    1STR   H071 2354   4.699  15.274  29.900
    1STR   C072 2355   4.710  15.083  30.002
    1STR   H073 2356   4.703  14.977  29.979
    1STR   H074 2357   4.633  15.107  30.076
    1STR   H075 2358   4.807  15.100  30.050
    1STR   C076 2359   4.812  15.141  29.777
    1STR   H077 2360   4.814  15.035  29.750
    1STR   H078 2361   4.795  15.197  29.685
    1STR   O079 2362   4.936  15.180  29.837
    1STR   C080 2363   5.052  15.156  29.757
    1STR   H081 2364   5.046  15.057  29.711
    1STR   C082 2365   5.065  15.264  29.649
    1STR   H083 2366   5.066  15.364  29.694
    1STR   H084 2367   4.983  15.261  29.577
    1STR   H085 2368   5.158  15.252  29.594
    1STR   C086 2369   5.173  15.156  29.852
    1STR   H087 2370   5.183  15.254  29.899
    1STR   H088 2371   5.156  15.083  29.932
    1STR   O089 2372   5.291  15.123  29.779
    1STR   C090 2373   5.411  15.124  29.854
    1STR   H091 2374   5.414  15.211  29.920
    1STR   C092 2375   5.422  14.995  29.937
    1STR   H093 2376   5.415  14.906  29.873
    1STR   H094 2377   5.344  14.988  30.013
    1STR   H095 2378   5.518  14.990  29.989
    1STR   C096 2379   5.528  15.136  29.755
    1STR   H097 2380   5.529  15.050  29.688
    1STR   H098 2381   5.512  15.224  29.693
    1STR   O099 2382   5.651  15.147  29.826
    1STR   C100 2383   5.767  15.155  29.745
    1STR   H101 2384   5.761  15.083  29.663
    1STR   C102 2385   5.783  15.298  29.690
    1STR   H103 2386   5.784  15.371  29.770
    1STR   H104 2387   5.702  15.324  29.621
    1STR   H105 2388   5.876  15.307  29.634
    1STR   C106 2389   5.887  15.116  29.833
    1STR   H107 2390   5.897  15.186  29.916
    1STR   H108 2391   5.868  15.018  29.877
    1STR   O109 2392   6.006  15.113  29.754
    1STR   C110 2393   6.125  15.082  29.825
    1STR   H111 2394   6.128  15.136  29.920
    1STR   C112 2395   6.134  14.931  29.849
    1STR   H113 2396   6.126  14.875  29.756
    1STR   H114 2397   6.055  14.895  29.915
    1STR   H115 2398   6.229  14.904  29.896
    1STR   C116 2399   6.243  15.132  29.740
    1STR   H117 2400   6.245  15.079  29.644
    1STR   H118 2401   6.229  15.238  29.718
    1STR   O119 2402   6.365  15.111  29.811
    1STR   C120 2403   6.483  15.150  29.741
    1STR   H121 2404   6.478  15.117  29.637
    1STR   C122 2405   6.500  15.302  29.747
    1STR   H123 2406   6.501  15.338  29.850
    1STR   H124 2407   6.421  15.355  29.694
    1STR   H125 2408   6.595  15.332  29.702
    1STR   C126 2409   6.601  15.077  29.807
    1STR   H127 2410   6.611  15.109  29.911
    1STR   H128 2411   6.581  14.970  29.808
    1STR   O129 2412   6.721  15.105  29.735
    1STR   C130 2413   6.839  15.046  29.789
    1STR   H131 2414   6.840  15.057  29.898
    1STR   C132 2415   6.846  14.898  29.751
    1STR   H133 2416   6.839  14.884  29.643
    1STR   H134 2417   6.766  14.840  29.796
    1STR   H135 2418   6.940  14.854  29.784
    1STR   C136 2419   6.958  15.124  29.732
    1STR   H137 2420   6.961  15.114  29.623
    1STR   H138 2421   6.945  15.230  29.754
    1STR   O139 2422   7.079  15.076  29.790
    1STR   C140 2423   7.198  15.137  29.742
    1STR   H141 2424   7.194  15.149  29.634
    1STR   C142 2425   7.217  15.274  29.810
    1STR   H143 2426   7.216  15.265  29.918
    1STR   H144 2427   7.139  15.345  29.781
    1STR   H145 2428   7.312  15.319  29.781
    1STR   C146 2429   7.315  15.042  29.775
    1STR   H147 2430   7.323  15.030  29.883
    1STR   H148 2431   7.294  14.944  29.733
    1STR   O149 2432   7.436  15.095  29.721
    1STR   C150 2433   7.553  15.019  29.748
    1STR   H151 2434   7.553  14.986  29.853
    1STR   C152 2435   7.559  14.897  29.654
    1STR   H153 2436   7.554  14.928  29.550
    1STR   H154 2437   7.478  14.827  29.672
    1STR   H155 2438   7.652  14.843  29.668
    1STR   C156 2439   7.674  15.112  29.728
    1STR   H157 2440   7.678  15.146  29.625
    1STR   H158 2441   7.661  15.200  29.791
    1STR   O159 2442   7.793  15.042  29.764
    1STR   C160 2443   7.913  15.116  29.746
    1STR   H161 2444   7.911  15.170  29.651
    1STR   C162 2445   7.932  15.215  29.862
    1STR   H163 2446   7.930  15.163  29.958
    1STR   H164 2447   7.855  15.292  29.864
    1STR   H165 2448   8.028  15.266  29.854
    1STR   C166 2449   8.029  15.015  29.739
    1STR   H167 2450   8.035  14.960  29.834
    1STR   H168 2451   8.007  14.942  29.661
    1STR   O169 2452   8.151  15.083  29.712
    1STR   C170 2453   8.267  15.000  29.708
    1STR   H171 2454   8.265  14.928  29.790
    1STR   C172 2455   8.273  14.927  29.573
    1STR   H173 2456   8.270  14.997  29.490
    1STR   H174 2457   8.191  14.856  29.560
    1STR   H175 2458   8.366  14.870  29.564
    1STR   C176 2459   8.388  15.092  29.728
    1STR   H177 2460   8.394  15.165  29.647
    1STR   H178 2461   8.376  15.148  29.820
    1STR   O179 2462   8.507  15.013  29.733
    1STR   C180 2463   8.628  15.086  29.748
    1STR   H181 2464   8.628  15.173  29.682
    1STR   C182 2465   8.646  15.130  29.894
    1STR   H183 2466   8.642  15.044  29.962
    1STR   H184 2467   8.569  15.201  29.925
    1STR   H185 2468   8.742  15.179  29.908
    1STR   C186 2469   8.743  14.994  29.703
    1STR   H187 2470   8.747  14.906  29.767
    1STR   H188 2471   8.722  14.958  29.602
    1STR   O189 2472   8.866  15.066  29.706
    1STR   C190 2473   8.981  14.990  29.670
    1STR   H191 2474   8.977  14.892  29.717
    1STR   C192 2475   8.989  14.977  29.517
    1STR   H193 2476   8.988  15.075  29.469
    1STR   H194 2477   8.906  14.918  29.477
    1STR   H195 2478   9.081  14.927  29.488
    1STR   C196 2479   9.103  15.065  29.726
    1STR   H197 2480   9.111  15.164  29.681
    1STR   H198 2481   9.090  15.079  29.834
    1STR   O199 2482   9.221  14.988  29.701
    1STR   C200 2483   9.343  15.048  29.745
    1STR   H201 2484   9.344  15.154  29.720
    1STR   C202 2485   9.358  15.029  29.897
    1STR   H203 2486   9.353  14.924  29.924
    1STR   H204 2487   9.282  15.083  29.953
    1STR   H205 2488   9.455  15.067  29.930
    1STR   C206 2489   9.457  14.980  29.668
    1STR   H207 2490   9.460  14.874  29.692
    1STR   H208 2491   9.438  14.988  29.561
    1STR   O209 2492   9.581  15.043  29.701
    1STR   C210 2493   9.696  14.987  29.639
    1STR   H211 2494   9.691  14.878  29.642
    1STR   C212 2495   9.706  15.035  29.494
    1STR   H213 2496   9.706  15.144  29.489
    1STR   H214 2497   9.624  14.999  29.432
    1STR   H215 2498   9.798  15.000  29.448
    1STR   C216 2499   9.818  15.031  29.721
    1STR   H217 2500   9.827  15.139  29.720
    1STR   H218 2501   9.803  15.002  29.825
    1STR   O219 2502   9.935  14.969  29.669
    1STR   C220 2503  10.057  15.005  29.734
    1STR   H221 2504  10.059  15.112  29.754
    1STR   C222 2505  10.070  14.927  29.866
    1STR   H223 2506  10.063  14.819  29.849
    1STR   H224 2507   9.993  14.954  29.938
    1STR   H225 2508  10.167  14.947  29.913
    1STR   C226 2509  10.172  14.972  29.638
    1STR   H227 2510  10.174  14.865  29.617
    1STR   H228 2511  10.155  15.023  29.543
    1STR   O229 2512  10.296  15.015  29.695
    1STR   C230 2513  10.412  14.987  29.617
    1STR   H231 2514  10.406  14.886  29.576
    1STR   C232 2515  10.424  15.089  29.503
    1STR   H233 2516  10.425  15.191  29.542
    1STR   H234 2517  10.342  15.081  29.431
    1STR   H235 2518  10.517  15.074  29.448
    1STR   C236 2519  10.533  14.992  29.711
    1STR   H237 2520  10.543  15.093  29.753
    1STR   H238 2521  10.517  14.924  29.794
    1STR   O239 2522  10.651  14.956  29.639
    1STR   C240 2523  10.772  14.960  29.715
    1STR   H241 2524  10.775  15.051  29.776
    1STR   C242 2525  10.782  14.836  29.804
    1STR   H243 2526  10.774  14.745  29.746
    1STR   H244 2527  10.705  14.834  29.881
    1STR   H245 2528  10.878  14.834  29.856
    1STR   C246 2529  10.889  14.967  29.615
    1STR   H247 2530  10.890  14.878  29.553
    1STR   H248 2531  10.873  15.052  29.548
    1STR   O249 2532  11.012  14.981  29.685
    1STR   C250 2533  11.129  14.986  29.604
    1STR   H251 2534  11.123  14.910  29.525
    1STR   C252 2535  11.143  15.125  29.541
    1STR   H253 2536  11.144  15.203  29.617
    1STR   H254 2537  11.062  15.147  29.471
    1STR   H255 2538  11.236  15.133  29.485
    1STR   C256 2539  11.250  14.952  29.693
    1STR   H257 2540  11.259  15.027  29.772
    1STR   H258 2541  11.232  14.857  29.742
    1STR   O259 2542  11.369  14.947  29.614
    1STR   C260 2543  11.489  14.918  29.686
    1STR   H261 2544  11.491  14.977  29.778
    1STR   C262 2545  11.496  14.768  29.719
    1STR   H263 2546  11.487  14.708  29.628
    1STR   H264 2547  11.417  14.737  29.787
    1STR   H265 2548  11.591  14.744  29.766
    1STR   C266 2549  11.608  14.962  29.599
    1STR   H267 2550  11.608  14.905  29.506
    1STR   H268 2551  11.594  15.067  29.572
    1STR   O269 2552  11.731  14.945  29.670
    1STR   C270 2553  11.849  14.981  29.598
    1STR   H271 2554  11.844  14.943  29.496
    1STR   C272 2555  11.864  15.134  29.596
    1STR   H273 2556  11.863  15.174  29.698
    1STR   H274 2557  11.784  15.182  29.540
    1STR   H275 2558  11.958  15.163  29.550
    1STR   C276 2559  11.969  14.913  29.667
    1STR   H277 2560  11.978  14.950  29.770
    1STR   H278 2561  11.950  14.806  29.673
    1STR   O279 2562  12.090  14.939  29.595
    1STR   C280 2563  12.209  14.882  29.650
    1STR   H281 2564  12.211  14.899  29.758
    1STR   C282 2565  12.213  14.732  29.620
    1STR   H283 2566  12.204  14.713  29.513
    1STR   H284 2567  12.134  14.677  29.670
    1STR   H285 2568  12.308  14.688  29.654
    1STR   C286 2569  12.331  14.955  29.589
    1STR   H287 2570  12.332  14.941  29.481
    1STR   H288 2571  12.319  15.062  29.606
    1STR   O289 2572  12.453  14.908  29.647
    1STR   C290 2573  12.573  14.968  29.598
    1STR   H291 2574  12.570  14.974  29.489
    1STR   C292 2575  12.588  15.110  29.657
    1STR   H293 2576  12.584  15.107  29.766
    1STR   H294 2577  12.510  15.177  29.623
    1STR   H295 2578  12.683  15.154  29.628
    1STR   C296 2579  12.693  14.879  29.637
    1STR   H297 2580  12.698  14.870  29.746
    1STR   H298 2581  12.675  14.779  29.598
    1STR   O299 2582  12.817  14.931  29.587
    1STR   C300 2583  12.934  14.855  29.620
    1STR   H301 2584  12.929  14.824  29.725
    1STR   C302 2585  12.942  14.731  29.529
    1STR   H303 2586  12.937  14.758  29.424
    1STR   H304 2587  12.861  14.661  29.549
    1STR   H305 2588  13.035  14.677  29.545
    1STR   C306 2589  13.060  14.944  29.603
    1STR   H307 2590  13.075  14.968  29.498
    1STR   H308 2591  13.041  15.038  29.655
    1STR   O309 2592  13.177  14.880  29.658
    1STR    H1R 2593  13.315  14.988  29.548
    1STR    H1S 2594  13.392  15.125  29.748
    1STR    H1T 2595  13.275  15.041  29.848
    1STR    H1U 2596  13.222  15.147  29.718
    1STR    H1V 2597  13.416  14.770  29.627
    1STR    H1W 2598  13.410  14.827  29.792
    1STR    H1X 2599  13.730  15.011  29.606
    1STR    H1Y 2600  13.901  15.145  29.566
    1STR    H1Z 2601  14.113  15.245  29.631
    1STR    H20 2602  14.261  15.230  29.965
    1STR    H21 2603  14.342  15.175  29.817
    1STR    H22 2604  14.246  15.323  29.817
    1STR    H23 2605  14.084  14.990  30.104
    1STR    H27 2606  13.895  14.916  29.932
    1STR    H28 2607   1.326  15.326  29.759
    1STR    H29 2608   1.094  15.315  29.700
    1STR    H2A 2609   0.855  15.064  29.807
    1STR    H2B 2610   0.895  15.187  29.689
    1STR    H2C 2611   0.833  15.235  29.846
    1STR   BCK1 2612   0.853  14.926  45.254
    1STR    O03 2613   0.815  14.879  45.361
    1STR    N04 2614   0.973  14.983  45.233
    1STR    C05 2615   1.076  15.015  45.325
    1STR    C06 2616   1.213  14.992  45.292
    1STR    C07 2617   1.321  15.026  45.380
    1STR    N08 2618   1.457  15.008  45.344
    1STR    C09 2619   1.567  15.006  45.422
    1STR    O0A 2620   1.564  15.010  45.545
    1STR    O0B 2621   1.684  14.997  45.351
    1STR    C0C 2622   1.810  14.988  45.422
    1STR    C0D 2623   1.831  14.844  45.470
    1STR    C0E 2624   1.932  15.036  45.337
    1STR    O0F 2625   2.053  15.025  45.414
    1STR    C0G 2626   2.175  15.066  45.351
    1STR    C0H 2627   2.184  15.220  45.350
    1STR    C0I 2628   2.296  15.005  45.426
    1STR    O0J 2629   2.419  15.039  45.360
    1STR    C0K 2630  13.291  15.397  45.383
    1STR    C0M 2631  13.289  15.244  45.392
    1STR    C0N 2632  13.413  15.443  45.298
    1STR    O0O 2633  13.532  15.425  45.375
    1STR    C0P 2634  13.637  15.352  45.332
    1STR    O0Q 2635  13.648  15.293  45.225
    1STR    N0R 2636  13.728  15.353  45.429
    1STR    C0S 2637  13.853  15.293  45.451
    1STR    C0T 2638  13.899  15.304  45.583
    1STR    C0U 2639  14.021  15.248  45.620
    1STR    C0V 2640  14.103  15.181  45.527
    1STR    C0W 2641  14.231  15.126  45.585
    1STR    C0X 2642  14.063  15.172  45.390
    1STR    N0Y 2643  14.143  15.126  45.282
    1STR   BCK2 2644  14.258  15.062  45.252
    1STR    O10 2645  14.297  15.069  45.136
    1STR    C13 2646  13.935  15.227  45.356
    1STR    C14 2647   1.285  15.086  45.503
    1STR    C15 2648   1.152  15.113  45.536
    1STR    C16 2649   1.047  15.082  45.447
    1STR    C17 2650   0.908  15.130  45.484
    1STR    H1B 2651   0.991  15.006  45.137
    1STR    H1C 2652   1.237  14.945  45.197
    1STR    H1D 2653   1.479  14.993  45.247
    1STR    H1E 2654   1.806  15.053  45.509
    1STR    H1F 2655   1.837  14.774  45.386
    1STR    H1G 2656   1.923  14.835  45.527
    1STR    H1H 2657   1.750  14.811  45.535
    1STR    H1I 2658   1.915  15.139  45.306
    1STR    H1J 2659   1.940  14.976  45.246
    1STR    H1K 2660   2.177  15.029  45.248
    1STR    H1M 2661   2.178  15.260  45.451
    1STR    H1N 2662   2.104  15.266  45.292
    1STR    H1O 2663   2.279  15.253  45.307
    1STR    H1P 2664   2.298  15.041  45.529
    1STR    H1Q 2665   2.284  14.897  45.430
    1STR   C010 2666   2.539  14.994  45.422
    1STR   H011 2667   2.535  15.013  45.530
    1STR   C012 2668   2.558  14.844  45.397
    1STR   H013 2669   2.558  14.821  45.290
    1STR   H014 2670   2.481  14.784  45.444
    1STR   H015 2671   2.654  14.809  45.438
    1STR   C016 2672   2.658  15.075  45.365
    1STR   H017 2673   2.665  15.059  45.257
    1STR   H018 2674   2.639  15.181  45.380
    1STR   O019 2675   2.781  15.037  45.428
    1STR   C020 2676   2.899  15.102  45.380
    1STR   H021 2677   2.897  15.106  45.270
    1STR   C022 2678   2.907  15.245  45.437
    1STR   H023 2679   2.904  15.243  45.546
    1STR   H024 2680   2.825  15.308  45.402
    1STR   H025 2681   3.000  15.293  45.407
    1STR   C026 2682   3.022  15.019  45.421
    1STR   H027 2683   3.028  15.013  45.530
    1STR   H028 2684   3.011  14.917  45.384
    1STR   O029 2685   3.141  15.078  45.367
    1STR   C030 2686   3.264  15.013  45.402
    1STR   H031 2687   3.263  14.987  45.508
    1STR   C032 2688   3.282  14.887  45.317
    1STR   H033 2689   3.278  14.910  45.210
    1STR   H034 2690   3.206  14.812  45.337
    1STR   H035 2691   3.378  14.840  45.337
    1STR   C036 2692   3.379  15.113  45.379
    1STR   H037 2693   3.383  15.141  45.274
    1STR   H038 2694   3.359  15.204  45.435
    1STR   O039 2695   3.503  15.054  45.420
    1STR   C040 2696   3.619  15.135  45.400
    1STR   H041 2697   3.615  15.182  45.301
    1STR   C042 2698   3.627  15.243  45.509
    1STR   H043 2699   3.627  15.198  45.609
    1STR   H044 2700   3.545  15.314  45.504
    1STR   H045 2701   3.720  15.300  45.499
    1STR   C046 2702   3.742  15.043  45.403
    1STR   H047 2703   3.750  14.995  45.501
    1STR   H048 2704   3.728  14.963  45.329
    1STR   O049 2705   3.860  15.118  45.374
    1STR   C050 2706   3.982  15.044  45.378
    1STR   H051 2707   3.983  14.978  45.465
    1STR   C052 2708   3.998  14.962  45.249
    1STR   H053 2709   3.992  15.026  45.161
    1STR   H054 2710   3.921  14.885  45.240
    1STR   H055 2711   4.094  14.912  45.247
    1STR   C056 2712   4.097  15.145  45.395
    1STR   H057 2713   4.100  15.213  45.309
    1STR   H058 2714   4.078  15.207  45.483
    1STR   O059 2715   4.220  15.075  45.408
    1STR   C060 2716   4.336  15.158  45.420
    1STR   H061 2717   4.331  15.241  45.349
    1STR   C062 2718   4.347  15.212  45.564
    1STR   H063 2719   4.347  15.131  45.637
    1STR   H064 2720   4.264  15.279  45.589
    1STR   H065 2721   4.439  15.269  45.577
    1STR   C066 2722   4.458  15.072  45.384
    1STR   H067 2723   4.468  14.989  45.454
    1STR   H068 2724   4.443  15.029  45.285
    1STR   O069 2725   4.576  15.153  45.386
    1STR   C070 2726   4.697  15.084  45.358
    1STR   H071 2727   4.700  14.989  45.410
    1STR   C072 2728   4.710  15.061  45.206
    1STR   H073 2729   4.704  15.155  45.151
    1STR   H074 2730   4.634  14.994  45.168
    1STR   H075 2731   4.807  15.016  45.182
    1STR   C076 2732   4.813  15.171  45.411
    1STR   H077 2733   4.814  15.267  45.359
    1STR   H078 2734   4.795  15.191  45.517
    1STR   O079 2735   4.936  15.101  45.394
    1STR   C080 2736   5.052  15.173  45.436
    1STR   H081 2737   5.046  15.277  45.404
    1STR   C082 2738   5.065  15.165  45.589
    1STR   H083 2739   5.066  15.062  45.624
    1STR   H084 2740   4.984  15.217  45.640
    1STR   H085 2741   5.158  15.212  45.622
    1STR   C086 2742   5.173  15.108  45.366
    1STR   H087 2743   5.183  15.004  45.398
    1STR   H088 2744   5.156  15.108  45.259
    1STR   O089 2745   5.291  15.182  45.398
    1STR   C090 2746   5.411  15.131  45.343
    1STR   H091 2747   5.414  15.022  45.353
    1STR   C092 2748   5.422  15.170  45.195
    1STR   H093 2749   5.415  15.278  45.182
    1STR   H094 2750   5.344  15.123  45.134
    1STR   H095 2751   5.518  15.138  45.153
    1STR   C096 2752   5.528  15.189  45.425
    1STR   H097 2753   5.529  15.298  45.415
    1STR   H098 2754   5.512  15.166  45.530
    1STR   O099 2755   5.651  15.133  45.379
    1STR   C100 2756   5.767  15.181  45.445
    1STR   H101 2757   5.762  15.290  45.457
    1STR   C102 2758   5.783  15.114  45.582
    1STR   H103 2759   5.784  15.005  45.572
    1STR   H104 2760   5.702  15.140  45.650
    1STR   H105 2761   5.876  15.144  45.629
    1STR   C106 2762   5.887  15.151  45.353
    1STR   H107 2763   5.897  15.043  45.340
    1STR   H108 2764   5.868  15.193  45.255
    1STR   O109 2765   6.006  15.206  45.410
    1STR   C110 2766   6.125  15.181  45.336
    1STR   H111 2767   6.128  15.078  45.302
    1STR   C112 2768   6.133  15.277  45.216
    1STR   H113 2769   6.126  15.381  45.248
    1STR   H114 2770   6.055  15.258  45.143
    1STR   H115 2771   6.228  15.265  45.164
    1STR   C116 2772   6.243  15.202  45.433
    1STR   H117 2773   6.245  15.305  45.468
    1STR   H118 2774   6.229  15.139  45.520
    1STR   O119 2775   6.365  15.169  45.366
    1STR   C120 2776   6.483  15.188  45.444
    1STR   H121 2777   6.478  15.283  45.498
    1STR   C122 2778   6.500  15.071  45.542
    1STR   H123 2779   6.501  14.976  45.490
    1STR   H124 2780   6.421  15.068  45.617
    1STR   H125 2781   6.595  15.080  45.596
    1STR   C126 2782   6.601  15.197  45.346
    1STR   H127 2783   6.611  15.103  45.291
    1STR   H128 2784   6.581  15.275  45.273
    1STR   O129 2785   6.721  15.225  45.418
    1STR   C130 2786   6.839  15.232  45.339
    1STR   H131 2787   6.840  15.151  45.266
    1STR   C132 2788   6.846  15.368  45.267
    1STR   H133 2789   6.839  15.450  45.337
    1STR   H134 2790   6.766  15.380  45.194
    1STR   H135 2791   6.940  15.378  45.212
    1STR   C136 2792   6.958  15.213  45.434
    1STR   H137 2793   6.961  15.294  45.507
    1STR   H138 2794   6.945  15.120  45.489
    1STR   O139 2795   7.079  15.210  45.358
    1STR   C140 2796   7.198  15.196  45.434
    1STR   H141 2797   7.194  15.261  45.522
    1STR   C142 2798   7.217  15.050  45.477
    1STR   H143 2799   7.216  14.983  45.391
    1STR   H144 2800   7.139  15.017  45.546
    1STR   H145 2801   7.312  15.037  45.529
    1STR   C146 2802   7.315  15.244  45.346
    1STR   H147 2803   7.323  15.180  45.258
    1STR   H148 2804   7.294  15.345  45.311
    1STR   O149 2805   7.436  15.241  45.422
    1STR   C150 2806   7.553  15.280  45.350
    1STR   H151 2807   7.553  15.234  45.251
    1STR   C152 2808   7.559  15.433  45.338
    1STR   H153 2809   7.554  15.480  45.436
    1STR   H154 2810   7.478  15.472  45.277
    1STR   H155 2811   7.652  15.464  45.291
    1STR   C156 2812   7.673  15.225  45.427
    1STR   H157 2813   7.678  15.269  45.527
    1STR   H158 2814   7.661  15.117  45.441
    1STR   O159 2815   7.793  15.252  45.355
    1STR   C160 2816   7.913  15.210  45.418
    1STR   H161 2817   7.911  15.234  45.524
    1STR   C162 2818   7.932  15.058  45.398
    1STR   H163 2819   7.930  15.031  45.293
    1STR   H164 2820   7.855  15.000  45.449
    1STR   H165 2821   8.028  15.026  45.439
    1STR   C166 2822   8.029  15.289  45.354
    1STR   H167 2823   8.035  15.266  45.247
    1STR   H168 2824   8.007  15.395  45.362
    1STR   O169 2825   8.151  15.257  45.420
    1STR   C170 2826   8.267  15.321  45.368
    1STR   H171 2827   8.265  15.318  45.259
    1STR   C172 2828   8.273  15.466  45.418
    1STR   H173 2829   8.270  15.470  45.527
    1STR   H174 2830   8.191  15.526  45.379
    1STR   H175 2831   8.366  15.514  45.385
    1STR   C176 2832   8.388  15.240  45.415
    1STR   H177 2833   8.394  15.241  45.524
    1STR   H178 2834   8.376  15.136  45.385
    1STR   O179 2835   8.507  15.294  45.357
    1STR   C180 2836   8.628  15.230  45.396
    1STR   H181 2837   8.627  15.210  45.503
    1STR   C182 2838   8.646  15.099  45.318
    1STR   H183 2839   8.642  15.117  45.210
    1STR   H184 2840   8.569  15.026  45.342
    1STR   H185 2841   8.742  15.054  45.340
    1STR   C186 2842   8.743  15.329  45.367
    1STR   H187 2843   8.747  15.350  45.260
    1STR   H188 2844   8.722  15.423  45.418
    1STR   O189 2845   8.865  15.273  45.413
    1STR   C190 2846   8.981  15.353  45.389
    1STR   H191 2847   8.977  15.395  45.288
    1STR   C192 2848   8.989  15.467  45.492
    1STR   H193 2849   8.988  15.427  45.594
    1STR   H194 2850   8.906  15.537  45.483
    1STR   H195 2851   9.081  15.523  45.480
    1STR   C196 2852   9.103  15.261  45.397
    1STR   H197 2853   9.111  15.218  45.498
    1STR   H198 2854   9.090  15.177  45.328
    1STR   O199 2855   9.221  15.334  45.364
    1STR   C200 2856   9.342  15.260  45.372
    1STR   H201 2857   9.343  15.199  45.463
    1STR   C202 2858   9.358  15.172  45.248
    1STR   H203 2859   9.353  15.231  45.157
    1STR   H204 2860   9.282  15.094  45.242
    1STR   H205 2861   9.455  15.121  45.249
    1STR   C206 2862   9.457  15.362  45.384
    1STR   H207 2863   9.460  15.425  45.294
    1STR   H208 2864   9.437  15.428  45.468
    1STR   O209 2865   9.580  15.293  45.401
    1STR   C210 2866   9.696  15.377  45.409
    1STR   H211 2867   9.691  15.455  45.333
    1STR   C212 2868   9.706  15.439  45.549
    1STR   H213 2869   9.706  15.362  45.627
    1STR   H214 2870   9.624  15.507  45.570
    1STR   H215 2871   9.798  15.496  45.559
    1STR   C216 2872   9.818  15.289  45.378
    1STR   H217 2873   9.827  15.210  45.453
    1STR   H218 2874   9.803  15.240  45.282
    1STR   O219 2875   9.935  15.370  45.375
    1STR   C220 2876  10.057  15.299  45.351
    1STR   H221 2877  10.059  15.207  45.409
    1STR   C222 2878  10.070  15.268  45.201
    1STR   H223 2879  10.063  15.359  45.141
    1STR   H224 2880   9.993  15.199  45.167
    1STR   H225 2881  10.166  15.222  45.180
    1STR   C226 2882  10.172  15.389  45.400
    1STR   H227 2883  10.174  15.482  45.343
    1STR   H228 2884  10.154  15.415  45.505
    1STR   O229 2885  10.295  15.319  45.387
    1STR   C230 2886  10.411  15.392  45.426
    1STR   H231 2887  10.405  15.494  45.388
    1STR   C232 2888  10.424  15.393  45.579
    1STR   H233 2889  10.425  15.292  45.619
    1STR   H234 2890  10.342  15.447  45.626
    1STR   H235 2891  10.516  15.442  45.609
    1STR   C236 2892  10.533  15.324  45.360
    1STR   H237 2893  10.543  15.222  45.397
    1STR   H238 2894  10.516  15.318  45.252
    1STR   O239 2895  10.650  15.400  45.388
    1STR   C240 2896  10.771  15.345  45.335
    1STR   H241 2897  10.774  15.237  45.352
    1STR   C242 2898  10.782  15.377  45.185
    1STR   H243 2899  10.774  15.484  45.167
    1STR   H244 2900  10.704  15.327  45.127
    1STR   H245 2901  10.878  15.343  45.146
    1STR   C246 2902  10.888  15.408  45.414
    1STR   H247 2903  10.889  15.516  45.399
    1STR   H248 2904  10.872  15.390  45.521
    1STR   O249 2905  11.011  15.350  45.372
    1STR   C250 2906  11.128  15.402  45.435
    1STR   H251 2907  11.122  15.511  45.441
    1STR   C252 2908  11.142  15.342  45.576
    1STR   H253 2909  11.143  15.233  45.572
    1STR   H254 2910  11.062  15.372  45.642
    1STR   H255 2911  11.236  15.374  45.622
    1STR   C256 2912  11.248  15.366  45.346
    1STR   H257 2913  11.258  15.258  45.339
    1STR   H258 2914  11.230  15.403  45.245
    1STR   O259 2915  11.367  15.424  45.400
    1STR   C260 2916  11.487  15.396  45.328
    1STR   H261 2917  11.490  15.290  45.300
    1STR   C262 2918  11.495  15.484  45.203
    1STR   H263 2919  11.487  15.590  45.229
    1STR   H264 2920  11.416  15.461  45.131
    1STR   H265 2921  11.590  15.470  45.151
    1STR   C266 2922  11.606  15.422  45.423
    1STR   H267 2923  11.607  15.527  45.452
    1STR   H268 2924  11.592  15.364  45.514
    1STR   O269 2925  11.728  15.387  45.359
    1STR   C270 2926  11.847  15.409  45.436
    1STR   H271 2927  11.841  15.507  45.485
    1STR   C272 2928  11.862  15.298  45.540
    1STR   H273 2929  11.862  15.199  45.494
    1STR   H274 2930  11.783  15.300  45.615
    1STR   H275 2931  11.956  15.309  45.594
    1STR   C276 2932  11.966  15.412  45.339
    1STR   H277 2933  11.975  15.316  45.288
    1STR   H278 2934  11.947  15.487  45.262
    1STR   O279 2935  12.087  15.443  45.409
    1STR   C280 2936  12.206  15.446  45.330
    1STR   H281 2937  12.208  15.361  45.262
    1STR   C282 2938  12.211  15.578  45.251
    1STR   H283 2939  12.203  15.664  45.317
    1STR   H284 2940  12.131  15.584  45.177
    1STR   H285 2941  12.305  15.586  45.196
    1STR   C286 2942  12.327  15.434  45.425
    1STR   H287 2943  12.328  15.518  45.495
    1STR   H288 2944  12.315  15.343  45.485
    1STR   O289 2945  12.449  15.429  45.350
    1STR   C290 2946  12.569  15.418  45.427
    1STR   H291 2947  12.565  15.488  45.511
    1STR   C292 2948  12.585  15.274  45.478
    1STR   H293 2949  12.582  15.203  45.396
    1STR   H294 2950  12.507  15.247  45.549
    1STR   H295 2951  12.680  15.262  45.530
    1STR   C296 2952  12.687  15.459  45.336
    1STR   H297 2953  12.692  15.392  45.250
    1STR   H298 2954  12.668  15.559  45.297
    1STR   O299 2955  12.811  15.456  45.409
    1STR   C300 2956  12.927  15.490  45.333
    1STR   H301 2957  12.923  15.441  45.235
    1STR   C302 2958  12.935  15.642  45.316
    1STR   H303 2959  12.931  15.692  45.413
    1STR   H304 2960  12.854  15.681  45.255
    1STR   H305 2961  13.029  15.671  45.268
    1STR   C306 2962  13.052  15.434  45.406
    1STR   H307 2963  13.066  15.487  45.500
    1STR   H308 2964  13.033  15.330  45.430
    1STR   O309 2965  13.169  15.445  45.324
    1STR    H1R 2966  13.301  15.440  45.482
    1STR    H1S 2967  13.385  15.206  45.429
    1STR    H1T 2968  13.272  15.199  45.294
    1STR    H1U 2969  13.213  15.206  45.460
    1STR    H1V 2970  13.404  15.549  45.276
    1STR    H1W 2971  13.417  15.391  45.202
    1STR    H1X 2972  13.693  15.410  45.504
    1STR    H1Y 2973  13.841  15.355  45.658
    1STR    H1Z 2974  14.052  15.257  45.723
    1STR    H20 2975  14.228  15.017  45.578
    1STR    H21 2976  14.317  15.168  45.533
    1STR    H22 2977  14.243  15.149  45.690
    1STR    H23 2978  14.103  15.151  45.194
    1STR    H27 2979  13.899  15.221  45.254
    1STR    H28 2980   1.360  15.116  45.575
    1STR    H29 2981   1.130  15.161  45.630
    1STR    H2A 2982   0.854  15.163  45.396
    1STR    H2B 2983   0.913  15.214  45.553
    1STR    H2C 2984   0.852  15.051  45.533
    1STR   BCK1 2985   0.862  29.972   0.001
    1STR    O03 2986   0.819  30.023  60.058
    1STR    N04 2987   0.989  29.932   0.019
    1STR    C05 2988   1.085  29.901  60.079
    1STR    C06 2989   1.221  29.943  60.089
    1STR    C07 2990   1.321  29.902  59.995
    1STR    N08 2991   1.457  29.939  60.008
    1STR    C09 2992   1.566  29.884  59.950
    1STR    O0A 2993   1.563  29.786  59.877
    1STR    O0B 2994   1.683  29.949  59.981
    1STR    C0C 2995   1.806  29.911  59.917
    1STR    C0D 2996   1.818  29.984  59.782
    1STR    C0E 2997   1.931  29.937  60.005
    1STR    O0F 2998   2.051  29.893  59.937
    1STR    C0G 2999   2.174  29.905  60.010
    1STR    C0H 3000   2.184  29.791  60.113
    1STR    C0I 3001   2.294  29.899  59.912
    1STR    O0J 3002   2.417  29.918  59.983
    1STR    C0K 3003  13.291  29.624   0.049
    1STR    C0M 3004  13.294  29.737  60.105
    1STR    C0N 3005  13.411  29.638   0.146
    1STR    O0O 3006  13.534  29.611   0.077
    1STR    C0P 3007  13.642  29.690   0.092
    1STR    O0Q 3008  13.647  29.794   0.158
    1STR    N0R 3009  13.744  29.639   0.022
    1STR    C0S 3010  13.874  29.684  60.154
    1STR    C0T 3011  13.941  29.620  60.048
    1STR    C0U 3012  14.067  29.664  60.005
    1STR    C0V 3013  14.131  29.773  60.068
    1STR    C0W 3014  14.256  29.829  60.002
    1STR    C0X 3015  14.071  29.834   0.021
    1STR    N0Y 3016  14.127  29.946   0.084
    1STR   BCK2 3017  14.248  29.978   0.131
    1STR    O10 3018  14.267  30.093   0.171
    1STR    C13 3019  13.941  29.791   0.061
    1STR    C14 3020   1.277  29.823  59.886
    1STR    C15 3021   1.144  29.778  59.877
    1STR    C16 3022   1.049  29.813  59.974
    1STR    C17 3023   0.913  29.747  59.964
    1STR    H1B 3024   1.014  29.913   0.114
    1STR    H1C 3025   1.250  30.006   0.012
    1STR    H1D 3026   1.480  30.016  60.069
    1STR    H1E 3027   1.805  29.803  59.898
    1STR    H1F 3028   1.822  30.092  59.795
    1STR    H1G 3029   1.908  29.953  59.729
    1STR    H1H 3030   1.733  29.961  59.717
    1STR    H1I 3031   1.919  29.884  60.099
    1STR    H1J 3032   1.939  30.043  60.029
    1STR    H1K 3033   2.177  30.002  60.060
    1STR    H1M 3034   2.177  29.694  60.064
    1STR    H1N 3035   2.106  29.797   0.029
    1STR    H1O 3036   2.280  29.795   0.005
    1STR    H1P 3037   2.295  29.803  59.859
    1STR    H1Q 3038   2.282  29.976  59.835
    1STR   C010 3039   2.538  29.909  59.906
    1STR   H011 3040   2.533  29.823  59.839
    1STR   C012 3041   2.556  30.037  59.823
    1STR   H013 3042   2.556  30.126  59.886
    1STR   H014 3043   2.479  30.050  59.747
    1STR   H015 3044   2.652  30.035  59.770
    1STR   C016 3045   2.657  29.889  60.002
    1STR   H017 3046   2.663  29.973  60.071
    1STR   H018 3047   2.638  29.800  60.063
    1STR   O019 3048   2.780  29.875  59.930
    1STR   C020 3049   2.897  29.859  60.011
    1STR   H021 3050   2.895  29.930  60.094
    1STR   C022 3051   2.905  29.716  60.065
    1STR   H023 3052   2.903  29.643  59.984
    1STR   H024 3053   2.824  29.692  60.133
    1STR   H025 3054   2.998  29.700  60.120
    1STR   C026 3055   3.021  29.892  59.924
    1STR   H027 3056   3.027  29.823  59.840
    1STR   H028 3057   3.009  29.992  59.883
    1STR   O029 3058   3.140  29.885  60.004
    1STR   C030 3059   3.262  29.909  59.934
    1STR   H031 3060   3.262  29.857  59.838
    1STR   C032 3061   3.281  30.060  59.912
    1STR   H033 3062   3.277  30.115  60.006
    1STR   H034 3063   3.205  30.102  59.846
    1STR   H035 3064   3.377  30.081  59.866
    1STR   C036 3065   3.378  29.851  60.018
    1STR   H037 3066   3.382  29.902  60.115
    1STR   H038 3067   3.358  29.746  60.038
    1STR   O039 3068   3.502  29.867  59.948
    1STR   C040 3069   3.618  29.821  60.018
    1STR   H041 3070   3.614  29.853  60.122
    1STR   C042 3071   3.627  29.668  60.010
    1STR   H043 3072   3.626  29.634  59.906
    1STR   H044 3073   3.544  29.619  60.062
    1STR   H045 3074   3.719  29.632  60.056
    1STR   C046 3075   3.741  29.887  59.953
    1STR   H047 3076   3.749  29.857  59.849
    1STR   H048 3077   3.728  29.995  59.954
    1STR   O049 3078   3.859  29.851  60.025
    1STR   C050 3079   3.981  29.902  59.972
    1STR   H051 3080   3.982  29.893  59.864
    1STR   C052 3081   3.997  30.050  60.012
    1STR   H053 3082   3.992  30.062  60.120
    1STR   H054 3083   3.921  30.113  59.967
    1STR   H055 3084   4.094  30.088  59.980
    1STR   C056 3085   4.096  29.817  60.028
    1STR   H057 3086   4.099  29.825  60.137
    1STR   H058 3087   4.077  29.712  60.005
    1STR   O059 3088   4.220  29.859  59.971
    1STR   C060 3089   4.335  29.790  60.018
    1STR   H061 3090   4.330  29.777  60.127
    1STR   C062 3091   4.346  29.653  59.949
    1STR   H063 3092   4.347  29.664  59.841
    1STR   H064 3093   4.264  29.587  59.976
    1STR   H065 3094   4.439  29.603  59.978
    1STR   C066 3095   4.458  29.878  59.987
    1STR   H067 3096   4.467  29.892  59.879
    1STR   H068 3097   4.443  29.977  60.031
    1STR   O069 3098   4.575  29.817  60.040
    1STR   C070 3099   4.697  29.887  60.014
    1STR   H071 3100   4.699  29.922  59.911
    1STR   C072 3101   4.710  30.006  60.110
    1STR   H073 3102   4.703  29.974   0.054
    1STR   H074 3103   4.633  30.082  60.093
    1STR   H075 3104   4.807  30.056  60.098
    1STR   C076 3105   4.812  29.787  60.033
    1STR   H077 3106   4.814  29.751  60.136
    1STR   H078 3107   4.795  29.700  59.970
    1STR   O079 3108   4.936  29.850  60.000
    1STR   C080 3109   5.052  29.769  60.017
    1STR   H081 3110   5.046  29.714  60.111
    1STR   C082 3111   5.065  29.671  59.899
    1STR   H083 3112   5.066  29.724  59.804
    1STR   H084 3113   4.984  29.599  59.896
    1STR   H085 3114   5.158  29.614  59.906
    1STR   C086 3115   5.173  29.863  60.025
    1STR   H087 3116   5.183  29.919  59.931
    1STR   H088 3117   5.156  29.936  60.104
    1STR   O089 3118   5.291  29.787  60.051
    1STR   C090 3119   5.411  29.863  60.057
    1STR   H091 3120   5.414  29.936  59.976
    1STR   C092 3121   5.422  29.934   0.033
    1STR   H093 3122   5.415  29.863   0.115
    1STR   H094 3123   5.344  30.009   0.046
    1STR   H095 3124   5.518  29.985   0.042
    1STR   C096 3125   5.528  29.765  60.036
    1STR   H097 3126   5.529  29.691  60.116
    1STR   H098 3127   5.512  29.710  59.943
    1STR   O099 3128   5.651  29.837  60.032
    1STR   C100 3129   5.767  29.757  60.016
    1STR   H101 3130   5.761  29.668  60.080
    1STR   C102 3131   5.783  29.714  59.869
    1STR   H103 3132   5.784  29.801  59.803
    1STR   H104 3133   5.702  29.648  59.837
    1STR   H105 3134   5.876  29.660  59.855
    1STR   C106 3135   5.887  29.841  60.063
    1STR   H107 3136   5.897  29.929  60.000
    1STR   H108 3137   5.868  29.876   0.004
    1STR   O109 3138   6.006  29.762  60.058
    1STR   C110 3139   6.125  29.830  60.096
    1STR   H111 3140   6.128  29.929  60.051
    1STR   C112 3141   6.134  29.840   0.089
    1STR   H113 3142   6.126  29.742   0.136
    1STR   H114 3143   6.055  29.903   0.130
    1STR   H115 3144   6.229  29.884   0.119
    1STR   C116 3145   6.243  29.749  60.039
    1STR   H117 3146   6.245  29.649  60.083
    1STR   H118 3147   6.229  29.737  59.931
    1STR   O119 3148   6.365  29.818  60.065
    1STR   C120 3149   6.483  29.752  60.021
    1STR   H121 3150   6.478  29.645  60.045
    1STR   C122 3151   6.500  29.772  59.870
    1STR   H123 3152   6.501  29.878  59.844
    1STR   H124 3153   6.421  29.724  59.812
    1STR   H125 3154   6.595  29.729  59.836
    1STR   C126 3155   6.601  29.812  60.099
    1STR   H127 3156   6.611  29.918  60.077
    1STR   H128 3157   6.581  29.803   0.046
    1STR   O129 3158   6.721  29.742  60.065
    1STR   C130 3159   6.839  29.791  60.128
    1STR   H131 3160   6.840  29.900  60.127
    1STR   C132 3161   6.846  29.740   0.113
    1STR   H133 3162   6.839  29.631   0.117
    1STR   H134 3163   6.765  29.780   0.175
    1STR   H135 3164   6.940  29.769   0.160
    1STR   C136 3165   6.958  29.741  60.046
    1STR   H137 3166   6.961  29.631  60.046
    1STR   H138 3167   6.945  29.772  59.942
    1STR   O139 3168   7.079  29.794  60.099
    1STR   C140 3169   7.198  29.752  60.034
    1STR   H141 3170   7.194  29.645  60.013
    1STR   C142 3171   7.217  29.831  59.903
    1STR   H143 3172   7.216  29.939  59.922
    1STR   H144 3173   7.139  29.809  59.830
    1STR   H145 3174   7.312  29.806  59.856
    1STR   C146 3175   7.315  29.777  60.131
    1STR   H147 3176   7.323  29.883  60.153
    1STR   H148 3177   7.294  29.726   0.065
    1STR   O149 3178   7.436  29.728  60.074
    1STR   C150 3179   7.553  29.748  60.152
    1STR   H151 3180   7.553  29.849   0.035
    1STR   C152 3181   7.559  29.643   0.105
    1STR   H153 3182   7.554  29.542   0.065
    1STR   H154 3183   7.478  29.655   0.176
    1STR   H155 3184   7.652  29.652   0.161
    1STR   C156 3185   7.673  29.736  60.058
    1STR   H157 3186   7.678  29.636  60.015
    1STR   H158 3187   7.661  29.806  59.975
    1STR   O159 3188   7.793  29.765  60.130
    1STR   C160 3189   7.913  29.754  60.055
    1STR   H161 3190   7.911  29.664  59.993
    1STR   C162 3191   7.932  29.878  59.967
    1STR   H163 3192   7.930  29.969  60.027
    1STR   H164 3193   7.855  29.887  59.891
    1STR   H165 3194   8.028  29.875  59.915
    1STR   C166 3195   8.029  29.738  60.156
    1STR   H167 3196   8.035  29.827   0.059
    1STR   H168 3197   8.007  29.654   0.061
    1STR   O169 3198   8.151  29.717  60.085
    1STR   C170 3199   8.267  29.706   0.007
    1STR   H171 3200   8.265  29.781   0.086
    1STR   C172 3201   8.273  29.565   0.068
    1STR   H173 3202   8.270  29.488  60.151
    1STR   H174 3203   8.191  29.546   0.137
    1STR   H175 3204   8.366  29.551   0.124
    1STR   C176 3205   8.388  29.734  60.078
    1STR   H177 3206   8.394  29.659  59.998
    1STR   H178 3207   8.376  29.831  60.030
    1STR   O179 3208   8.507  29.732  60.157
    1STR   C180 3209   8.628  29.753  60.085
    1STR   H181 3210   8.627  29.696  59.993
    1STR   C182 3211   8.646  29.903  60.055
    1STR   H183 3212   8.642  29.962  60.146
    1STR   H184 3213   8.569  29.940  59.987
    1STR   H185 3214   8.742  29.921  60.007
    1STR   C186 3215   8.743  29.700   0.013
    1STR   H187 3216   8.747  29.757   0.106
    1STR   H188 3217   8.722  29.596   0.039
    1STR   O189 3218   8.865  29.710  60.102
    1STR   C190 3219   8.981  29.668   0.014
    1STR   H191 3220   8.977  29.705   0.116
    1STR   C192 3221   8.989  29.514   0.014
    1STR   H193 3222   8.988  29.475  60.072
    1STR   H194 3223   8.907  29.469   0.068
    1STR   H195 3224   9.081  29.480   0.061
    1STR   C196 3225   9.103  29.730  60.105
    1STR   H197 3226   9.111  29.694  60.002
    1STR   H198 3227   9.090  29.838  60.099
    1STR   O199 3228   9.221  29.698   0.019
    1STR   C200 3229   9.342  29.747  60.123
    1STR   H201 3230   9.343  29.732  60.015
    1STR   C202 3231   9.358  29.897  60.155
    1STR   H203 3232   9.353  29.915   0.102
    1STR   H204 3233   9.282  29.957  60.107
    1STR   H205 3234   9.455  29.933  60.120
    1STR   C206 3235   9.457  29.664   0.024
    1STR   H207 3236   9.460  29.679   0.132
    1STR   H208 3237   9.437  29.559   0.006
    1STR   O209 3238   9.580  29.703  60.124
    1STR   C210 3239   9.696  29.636   0.014
    1STR   H211 3240   9.691  29.630   0.123
    1STR   C212 3241   9.706  29.496  60.113
    1STR   H213 3242   9.706  29.500  60.004
    1STR   H214 3243   9.623  29.431  60.144
    1STR   H215 3244   9.798  29.447  60.144
    1STR   C216 3245   9.818  29.722  60.138
    1STR   H217 3246   9.827  29.730  60.029
    1STR   H218 3247   9.803  29.823   0.016
    1STR   O219 3248   9.935  29.665   0.034
    1STR   C220 3249  10.057  29.733   0.005
    1STR   H221 3250  10.059  29.762  60.059
    1STR   C222 3251  10.070  29.857   0.094
    1STR   H223 3252  10.063  29.831   0.200
    1STR   H224 3253   9.993  29.931   0.073
    1STR   H225 3254  10.166  29.906   0.078
    1STR   C226 3255  10.172  29.634   0.029
    1STR   H227 3256  10.174  29.604   0.134
    1STR   H228 3257  10.154  29.544  60.130
    1STR   O229 3258  10.295  29.694  60.152
    1STR   C230 3259  10.411  29.614   0.013
    1STR   H231 3260  10.405  29.564   0.110
    1STR   C232 3261  10.423  29.510  60.060
    1STR   H233 3262  10.425  29.557  59.962
    1STR   H234 3263  10.342  29.438  60.062
    1STR   H235 3264  10.516  29.453  60.071
    1STR   C236 3265  10.532  29.708   0.015
    1STR   H237 3266  10.542  29.759  60.079
    1STR   H238 3267  10.516  29.785   0.090
    1STR   O239 3268  10.650  29.634   0.046
    1STR   C240 3269  10.771  29.709   0.047
    1STR   H241 3270  10.774  29.778  60.123
    1STR   C242 3271  10.782  29.788   0.179
    1STR   H243 3272  10.774  29.721   0.265
    1STR   H244 3273  10.704  29.863   0.188
    1STR   H245 3274  10.877  29.839   0.186
    1STR   C246 3275  10.888  29.610   0.032
    1STR   H247 3276  10.889  29.540   0.116
    1STR   H248 3277  10.872  29.551  60.101
    1STR   O249 3278  11.011  29.682   0.024
    1STR   C250 3279  11.127  29.601   0.012
    1STR   H251 3280  11.121  29.516   0.081
    1STR   C252 3281  11.142  29.550  60.028
    1STR   H253 3282  11.143  29.633  59.957
    1STR   H254 3283  11.061  29.483  59.999
    1STR   H255 3284  11.235  29.495  60.015
    1STR   C256 3285  11.248  29.687   0.054
    1STR   H257 3286  11.258  29.772  60.146
    1STR   H258 3287  11.230  29.727   0.153
    1STR   O259 3288  11.367  29.608   0.053
    1STR   C260 3289  11.486  29.677   0.087
    1STR   H261 3290  11.489  29.774   0.036
    1STR   C262 3291  11.494  29.696   0.239
    1STR   H263 3292  11.486  29.601   0.291
    1STR   H264 3293  11.415  29.762   0.276
    1STR   H265 3294  11.589  29.742   0.267
    1STR   C266 3295  11.605  29.594   0.035
    1STR   H267 3296  11.606  29.496   0.084
    1STR   H268 3297  11.591  29.576  60.088
    1STR   O269 3298  11.727  29.663   0.058
    1STR   C270 3299  11.845  29.595   0.016
    1STR   H271 3300  11.840  29.490   0.046
    1STR   C272 3301  11.861  29.606  60.024
    1STR   H273 3302  11.861  29.711  59.992
    1STR   H274 3303  11.782  29.555  59.970
    1STR   H275 3304  11.955  29.562  59.991
    1STR   C276 3305  11.965  29.658   0.090
    1STR   H277 3306  11.974  29.763   0.062
    1STR   H278 3307  11.946  29.655   0.197
    1STR   O279 3308  12.085  29.588   0.059
    1STR   C280 3309  12.204  29.638   0.119
    1STR   H281 3310  12.206  29.747   0.112
    1STR   C282 3311  12.210  29.595   0.267
    1STR   H283 3312  12.202  29.487   0.276
    1STR   H284 3313  12.130  29.640   0.326
    1STR   H285 3314  12.304  29.625   0.313
    1STR   C286 3315  12.325  29.584   0.041
    1STR   H287 3316  12.327  29.475   0.046
    1STR   H288 3317  12.313  29.610  60.096
    1STR   O289 3318  12.447  29.638   0.092
    1STR   C290 3319  12.567  29.594   0.028
    1STR   H291 3320  12.563  29.486   0.013
    1STR   C292 3321  12.583  29.665  60.053
    1STR   H293 3322  12.580  29.774  60.066
    1STR   H294 3323  12.504  29.638  59.982
    1STR   H295 3324  12.678  29.639  60.007
    1STR   C296 3325  12.685  29.624   0.122
    1STR   H297 3326  12.691  29.732   0.140
    1STR   H298 3327  12.666  29.577   0.219
    1STR   O299 3328  12.809  29.576   0.067
    1STR   C300 3329  12.926  29.601   0.145
    1STR   H301 3330  12.923  29.703   0.184
    1STR   C302 3331  12.931  29.500   0.262
    1STR   H303 3332  12.926  29.398   0.225
    1STR   H304 3333  12.850  29.515   0.333
    1STR   H305 3334  13.025  29.511   0.317
    1STR   C306 3335  13.050  29.589   0.054
    1STR   H307 3336  13.060  29.486   0.018
    1STR   H308 3337  13.034  29.652  60.127
    1STR   O309 3338  13.169  29.630   0.124
    1STR    H1R 3339  13.298  29.527  60.159
    1STR    H1S 3340  13.390  29.740  60.053
    1STR    H1T 3341  13.280  29.834  60.152
    1STR    H1U 3342  13.217  29.726  60.028
    1STR    H1V 3343  13.401  29.566   0.227
    1STR    H1W 3344  13.411  29.736   0.193
    1STR    H1X 3345  13.715  29.554  60.138
    1STR    H1Y 3346  13.895  29.538  59.995
    1STR    H1Z 3347  14.113  29.617  59.920
    1STR    H20 3348  14.263  29.937  60.015
    1STR    H21 3349  14.345  29.782  60.044
    1STR    H22 3350  14.256  29.809  59.895
    1STR    H23 3351  14.062  30.022   0.100
    1STR    H27 3352  13.891  29.840   0.143
    1STR    H28 3353   1.344  29.792  59.807
    1STR    H29 3354   1.117  29.714  59.795
    1STR    H2A 3355   0.875  29.721  60.063
    1STR    H2B 3356   0.917  29.655  59.907
    1STR    H2C 3357   0.842  29.814  59.916
    1STR   BCK1 3358   0.873  30.096  15.115
    1STR    O03 3359   0.819  30.182  15.183
    1STR    N04 3360   0.997  30.105  15.063
    1STR    C05 3361   1.086  30.214  15.060
    1STR    C06 3362   1.225  30.193  15.081
    1STR    C07 3363   1.322  30.298  15.072
    1STR    N08 3364   1.460  30.272  15.088
    1STR    C09 3365   1.565  30.357  15.095
    1STR    O0A 3366   1.555  30.479  15.097
    1STR    O0B 3367   1.685  30.293  15.101
    1STR    C0C 3368   1.807  30.369  15.115
    1STR    C0D 3369   1.825  30.410  15.262
    1STR    C0E 3370   1.931  30.292  15.063
    1STR    O0F 3371   2.050  30.371  15.080
    1STR    C0G 3372   2.173  30.312  15.034
    1STR    C0H 3373   2.182  30.325  14.881
    1STR    C0I 3374   2.294  30.383  15.101
    1STR    O0J 3375   2.416  30.320  15.061
    1STR    C0K 3376  13.300  30.370  14.720
    1STR    C0M 3377  13.291  30.367  14.873
    1STR    C0N 3378  13.422  30.285  14.674
    1STR    O0O 3379  13.545  30.347  14.713
    1STR    C0P 3380  13.643  30.282  14.781
    1STR    O0Q 3381  13.637  30.168  14.826
    1STR    N0R 3382  13.748  30.364  14.791
    1STR    C0S 3383  13.875  30.361  14.850
    1STR    C0T 3384  13.949  30.479  14.832
    1STR    C0U 3385  14.074  30.497  14.892
    1STR    C0V 3386  14.131  30.395  14.971
    1STR    C0W 3387  14.259  30.429  15.046
    1STR    C0X 3388  14.065  30.270  14.984
    1STR    N0Y 3389  14.125  30.169  15.063
    1STR   BCK2 3390  14.253  30.125  15.053
    1STR    O10 3391  14.324  30.146  14.955
    1STR    C13 3392  13.935  30.255  14.926
    1STR    C14 3393   1.273  30.427  15.043
    1STR    C15 3394   1.136  30.450  15.020
    1STR    C16 3395   1.043  30.345  15.024
    1STR    C17 3396   0.901  30.379  14.983
    1STR    H1B 3397   1.028  30.020  15.020
    1STR    H1C 3398   1.259  30.093  15.104
    1STR    H1D 3399   1.490  30.176  15.094
    1STR    H1E 3400   1.798  30.460  15.055
    1STR    H1F 3401   1.835  30.322  15.327
    1STR    H1G 3402   1.915  30.471  15.275
    1STR    H1H 3403   1.741  30.469  15.297
    1STR    H1I 3404   1.916  30.269  14.957
    1STR    H1J 3405   1.941  30.198  15.116
    1STR    H1K 3406   2.176  30.207  15.062
    1STR    H1M 3407   2.176  30.430  14.850
    1STR    H1N 3408   2.103  30.270  14.830
    1STR    H1O 3409   2.277  30.286  14.844
    1STR    H1P 3410   2.295  30.488  15.074
    1STR    H1Q 3411   2.282  30.378  15.209
    1STR   C010 3412   2.537  30.378  15.112
    1STR   H011 3413   2.533  30.487  15.103
    1STR   C012 3414   2.556  30.339  15.260
    1STR   H013 3415   2.555  30.231  15.273
    1STR   H014 3416   2.478  30.381  15.324
    1STR   H015 3417   2.651  30.376  15.298
    1STR   C016 3418   2.656  30.327  15.027
    1STR   H017 3419   2.662  30.219  15.033
    1STR   H018 3420   2.637  30.352  14.923
    1STR   O019 3421   2.779  30.386  15.071
    1STR   C020 3422   2.897  30.344  15.001
    1STR   H021 3423   2.895  30.235  14.988
    1STR   C022 3424   2.905  30.413  14.864
    1STR   H023 3425   2.902  30.521  14.875
    1STR   H024 3426   2.823  30.384  14.798
    1STR   H025 3427   2.998  30.387  14.813
    1STR   C026 3428   3.020  30.377  15.087
    1STR   H027 3429   3.026  30.485  15.103
    1STR   H028 3430   3.009  30.332  15.185
    1STR   O029 3431   3.140  30.330  15.024
    1STR   C030 3432   3.262  30.359  15.091
    1STR   H031 3433   3.262  30.462  15.127
    1STR   C032 3434   3.280  30.263  15.210
    1STR   H033 3435   3.277  30.159  15.177
    1STR   H034 3436   3.204  30.277  15.286
    1STR   H035 3437   3.377  30.279  15.258
    1STR   C036 3438   3.378  30.344  14.990
    1STR   H037 3439   3.382  30.242  14.953
    1STR   H038 3440   3.358  30.409  14.904
    1STR   O039 3441   3.502  30.380  15.052
    1STR   C040 3442   3.618  30.367  14.970
    1STR   H041 3443   3.614  30.273  14.914
    1STR   C042 3444   3.626  30.485  14.872
    1STR   H043 3445   3.626  30.580  14.925
    1STR   H044 3446   3.544  30.486  14.801
    1STR   H045 3447   3.719  30.481  14.814
    1STR   C046 3448   3.741  30.362  15.062
    1STR   H047 3449   3.749  30.455  15.119
    1STR   H048 3450   3.728  30.282  15.135
    1STR   O049 3451   3.859  30.340  14.985
    1STR   C050 3452   3.981  30.338  15.058
    1STR   H051 3453   3.982  30.419  15.132
    1STR   C052 3454   3.997  30.202  15.128
    1STR   H053 3455   3.991  30.120  15.057
    1STR   H054 3456   3.921  30.186  15.205
    1STR   H055 3457   4.094  30.196  15.178
    1STR   C056 3458   4.096  30.363  14.959
    1STR   H057 3459   4.099  30.284  14.884
    1STR   H058 3460   4.077  30.456  14.906
    1STR   O059 3461   4.220  30.370  15.030
    1STR   C060 3462   4.335  30.389  14.949
    1STR   H061 3463   4.330  30.326  14.860
    1STR   C062 3464   4.346  30.537  14.907
    1STR   H063 3465   4.347  30.602  14.994
    1STR   H064 3466   4.264  30.568  14.842
    1STR   H065 3467   4.439  30.555  14.852
    1STR   C066 3468   4.458  30.346  15.031
    1STR   H067 3469   4.467  30.408  15.120
    1STR   H068 3470   4.443  30.243  15.065
    1STR   O069 3471   4.575  30.354  14.951
    1STR   C070 3472   4.697  30.321  15.017
    1STR   H071 3473   4.699  30.365  15.117
    1STR   C072 3474   4.710  30.168  15.027
    1STR   H073 3475   4.703  30.121  14.929
    1STR   H074 3476   4.634  30.124  15.090
    1STR   H075 3477   4.807  30.140  15.070
    1STR   C076 3478   4.812  30.382  14.935
    1STR   H077 3479   4.814  30.338  14.835
    1STR   H078 3480   4.795  30.489  14.924
    1STR   O079 3481   4.936  30.358  15.003
    1STR   C080 3482   5.052  30.406  14.935
    1STR   H081 3483   5.046  30.383  14.829
    1STR   C082 3484   5.065  30.558  14.956
    1STR   H083 3485   5.066  30.583  15.062
    1STR   H084 3486   4.983  30.613  14.909
    1STR   H085 3487   5.158  30.595  14.912
    1STR   C086 3488   5.173  30.331  14.993
    1STR   H087 3489   5.183  30.353  15.100
    1STR   H088 3490   5.156  30.224  14.984
    1STR   O089 3491   5.291  30.369  14.922
    1STR   C090 3492   5.411  30.310  14.969
    1STR   H091 3493   5.414  30.311  15.078
    1STR   C092 3494   5.422  30.166  14.917
    1STR   H093 3495   5.415  30.162  14.808
    1STR   H094 3496   5.344  30.101  14.958
    1STR   H095 3497   5.518  30.122  14.945
    1STR   C096 3498   5.528  30.397  14.918
    1STR   H097 3499   5.529  30.397  14.809
    1STR   H098 3500   5.512  30.500  14.951
    1STR   O099 3501   5.651  30.346  14.970
    1STR   C100 3502   5.767  30.416  14.928
    1STR   H101 3503   5.761  30.437  14.821
    1STR   C102 3504   5.783  30.546  15.007
    1STR   H103 3505   5.784  30.527  15.114
    1STR   H104 3506   5.702  30.617  14.987
    1STR   H105 3507   5.876  30.596  14.981
    1STR   C106 3508   5.887  30.322  14.950
    1STR   H107 3509   5.897  30.299  15.056
    1STR   H108 3510   5.868  30.227  14.899
    1STR   O109 3511   6.006  30.383  14.900
    1STR   C110 3512   6.125  30.308  14.918
    1STR   H111 3513   6.128  30.265  15.019
    1STR   C112 3514   6.134  30.196  14.813
    1STR   H113 3515   6.126  30.237  14.712
    1STR   H114 3516   6.055  30.122  14.825
    1STR   H115 3517   6.229  30.143  14.820
    1STR   C116 3518   6.243  30.406  14.906
    1STR   H117 3519   6.245  30.450  14.806
    1STR   H118 3520   6.229  30.488  14.977
    1STR   O119 3521   6.365  30.337  14.933
    1STR   C120 3522   6.483  30.416  14.921
    1STR   H121 3523   6.478  30.478  14.831
    1STR   C122 3524   6.500  30.504  15.046
    1STR   H123 3525   6.501  30.443  15.137
    1STR   H124 3526   6.421  30.578  15.055
    1STR   H125 3527   6.595  30.558  15.042
    1STR   C126 3528   6.601  30.319  14.904
    1STR   H127 3529   6.611  30.256  14.992
    1STR   H128 3530   6.581  30.253  14.819
    1STR   O129 3531   6.721  30.393  14.882
    1STR   C130 3532   6.839  30.315  14.868
    1STR   H131 3533   6.840  30.235  14.943
    1STR   C132 3534   6.846  30.255  14.727
    1STR   H133 3535   6.839  30.333  14.650
    1STR   H134 3536   6.766  30.183  14.708
    1STR   H135 3537   6.940  30.202  14.712
    1STR   C136 3538   6.958  30.408  14.895
    1STR   H137 3539   6.961  30.488  14.821
    1STR   H138 3540   6.945  30.454  14.993
    1STR   O139 3541   7.079  30.332  14.892
    1STR   C140 3542   7.198  30.407  14.912
    1STR   H141 3543   7.194  30.500  14.855
    1STR   C142 3544   7.217  30.437  15.061
    1STR   H143 3545   7.216  30.345  15.120
    1STR   H144 3546   7.139  30.502  15.100
    1STR   H145 3547   7.312  30.487  15.079
    1STR   C146 3548   7.315  30.323  14.857
    1STR   H147 3549   7.323  30.230  14.912
    1STR   H148 3550   7.294  30.297  14.753
    1STR   O149 3551   7.436  30.398  14.866
    1STR   C150 3552   7.553  30.330  14.822
    1STR   H151 3553   7.553  30.227  14.858
    1STR   C152 3554   7.559  30.331  14.668
    1STR   H153 3555   7.554  30.433  14.629
    1STR   H154 3556   7.478  30.274  14.623
    1STR   H155 3557   7.652  30.287  14.633
    1STR   C156 3558   7.674  30.402  14.883
    1STR   H157 3559   7.678  30.505  14.847
    1STR   H158 3560   7.661  30.407  14.991
    1STR   O159 3561   7.793  30.332  14.849
    1STR   C160 3562   7.913  30.391  14.897
    1STR   H161 3563   7.911  30.500  14.882
    1STR   C162 3564   7.932  30.359  15.046
    1STR   H163 3565   7.930  30.252  15.064
    1STR   H164 3566   7.855  30.405  15.108
    1STR   H165 3567   8.028  30.397  15.082
    1STR   C166 3568   8.029  30.335  14.813
    1STR   H167 3569   8.035  30.227  14.826
    1STR   H168 3570   8.007  30.352  14.707
    1STR   O169 3571   8.151  30.398  14.850
    1STR   C170 3572   8.267  30.351  14.782
    1STR   H171 3573   8.265  30.242  14.775
    1STR   C172 3574   8.273  30.413  14.642
    1STR   H173 3575   8.270  30.522  14.647
    1STR   H174 3576   8.191  30.380  14.578
    1STR   H175 3577   8.366  30.385  14.591
    1STR   C176 3578   8.388  30.391  14.867
    1STR   H177 3579   8.394  30.500  14.875
    1STR   H178 3580   8.376  30.352  14.968
    1STR   O179 3581   8.507  30.338  14.807
    1STR   C180 3582   8.628  30.372  14.874
    1STR   H181 3583   8.627  30.477  14.904
    1STR   C182 3584   8.646  30.282  14.998
    1STR   H183 3585   8.642  30.177  14.971
    1STR   H184 3586   8.569  30.301  15.073
    1STR   H185 3587   8.742  30.300  15.045
    1STR   C186 3588   8.743  30.351  14.774
    1STR   H187 3589   8.747  30.247  14.743
    1STR   H188 3590   8.722  30.410  14.684
    1STR   O189 3591   8.866  30.392  14.833
    1STR   C190 3592   8.981  30.375  14.751
    1STR   H191 3593   8.977  30.278  14.701
    1STR   C192 3594   8.989  30.488  14.648
    1STR   H193 3595   8.988  30.586  14.696
    1STR   H194 3596   8.907  30.485  14.576
    1STR   H195 3597   9.081  30.481  14.590
    1STR   C196 3598   9.103  30.375  14.844
    1STR   H197 3599   9.111  30.472  14.895
    1STR   H198 3600   9.090  30.299  14.921
    1STR   O199 3601   9.221  30.349  14.768
    1STR   C200 3602   9.343  30.351  14.842
    1STR   H201 3603   9.344  30.435  14.912
    1STR   C202 3604   9.358  30.219  14.920
    1STR   H203 3605   9.353  30.133  14.852
    1STR   H204 3606   9.282  30.206  14.996
    1STR   H205 3607   9.455  30.215  14.970
    1STR   C206 3608   9.457  30.371  14.742
    1STR   H207 3609   9.460  30.287  14.672
    1STR   H208 3610   9.438  30.461  14.684
    1STR   O209 3611   9.581  30.382  14.812
    1STR   C210 3612   9.696  30.397  14.730
    1STR   H211 3613   9.691  30.329  14.645
    1STR   C212 3614   9.706  30.543  14.680
    1STR   H213 3615   9.706  30.613  14.763
    1STR   H214 3616   9.624  30.569  14.614
    1STR   H215 3617   9.798  30.558  14.624
    1STR   C216 3618   9.818  30.359  14.815
    1STR   H217 3619   9.827  30.426  14.900
    1STR   H218 3620   9.803  30.259  14.855
    1STR   O219 3621   9.936  30.363  14.734
    1STR   C220 3622  10.057  30.333  14.802
    1STR   H221 3623  10.059  30.383  14.899
    1STR   C222 3624  10.070  30.181  14.820
    1STR   H223 3625  10.063  30.129  14.724
    1STR   H224 3626   9.993  30.140  14.886
    1STR   H225 3627  10.167  30.156  14.864
    1STR   C226 3628  10.172  30.390  14.717
    1STR   H227 3629  10.174  30.341  14.620
    1STR   H228 3630  10.155  30.496  14.700
    1STR   O229 3631  10.296  30.370  14.786
    1STR   C230 3632  10.412  30.415  14.716
    1STR   H231 3633  10.406  30.386  14.611
    1STR   C232 3634  10.424  30.568  14.728
    1STR   H233 3635  10.425  30.599  14.833
    1STR   H234 3636  10.342  30.620  14.678
    1STR   H235 3637  10.517  30.603  14.683
    1STR   C236 3638  10.533  30.344  14.778
    1STR   H237 3639  10.543  30.371  14.883
    1STR   H238 3640  10.517  30.236  14.774
    1STR   O239 3641  10.651  30.379  14.705
    1STR   C240 3642  10.772  30.322  14.755
    1STR   H241 3643  10.775  30.328  14.864
    1STR   C242 3644  10.782  30.175  14.710
    1STR   H243 3645  10.774  30.166  14.602
    1STR   H244 3646  10.705  30.113  14.755
    1STR   H245 3647  10.878  30.132  14.740
    1STR   C246 3648  10.889  30.405  14.699
    1STR   H247 3649  10.890  30.400  14.590
    1STR   H248 3650  10.873  30.509  14.726
    1STR   O249 3651  11.012  30.357  14.753
    1STR   C250 3652  11.129  30.425  14.707
    1STR   H251 3653  11.123  30.441  14.599
    1STR   C252 3654  11.143  30.560  14.779
    1STR   H253 3655  11.144  30.547  14.888
    1STR   H254 3656  11.062  30.629  14.754
    1STR   H255 3657  11.236  30.609  14.752
    1STR   C256 3658  11.250  30.334  14.735
    1STR   H257 3659  11.260  30.317  14.842
    1STR   H258 3660  11.232  30.237  14.689
    1STR   O259 3661  11.369  30.393  14.682
    1STR   C260 3662  11.489  30.319  14.704
    1STR   H261 3663  11.492  30.281  14.806
    1STR   C262 3664  11.496  30.201  14.605
    1STR   H263 3665  11.488  30.236  14.502
    1STR   H264 3666  11.417  30.128  14.622
    1STR   H265 3667  11.591  30.149  14.614
    1STR   C266 3668  11.608  30.415  14.685
    1STR   H267 3669  11.609  30.454  14.584
    1STR   H268 3670  11.595  30.500  14.752
    1STR   O269 3671  11.731  30.348  14.714
    1STR   C270 3672  11.849  30.426  14.699
    1STR   H271 3673  11.844  30.484  14.607
    1STR   C272 3674  11.864  30.521  14.820
    1STR   H273 3675  11.864  30.466  14.914
    1STR   H274 3676  11.785  30.595  14.824
    1STR   H275 3677  11.959  30.576  14.814
    1STR   C276 3678  11.970  30.331  14.689
    1STR   H277 3679  11.979  30.271  14.780
    1STR   H278 3680  11.951  30.261  14.607
    1STR   O279 3681  12.091  30.404  14.665
    1STR   C280 3682  12.210  30.325  14.653
    1STR   H281 3683  12.212  30.250  14.732
    1STR   C282 3684  12.214  30.257  14.516
    1STR   H283 3685  12.205  30.331  14.435
    1STR   H284 3686  12.134  30.184  14.503
    1STR   H285 3687  12.308  30.204  14.502
    1STR   C286 3688  12.332  30.418  14.674
    1STR   H287 3689  12.333  30.495  14.596
    1STR   H288 3690  12.321  30.469  14.769
    1STR   O289 3691  12.454  30.343  14.671
    1STR   C290 3692  12.575  30.418  14.689
    1STR   H291 3693  12.572  30.508  14.628
    1STR   C292 3694  12.589  30.457  14.838
    1STR   H293 3695  12.586  30.369  14.902
    1STR   H294 3696  12.512  30.526  14.870
    1STR   H295 3697  12.685  30.507  14.855
    1STR   C296 3698  12.694  30.332  14.642
    1STR   H297 3699  12.699  30.241  14.701
    1STR   H298 3700  12.677  30.302  14.539
    1STR   O299 3701  12.818  30.404  14.653
    1STR   C300 3702  12.936  30.332  14.614
    1STR   H301 3703  12.931  30.230  14.653
    1STR   C302 3704  12.944  30.328  14.461
    1STR   H303 3705  12.940  30.429  14.418
    1STR   H304 3706  12.864  30.270  14.416
    1STR   H305 3707  13.038  30.283  14.428
    1STR   C306 3708  13.061  30.400  14.676
    1STR   H307 3709  13.076  30.498  14.630
    1STR   H308 3710  13.040  30.417  14.781
    1STR   O309 3711  13.179  30.318  14.662
    1STR    H1R 3712  13.315  30.472  14.685
    1STR    H1S 3713  13.385  30.398  14.918
    1STR    H1T 3714  13.270  30.267  14.909
    1STR    H1U 3715  13.214  30.434  14.912
    1STR    H1V 3716  13.422  30.278  14.565
    1STR    H1W 3717  13.415  30.183  14.711
    1STR    H1X 3718  13.725  30.449  14.742
    1STR    H1Y 3719  13.909  30.561  14.774
    1STR    H1Z 3720  14.126  30.591  14.880
    1STR    H20 3721  14.260  30.382  15.144
    1STR    H21 3722  14.346  30.394  14.989
    1STR    H22 3723  14.269  30.536  15.061
    1STR    H23 3724  14.071  30.130  15.138
    1STR    H27 3725  13.880  30.163  14.938
    1STR    H28 3726   1.337  30.513  15.035
    1STR    H29 3727   1.104  30.550  14.996
    1STR    H2A 3728   0.853  30.295  14.933
    1STR    H2B 3729   0.898  30.463  14.914
    1STR    H2C 3730   0.842  30.406  15.071
    1STR   BCK1 3731   0.847  29.946  30.150
    1STR    O03 3732   0.834  29.834  30.101
    1STR    N04 3733   0.964  29.994  30.197
    1STR    C05 3734   1.074  29.919  30.242
    1STR    C06 3735   1.209  29.938  30.197
    1STR    C07 3736   1.320  29.866  30.252
    1STR    N08 3737   1.454  29.888  30.211
    1STR    C09 3738   1.569  29.828  30.250
    1STR    O0A 3739   1.574  29.735  30.330
    1STR    O0B 3740   1.683  29.879  30.193
    1STR    C0C 3741   1.811  29.817  30.222
    1STR    C0D 3742   1.828  29.691  30.136
    1STR    C0E 3743   1.933  29.912  30.205
    1STR    O0F 3744   2.053  29.843  30.244
    1STR    C0G 3745   2.176  29.917  30.239
    1STR    C0H 3746   2.185  30.009  30.362
    1STR    C0I 3747   2.296  29.819  30.237
    1STR    O0J 3748   2.419  29.891  30.225
    1STR    C0K 3749  13.292  30.089  30.541
    1STR    C0M 3750  13.298  29.995  30.420
    1STR    C0N 3751  13.412  30.187  30.540
    1STR    O0O 3752  13.533  30.119  30.577
    1STR    C0P 3753  13.642  30.116  30.498
    1STR    O0Q 3754  13.652  30.169  30.388
    1STR    N0R 3755  13.735  30.041  30.557
    1STR    C0S 3756  13.858  29.992  30.510
    1STR    C0T 3757  13.899  29.868  30.563
    1STR    C0U 3758  14.014  29.805  30.514
    1STR    C0V 3759  14.093  29.865  30.414
    1STR    C0W 3760  14.202  29.780  30.351
    1STR    C0X 3761  14.062  29.997  30.370
    1STR    N0Y 3762  14.140  30.064  30.275
    1STR   BCK2 3763  14.272  30.086  30.265
    1STR    O10 3764  14.315  30.142  30.165
    1STR    C13 3765  13.941  30.057  30.415
    1STR    C14 3766   1.289  29.772  30.354
    1STR    C15 3767   1.158  29.754  30.401
    1STR    C16 3768   1.052  29.828  30.349
    1STR    C17 3769   0.916  29.813  30.415
    1STR    H1B 3770   0.965  30.093  30.218
    1STR    H1C 3771   1.227  30.011  30.119
    1STR    H1D 3772   1.471  29.960  30.142
    1STR    H1E 3773   1.811  29.787  30.327
    1STR    H1F 3774   1.831  29.715  30.029
    1STR    H1G 3775   1.920  29.639  30.161
    1STR    H1H 3776   1.746  29.621  30.152
    1STR    H1I 3777   1.918  30.000  30.268
    1STR    H1J 3778   1.941  29.946  30.102
    1STR    H1K 3779   2.180  29.976  30.148
    1STR    H1M 3780   2.178  29.952  30.454
    1STR    H1N 3781   2.106  30.084  30.363
    1STR    H1O 3782   2.280  30.062  30.363
    1STR    H1P 3783   2.297  29.758  30.328
    1STR    H1Q 3784   2.284  29.749  30.153
    1STR   C010 3785   2.540  29.813  30.227
    1STR   H011 3786   2.535  29.739  30.308
    1STR   C012 3787   2.559  29.741  30.093
    1STR   H013 3788   2.559  29.812  30.010
    1STR   H014 3789   2.481  29.667  30.074
    1STR   H015 3790   2.654  29.688  30.091
    1STR   C016 3791   2.659  29.907  30.256
    1STR   H017 3792   2.665  29.983  30.178
    1STR   H018 3793   2.640  29.960  30.350
    1STR   O019 3794   2.781  29.834  30.265
    1STR   C020 3795   2.899  29.912  30.287
    1STR   H021 3796   2.897  30.001  30.224
    1STR   C022 3797   2.907  29.953  30.435
    1STR   H023 3798   2.905  29.866  30.500
    1STR   H024 3799   2.825  30.019  30.464
    1STR   H025 3800   3.000  30.007  30.455
    1STR   C026 3801   3.022  29.829  30.247
    1STR   H027 3802   3.028  29.739  30.308
    1STR   H028 3803   3.011  29.796  30.143
    1STR   O029 3804   3.141  29.907  30.261
    1STR   C030 3805   3.264  29.840  30.230
    1STR   H031 3806   3.263  29.740  30.274
    1STR   C032 3807   3.282  29.831  30.078
    1STR   H033 3808   3.278  29.929  30.032
    1STR   H034 3809   3.206  29.768  30.031
    1STR   H035 3810   3.379  29.787  30.053
    1STR   C036 3811   3.379  29.919  30.295
    1STR   H037 3812   3.383  30.020  30.253
    1STR   H038 3813   3.359  29.930  30.402
    1STR   O039 3814   3.503  29.851  30.274
    1STR   C040 3815   3.619  29.916  30.326
    1STR   H041 3816   3.615  30.023  30.303
    1STR   C042 3817   3.627  29.895  30.478
    1STR   H043 3818   3.627  29.789  30.503
    1STR   H044 3819   3.545  29.942  30.531
    1STR   H045 3820   3.720  29.937  30.517
    1STR   C046 3821   3.742  29.857  30.255
    1STR   H047 3822   3.750  29.750  30.276
    1STR   H048 3823   3.729  29.867  30.147
    1STR   O049 3824   3.860  29.926  30.297
    1STR   C050 3825   3.982  29.878  30.241
    1STR   H051 3826   3.983  29.768  30.241
    1STR   C052 3827   3.998  29.930  30.097
    1STR   H053 3828   3.992  30.039  30.094
    1STR   H054 3829   3.921  29.891  30.030
    1STR   H055 3830   4.094  29.901  30.056
    1STR   C056 3831   4.097  29.926  30.331
    1STR   H057 3832   4.100  30.035  30.332
    1STR   H058 3833   4.078  29.893  30.433
    1STR   O059 3834   4.220  29.873  30.283
    1STR   C060 3835   4.336  29.914  30.356
    1STR   H061 3836   4.331  30.020  30.379
    1STR   C062 3837   4.347  29.833  30.487
    1STR   H063 3838   4.347  29.726  30.467
    1STR   H064 3839   4.265  29.854  30.555
    1STR   H065 3840   4.439  29.857  30.539
    1STR   C066 3841   4.458  29.890  30.266
    1STR   H067 3842   4.468  29.784  30.243
    1STR   H068 3843   4.443  29.942  30.172
    1STR   O069 3844   4.576  29.938  30.331
    1STR   C070 3845   4.697  29.918  30.259
    1STR   H071 3846   4.700  29.818  30.216
    1STR   C072 3847   4.710  30.024  30.149
    1STR   H073 3848   4.704  30.125  30.190
    1STR   H074 3849   4.634  30.014  30.072
    1STR   H075 3850   4.807  30.016  30.099
    1STR   C076 3851   4.813  29.928  30.361
    1STR   H077 3852   4.814  30.028  30.405
    1STR   H078 3853   4.795  29.857  30.441
    1STR   O079 3854   4.936  29.900  30.295
    1STR   C080 3855   5.052  29.910  30.377
    1STR   H081 3856   5.046  29.999  30.440
    1STR   C082 3857   5.065  29.784  30.465
    1STR   H083 3858   5.066  29.694  30.404
    1STR   H084 3859   4.984  29.775  30.537
    1STR   H085 3860   5.158  29.787  30.522
    1STR   C086 3861   5.173  29.926  30.284
    1STR   H087 3862   5.183  29.838  30.220
    1STR   H088 3863   5.156  30.012  30.218
    1STR   O089 3864   5.291  29.946  30.362
    1STR   C090 3865   5.411  29.958  30.287
    1STR   H091 3866   5.414  29.884  30.207
    1STR   C092 3867   5.422  30.100  30.228
    1STR   H093 3868   5.415  30.176  30.306
    1STR   H094 3869   5.345  30.120  30.155
    1STR   H095 3870   5.518  30.114  30.178
    1STR   C096 3871   5.528  29.929  30.383
    1STR   H097 3872   5.529  30.002  30.464
    1STR   H098 3873   5.512  29.831  30.429
    1STR   O099 3874   5.651  29.931  30.311
    1STR   C100 3875   5.767  29.909  30.390
    1STR   H101 3876   5.762  29.965  30.483
    1STR   C102 3877   5.783  29.759  30.419
    1STR   H103 3878   5.784  29.700  30.327
    1STR   H104 3879   5.702  29.721  30.482
    1STR   H105 3880   5.876  29.739  30.472
    1STR   C106 3881   5.887  29.962  30.310
    1STR   H107 3882   5.897  29.907  30.216
    1STR   H108 3883   5.869  30.067  30.283
    1STR   O109 3884   6.006  29.951  30.388
    1STR   C110 3885   6.125  29.994  30.324
    1STR   H111 3886   6.128  29.958  30.221
    1STR   C112 3887   6.134  30.148  30.326
    1STR   H113 3888   6.126  30.186  30.428
    1STR   H114 3889   6.055  30.194  30.268
    1STR   H115 3890   6.229  30.182  30.285
    1STR   C116 3891   6.243  29.930  30.399
    1STR   H117 3892   6.245  29.965  30.502
    1STR   H118 3893   6.229  29.822  30.402
    1STR   O119 3894   6.365  29.963  30.333
    1STR   C120 3895   6.483  29.913  30.395
    1STR   H121 3896   6.478  29.927  30.503
    1STR   C122 3897   6.500  29.764  30.362
    1STR   H123 3898   6.501  29.747  30.254
    1STR   H124 3899   6.421  29.703  30.405
    1STR   H125 3900   6.595  29.726  30.402
    1STR   C126 3901   6.601  29.996  30.342
    1STR   H127 3902   6.611  29.983  30.234
    1STR   H128 3903   6.581  30.102  30.360
    1STR   O129 3904   6.721  29.956  30.408
    1STR   C130 3905   6.839  30.023  30.366
    1STR   H131 3906   6.840  30.031  30.257
    1STR   C132 3907   6.846  30.163  30.429
    1STR   H133 3908   6.839  30.157  30.538
    1STR   H134 3909   6.766  30.228  30.394
    1STR   H135 3910   6.940  30.212  30.404
    1STR   C136 3911   6.958  29.936  30.408
    1STR   H137 3912   6.961  29.927  30.517
    1STR   H138 3913   6.945  29.836  30.368
    1STR   O139 3914   7.079  29.994  30.359
    1STR   C140 3915   7.198  29.925  30.395
    1STR   H141 3916   7.194  29.895  30.500
    1STR   C142 3917   7.217  29.802  30.305
    1STR   H143 3918   7.216  29.830  30.200
    1STR   H144 3919   7.139  29.728  30.321
    1STR   H145 3920   7.312  29.753  30.326
    1STR   C146 3921   7.315  30.024  30.380
    1STR   H147 3922   7.323  30.056  30.275
    1STR   H148 3923   7.294  30.114  30.439
    1STR   O149 3924   7.436  29.963  30.424
    1STR   C150 3925   7.553  30.043  30.410
    1STR   H151 3926   7.553  30.094  30.314
    1STR   C152 3927   7.559  30.146  30.524
    1STR   H153 3928   7.554  30.097  30.622
    1STR   H154 3929   7.478  30.219  30.519
    1STR   H155 3930   7.652  30.202  30.520
    1STR   C156 3931   7.674  29.948  30.414
    1STR   H157 3932   7.678  29.897  30.510
    1STR   H158 3933   7.661  29.872  30.337
    1STR   O159 3934   7.793  30.023  30.391
    1STR   C160 3935   7.913  29.947  30.396
    1STR   H161 3936   7.911  29.877  30.480
    1STR   C162 3937   7.932  29.870  30.264
    1STR   H163 3938   7.930  29.938  30.178
    1STR   H164 3939   7.855  29.795  30.249
    1STR   H165 3940   8.028  29.818  30.263
    1STR   C166 3941   8.029  30.046  30.420
    1STR   H167 3942   8.035  30.116  30.337
    1STR   H168 3943   8.007  30.104  30.510
    1STR   O169 3944   8.151  29.974  30.435
    1STR   C170 3945   8.267  30.054  30.454
    1STR   H171 3946   8.265  30.139  30.385
    1STR   C172 3947   8.273  30.103  30.599
    1STR   H173 3948   8.270  30.019  30.669
    1STR   H174 3949   8.191  30.170  30.624
    1STR   H175 3950   8.366  30.157  30.617
    1STR   C176 3951   8.389  29.968  30.418
    1STR   H177 3952   8.394  29.882  30.485
    1STR   H178 3953   8.376  29.928  30.317
    1STR   O179 3954   8.507  30.047  30.426
    1STR   C180 3955   8.628  29.977  30.399
    1STR   H181 3956   8.627  29.879  30.448
    1STR   C182 3957   8.646  29.960  30.247
    1STR   H183 3958   8.642  30.056  30.196
    1STR   H184 3959   8.569  29.895  30.204
    1STR   H185 3960   8.742  29.914  30.225
    1STR   C186 3961   8.743  30.060  30.460
    1STR   H187 3962   8.747  30.158  30.412
    1STR   H188 3963   8.722  30.077  30.565
    1STR   O189 3964   8.866  29.989  30.443
    1STR   C190 3965   8.981  30.057  30.492
    1STR   H191 3966   8.977  30.163  30.464
    1STR   C192 3967   8.989  30.044  30.645
    1STR   H193 3968   8.988  29.939  30.675
    1STR   H194 3969   8.907  30.095  30.695
    1STR   H195 3970   9.081  30.088  30.683
    1STR   C196 3971   9.103  29.994  30.424
    1STR   H197 3972   9.111  29.889  30.451
    1STR   H198 3973   9.090  29.998  30.316
    1STR   O199 3974   9.221  30.065  30.462
    1STR   C200 3975   9.342  30.014  30.409
    1STR   H201 3976   9.343  29.905  30.414
    1STR   C202 3977   9.358  30.059  30.262
    1STR   H203 3978   9.353  30.167  30.254
    1STR   H204 3979   9.282  30.016  30.198
    1STR   H205 3980   9.455  30.028  30.223
    1STR   C206 3981   9.457  30.067  30.496
    1STR   H207 3982   9.460  30.176  30.492
    1STR   H208 3983   9.437  30.040  30.600
    1STR   O209 3984   9.580  30.011  30.452
    1STR   C210 3985   9.696  30.055  30.523
    1STR   H211 3986   9.691  30.163  30.539
    1STR   C212 3987   9.706  29.982  30.658
    1STR   H213 3988   9.706  29.874  30.644
    1STR   H214 3989   9.623  30.008  30.725
    1STR   H215 3990   9.798  30.009  30.710
    1STR   C216 3991   9.818  30.026  30.435
    1STR   H217 3992   9.827  29.919  30.417
    1STR   H218 3993   9.803  30.073  30.337
    1STR   O219 3994   9.935  30.078  30.497
    1STR   C220 3995  10.057  30.054  30.427
    1STR   H221 3996  10.059  29.952  30.388
    1STR   C222 3997  10.070  30.154  30.311
    1STR   H223 3998  10.063  30.257  30.346
    1STR   H224 3999   9.993  30.140  30.235
    1STR   H225 4000  10.166  30.143  30.261
    1STR   C226 4001  10.172  30.070  30.527
    1STR   H227 4002  10.174  30.171  30.566
    1STR   H228 4003  10.154  30.003  30.612
    1STR   O229 4004  10.295  30.038  30.464
    1STR   C230 4005  10.411  30.052  30.545
    1STR   H231 4006  10.405  30.144  30.603
    1STR   C232 4007  10.424  29.931  30.640
    1STR   H233 4008  10.425  29.838  30.584
    1STR   H234 4009  10.342  29.926  30.712
    1STR   H235 4010  10.516  29.936  30.697
    1STR   C236 4011  10.532  30.063  30.452
    1STR   H237 4012  10.542  29.971  30.393
    1STR   H238 4013  10.516  30.144  30.381
    1STR   O239 4014  10.650  30.086  30.529
    1STR   C240 4015  10.771  30.095  30.454
    1STR   H241 4016  10.774  30.016  30.378
    1STR   C242 4017  10.782  30.233  30.387
    1STR   H243 4018  10.774  30.313  30.461
    1STR   H244 4019  10.704  30.249  30.312
    1STR   H245 4020  10.877  30.244  30.336
    1STR   C246 4021  10.888  30.070  30.551
    1STR   H247 4022  10.889  30.148  30.628
    1STR   H248 4023  10.872  29.975  30.602
    1STR   O249 4024  11.011  30.069  30.479
    1STR   C250 4025  11.128  30.050  30.559
    1STR   H251 4026  11.122  30.111  30.649
    1STR   C252 4027  11.142  29.902  30.596
    1STR   H253 4028  11.143  29.839  30.507
    1STR   H254 4029  11.061  29.868  30.661
    1STR   H255 4030  11.235  29.885  30.650
    1STR   C256 4031  11.248  30.099  30.476
    1STR   H257 4032  11.258  30.039  30.385
    1STR   H258 4033  11.230  30.202  30.445
    1STR   O259 4034  11.367  30.091  30.555
    1STR   C260 4035  11.487  30.131  30.489
    1STR   H261 4036  11.489  30.090  30.388
    1STR   C262 4037  11.494  30.285  30.483
    1STR   H263 4038  11.486  30.328  30.582
    1STR   H264 4039  11.416  30.328  30.421
    1STR   H265 4040  11.589  30.317  30.440
    1STR   C266 4041  11.605  30.072  30.567
    1STR   H267 4042  11.606  30.112  30.669
    1STR   H268 4043  11.591  29.964  30.576
    1STR   O269 4044  11.728  30.102  30.500
    1STR   C270 4045  11.846  30.054  30.565
    1STR   H271 4046  11.840  30.074  30.672
    1STR   C272 4047  11.861  29.903  30.540
    1STR   H273 4048  11.861  29.881  30.433
    1STR   H274 4049  11.782  29.845  30.587
    1STR   H275 4050  11.956  29.867  30.581
    1STR   C276 4051  11.965  30.133  30.508
    1STR   H277 4052  11.974  30.115  30.401
    1STR   H278 4053  11.946  30.239  30.521
    1STR   O279 4054  12.086  30.095  30.575
    1STR   C280 4055  12.205  30.160  30.530
    1STR   H281 4056  12.207  30.163  30.421
    1STR   C282 4057  12.210  30.304  30.586
    1STR   H283 4058  12.202  30.304  30.695
    1STR   H284 4059  12.130  30.366  30.547
    1STR   H285 4060  12.304  30.352  30.560
    1STR   C286 4061  12.326  30.078  30.578
    1STR   H287 4062  12.327  30.073  30.687
    1STR   H288 4063  12.314  29.975  30.543
    1STR   O289 4064  12.447  30.134  30.528
    1STR   C290 4065  12.567  30.066  30.567
    1STR   H291 4066  12.564  30.042  30.673
    1STR   C292 4067  12.583  29.938  30.484
    1STR   H293 4068  12.581  29.959  30.377
    1STR   H294 4069  12.506  29.865  30.505
    1STR   H295 4070  12.679  29.890  30.505
    1STR   C296 4071  12.686  30.162  30.544
    1STR   H297 4072  12.692  30.190  30.439
    1STR   H298 4073  12.667  30.254  30.599
    1STR   O299 4074  12.809  30.103  30.587
    1STR   C300 4075  12.926  30.184  30.569
    1STR   H301 4076  12.924  30.231  30.470
    1STR   C302 4077  12.932  30.291  30.679
    1STR   H303 4078  12.927  30.245  30.778
    1STR   H304 4079  12.851  30.363  30.671
    1STR   H305 4080  13.026  30.347  30.673
    1STR   C306 4081  13.051  30.092  30.573
    1STR   H307 4082  13.060  30.047  30.672
    1STR   H308 4083  13.035  30.010  30.502
    1STR   O309 4084  13.170  30.165  30.539
    1STR    H1R 4085  13.296  30.032  30.634
    1STR    H1S 4086  13.394  29.944  30.415
    1STR    H1T 4087  13.285  30.050  30.327
    1STR    H1U 4088  13.221  29.917  30.424
    1STR    H1V 4089  13.396  30.266  30.613
    1STR    H1W 4090  13.421  30.236  30.443
    1STR    H1X 4091  13.703  30.008  30.646
    1STR    H1Y 4092  13.840  29.817  30.638
    1STR    H1Z 4093  14.040  29.707  30.551
    1STR    H20 4094  14.229  29.817  30.251
    1STR    H21 4095  14.291  29.779  30.413
    1STR    H22 4096  14.168  29.678  30.338
    1STR    H23 4097  14.089  30.109  30.201
    1STR    H27 4098  13.911  30.153  30.377
    1STR    H28 4099   1.363  29.711  30.402
    1STR    H29 4100   1.142  29.683  30.481
    1STR    H2A 4101   0.871  29.911  30.432
    1STR    H2B 4102   0.923  29.764  30.512
    1STR    H2C 4103   0.849  29.755  30.352
    1STR   BCK1 4104   0.866  30.025  45.093
    1STR    O03 4105   0.811  30.127  45.053
    1STR    N04 4106   0.994  29.992  45.068
    1STR    C05 4107   1.083  30.044  44.971
    1STR    C06 4108   1.222  30.064  45.002
    1STR    C07 4109   1.317  30.106  44.903
    1STR    N08 4110   1.455  30.120  44.933
    1STR    C09 4111   1.561  30.133  44.850
    1STR    O0A 4112   1.554  30.132  44.727
    1STR    O0B 4113   1.681  30.145  44.916
    1STR    C0C 4114   1.803  30.171  44.842
    1STR    C0D 4115   1.815  30.322  44.814
    1STR    C0E 4116   1.929  30.117  44.914
    1STR    O0F 4117   2.048  30.143  44.836
    1STR    C0G 4118   2.172  30.093  44.889
    1STR    C0H 4119   2.182  29.942  44.862
    1STR    C0I 4120   2.292  30.167  44.825
    1STR    O0J 4121   2.415  30.122  44.883
    1STR    C0K 4122  13.298  29.770  44.799
    1STR    C0M 4123  13.297  29.922  44.819
    1STR    C0N 4124  13.417  29.707  44.876
    1STR    O0O 4125  13.542  29.748  44.820
    1STR    C0P 4126  13.646  29.789  44.896
    1STR    O0Q 4127  13.645  29.804  45.018
    1STR    N0R 4128  13.750  29.816  44.817
    1STR    C0S 4129  13.877  29.872  44.837
    1STR    C0T 4130  13.940  29.919  44.720
    1STR    C0U 4131  14.063  29.985  44.727
    1STR    C0V 4132  14.128  30.004  44.850
    1STR    C0W 4133  14.252  30.092  44.849
    1STR    C0X 4134  14.075  29.946  44.968
    1STR    N0Y 4135  14.145  29.954  45.091
    1STR   BCK2 4136  14.275  29.928  45.112
    1STR    O10 4137  14.351  29.884  45.027
    1STR    C13 4138  13.946  29.885  44.961
    1STR    C14 4139   1.267  30.132  44.773
    1STR    C15 4140   1.133  30.109  44.741
    1STR    C16 4141   1.041  30.062  44.837
    1STR    C17 4142   0.902  30.027  44.788
    1STR    H1B 4143   1.028  29.916  45.124
    1STR    H1C 4144   1.256  30.047  45.102
    1STR    H1D 4145   1.483  30.120  45.030
    1STR    H1E 4146   1.797  30.119  44.746
    1STR    H1F 4147   1.823  30.379  44.907
    1STR    H1G 4148   1.904  30.343  44.755
    1STR    H1H 4149   1.729  30.359  44.759
    1STR    H1I 4150   1.917  30.010  44.929
    1STR    H1J 4151   1.938  30.163  45.012
    1STR    H1K 4152   2.176  30.112  44.997
    1STR    H1M 4153   2.175  29.921  44.755
    1STR    H1N 4154   2.104  29.885  44.912
    1STR    H1O 4155   2.277  29.903  44.897
    1STR    H1P 4156   2.293  30.150  44.717
    1STR    H1Q 4157   2.280  30.274  44.840
    1STR   C010 4158   2.536  30.178  44.829
    1STR   H011 4159   2.532  30.178  44.720
    1STR   C012 4160   2.555  30.322  44.881
    1STR   H013 4161   2.555  30.325  44.990
    1STR   H014 4162   2.477  30.389  44.845
    1STR   H015 4163   2.650  30.362  44.847
    1STR   C016 4164   2.655  30.089  44.872
    1STR   H017 4165   2.661  30.085  44.981
    1STR   H018 4166   2.636  29.987  44.838
    1STR   O019 4167   2.778  30.137  44.817
    1STR   C020 4168   2.896  30.064  44.854
    1STR   H021 4169   2.894  30.042  44.961
    1STR   C022 4170   2.904  29.934  44.773
    1STR   H023 4171   2.902  29.954  44.666
    1STR   H024 4172   2.823  29.866  44.796
    1STR   H025 4173   2.997  29.881  44.794
    1STR   C026 4174   3.020  30.153  44.828
    1STR   H027 4175   3.026  30.178  44.722
    1STR   H028 4176   3.009  30.247  44.882
    1STR   O029 4177   3.139  30.085  44.870
    1STR   C030 4178   3.262  30.155  44.847
    1STR   H031 4179   3.261  30.200  44.747
    1STR   C032 4180   3.280  30.265  44.953
    1STR   H033 4181   3.276  30.223  45.053
    1STR   H034 4182   3.204  30.342  44.946
    1STR   H035 4183   3.377  30.314  44.941
    1STR   C036 4184   3.377  30.053  44.852
    1STR   H037 4185   3.382  30.007  44.951
    1STR   H038 4186   3.358  29.974  44.780
    1STR   O039 4187   3.501  30.118  44.822
    1STR   C040 4188   3.617  30.035  44.828
    1STR   H041 4189   3.613  29.972  44.917
    1STR   C042 4190   3.626  29.948  44.702
    1STR   H043 4191   3.626  30.010  44.612
    1STR   H044 4192   3.544  29.877  44.694
    1STR   H045 4193   3.719  29.890  44.701
    1STR   C046 4194   3.741  30.127  44.841
    1STR   H047 4195   3.748  30.191  44.754
    1STR   H048 4196   3.727  30.192  44.928
    1STR   O049 4197   3.859  30.047  44.856
    1STR   C050 4198   3.981  30.121  44.865
    1STR   H051 4199   3.982  30.201  44.791
    1STR   C052 4200   3.997  30.179  45.006
    1STR   H053 4201   3.991  30.100  45.082
    1STR   H054 4202   3.921  30.253  45.029
    1STR   H055 4203   4.093  30.228  45.017
    1STR   C056 4204   4.096  30.024  44.831
    1STR   H057 4205   4.099  29.943  44.904
    1STR   H058 4206   4.077  29.979  44.733
    1STR   O059 4207   4.220  30.095  44.830
    1STR   C060 4208   4.335  30.016  44.804
    1STR   H061 4209   4.330  29.922  44.860
    1STR   C062 4210   4.346  29.987  44.653
    1STR   H063 4211   4.347  30.080  44.596
    1STR   H064 4212   4.264  29.926  44.617
    1STR   H065 4213   4.438  29.934  44.631
    1STR   C066 4214   4.458  30.094  44.855
    1STR   H067 4215   4.467  30.188  44.800
    1STR   H068 4216   4.443  30.120  44.960
    1STR   O069 4217   4.575  30.015  44.839
    1STR   C070 4218   4.697  30.078  44.878
    1STR   H071 4219   4.699  30.181  44.843
    1STR   C072 4220   4.710  30.075  45.031
    1STR   H073 4221   4.703  29.973  45.069
    1STR   H074 4222   4.633  30.134  45.081
    1STR   H075 4223   4.807  30.115  45.063
    1STR   C076 4224   4.812  30.002  44.810
    1STR   H077 4225   4.814  29.899  44.845
    1STR   H078 4226   4.795  30.000  44.703
    1STR   O079 4227   4.936  30.067  44.840
    1STR   C080 4228   5.052  30.005  44.786
    1STR   H081 4229   5.046  29.896  44.799
    1STR   C082 4230   5.065  30.039  44.636
    1STR   H083 4231   5.066  30.146  44.620
    1STR   H084 4232   4.983  29.997  44.577
    1STR   H085 4233   5.158  29.998  44.596
    1STR   C086 4234   5.173  30.056  44.865
    1STR   H087 4235   5.183  30.164  44.853
    1STR   H088 4236   5.156  30.037  44.972
    1STR   O089 4237   5.291  29.988  44.821
    1STR   C090 4238   5.411  30.030  44.885
    1STR   H091 4239   5.414  30.138  44.894
    1STR   C092 4240   5.422  29.965  45.024
    1STR   H093 4241   5.415  29.856  45.018
    1STR   H094 4242   5.344  30.000  45.092
    1STR   H095 4243   5.518  29.989  45.070
    1STR   C096 4244   5.528  29.987  44.794
    1STR   H097 4245   5.529  29.878  44.784
    1STR   H098 4246   5.512  30.028  44.694
    1STR   O099 4247   5.651  30.034  44.849
    1STR   C100 4248   5.767  29.997  44.776
    1STR   H101 4249   5.761  29.893  44.745
    1STR   C102 4250   5.783  30.088  44.653
    1STR   H103 4251   5.784  30.193  44.681
    1STR   H104 4252   5.702  30.073  44.581
    1STR   H105 4253   5.876  30.066  44.601
    1STR   C106 4254   5.887  30.011  44.871
    1STR   H107 4255   5.897  30.115  44.903
    1STR   H108 4256   5.868  29.952  44.961
    1STR   O109 4257   6.006  29.967  44.806
    1STR   C110 4258   6.125  29.979  44.882
    1STR   H111 4259   6.128  30.075  44.934
    1STR   C112 4260   6.134  29.864  44.984
    1STR   H113 4261   6.126  29.767  44.935
    1STR   H114 4262   6.055  29.869  45.059
    1STR   H115 4263   6.229  29.867  45.038
    1STR   C116 4264   6.243  29.975  44.784
    1STR   H117 4265   6.245  29.879  44.731
    1STR   H118 4266   6.229  30.052  44.708
    1STR   O119 4267   6.365  29.996  44.855
    1STR   C120 4268   6.483  29.991  44.775
    1STR   H121 4269   6.478  29.907  44.705
    1STR   C122 4270   6.500  30.123  44.699
    1STR   H123 4271   6.501  30.208  44.767
    1STR   H124 4272   6.421  30.139  44.626
    1STR   H125 4273   6.595  30.124  44.644
    1STR   C126 4274   6.601  29.965  44.870
    1STR   H127 4275   6.611  30.047  44.941
    1STR   H128 4276   6.581  29.875  44.928
    1STR   O129 4277   6.721  29.949  44.794
    1STR   C130 4278   6.839  29.929  44.871
    1STR   H131 4279   6.840  29.997  44.957
    1STR   C132 4280   6.846  29.783  44.919
    1STR   H133 4281   6.839  29.714  44.835
    1STR   H134 4282   6.766  29.759  44.988
    1STR   H135 4283   6.940  29.764  44.971
    1STR   C136 4284   6.958  29.964  44.781
    1STR   H137 4285   6.961  29.897  44.695
    1STR   H138 4286   6.945  30.065  44.743
    1STR   O139 4287   7.079  29.954  44.856
    1STR   C140 4288   7.198  29.981  44.783
    1STR   H141 4289   7.194  29.932  44.685
    1STR   C142 4290   7.217  30.132  44.766
    1STR   H143 4291   7.216  30.183  44.863
    1STR   H144 4292   7.139  30.177  44.705
    1STR   H145 4293   7.312  30.155  44.718
    1STR   C146 4294   7.315  29.919  44.862
    1STR   H147 4295   7.323  29.966  44.960
    1STR   H148 4296   7.294  29.813  44.879
    1STR   O149 4297   7.436  29.934  44.788
    1STR   C150 4298   7.553  29.884  44.852
    1STR   H151 4299   7.553  29.912  44.957
    1STR   C152 4300   7.559  29.731  44.837
    1STR   H153 4301   7.554  29.702  44.732
    1STR   H154 4302   7.478  29.681  44.890
    1STR   H155 4303   7.652  29.692  44.878
    1STR   C156 4304   7.673  29.952  44.785
    1STR   H157 4305   7.678  29.925  44.679
    1STR   H158 4306   7.661  30.060  44.790
    1STR   O159 4307   7.793  29.912  44.852
    1STR   C160 4308   7.913  29.965  44.797
    1STR   H161 4309   7.911  29.960  44.688
    1STR   C162 4310   7.932  30.111  44.843
    1STR   H163 4311   7.930  30.118  44.952
    1STR   H164 4312   7.855  30.176  44.803
    1STR   H165 4313   8.028  30.150  44.809
    1STR   C166 4314   8.029  29.876  44.846
    1STR   H167 4315   8.035  29.880  44.955
    1STR   H168 4316   8.007  29.772  44.819
    1STR   O169 4317   8.151  29.919  44.787
    1STR   C170 4318   8.267  29.847  44.827
    1STR   H171 4319   8.265  29.830  44.935
    1STR   C172 4320   8.273  29.713  44.753
    1STR   H173 4321   8.270  29.727  44.645
    1STR   H174 4322   8.191  29.646  44.780
    1STR   H175 4323   8.366  29.660  44.776
    1STR   C176 4324   8.389  29.935  44.795
    1STR   H177 4325   8.395  29.953  44.687
    1STR   H178 4326   8.376  30.032  44.843
    1STR   O179 4327   8.507  29.871  44.842
    1STR   C180 4328   8.628  29.941  44.815
    1STR   H181 4329   8.628  29.979  44.713
    1STR   C182 4330   8.646  30.056  44.915
    1STR   H183 4331   8.642  30.020  45.018
    1STR   H184 4332   8.569  30.133  44.904
    1STR   H185 4333   8.742  30.105  44.901
    1STR   C186 4334   8.743  29.839  44.827
    1STR   H187 4335   8.747  29.799  44.928
    1STR   H188 4336   8.722  29.755  44.760
    1STR   O189 4337   8.866  29.901  44.791
    1STR   C190 4338   8.981  29.818  44.801
    1STR   H191 4339   8.978  29.760  44.893
    1STR   C192 4340   8.989  29.725  44.679
    1STR   H193 4341   8.988  29.781  44.586
    1STR   H194 4342   8.907  29.653  44.677
    1STR   H195 4343   9.081  29.666  44.682
    1STR   C196 4344   9.103  29.911  44.808
    1STR   H197 4345   9.111  29.970  44.717
    1STR   H198 4346   9.090  29.981  44.891
    1STR   O199 4347   9.221  29.833  44.828
    1STR   C200 4348   9.343  29.907  44.833
    1STR   H201 4349   9.344  29.983  44.755
    1STR   C202 4350   9.358  29.972  44.971
    1STR   H203 4351   9.353  29.898  45.051
    1STR   H204 4352   9.282  30.048  44.990
    1STR   H205 4353   9.455  30.022  44.979
    1STR   C206 4354   9.457  29.808  44.805
    1STR   H207 4355   9.460  29.731  44.882
    1STR   H208 4356   9.438  29.758  44.710
    1STR   O209 4357   9.581  29.879  44.799
    1STR   C210 4358   9.696  29.799  44.777
    1STR   H211 4359   9.691  29.708  44.838
    1STR   C212 4360   9.706  29.762  44.628
    1STR   H213 4361   9.706  29.851  44.565
    1STR   H214 4362   9.624  29.698  44.595
    1STR   H215 4363   9.798  29.707  44.608
    1STR   C216 4364   9.818  29.880  44.823
    1STR   H217 4365   9.827  29.971  44.763
    1STR   H218 4366   9.803  29.911  44.926
    1STR   O219 4367   9.935  29.800  44.811
    1STR   C220 4368  10.057  29.865  44.847
    1STR   H221 4369  10.059  29.966  44.806
    1STR   C222 4370  10.070  29.870  45.000
    1STR   H223 4371  10.063  29.770  45.043
    1STR   H224 4372   9.993  29.932  45.047
    1STR   H225 4373  10.167  29.911  45.029
    1STR   C226 4374  10.172  29.786  44.783
    1STR   H227 4375  10.174  29.684  44.823
    1STR   H228 4376  10.154  29.778  44.676
    1STR   O229 4377  10.296  29.852  44.809
    1STR   C230 4378  10.411  29.786  44.758
    1STR   H231 4379  10.406  29.679  44.778
    1STR   C232 4380  10.424  29.812  44.607
    1STR   H233 4381  10.425  29.918  44.585
    1STR   H234 4382  10.342  29.767  44.551
    1STR   H235 4383  10.516  29.769  44.568
    1STR   C236 4384  10.533  29.842  44.834
    1STR   H237 4385  10.543  29.949  44.816
    1STR   H238 4386  10.516  29.829  44.941
    1STR   O239 4387  10.651  29.772  44.793
    1STR   C240 4388  10.772  29.817  44.855
    1STR   H241 4389  10.775  29.926  44.858
    1STR   C242 4390  10.782  29.760  44.997
    1STR   H243 4391  10.774  29.651  44.997
    1STR   H244 4392  10.704  29.799  45.063
    1STR   H245 4393  10.878  29.786  45.042
    1STR   C246 4394  10.888  29.769  44.767
    1STR   H247 4395  10.890  29.660  44.762
    1STR   H248 4396  10.873  29.804  44.665
    1STR   O249 4397  11.012  29.819  44.818
    1STR   C250 4398  11.128  29.778  44.747
    1STR   H251 4399  11.123  29.672  44.722
    1STR   C252 4400  11.143  29.862  44.619
    1STR   H253 4401  11.143  29.969  44.642
    1STR   H254 4402  11.062  29.843  44.548
    1STR   H255 4403  11.236  29.839  44.568
    1STR   C256 4404  11.249  29.798  44.841
    1STR   H257 4405  11.259  29.904  44.867
    1STR   H258 4406  11.231  29.744  44.933
    1STR   O259 4407  11.368  29.751  44.777
    1STR   C260 4408  11.488  29.766  44.853
    1STR   H261 4409  11.491  29.865  44.899
    1STR   C262 4410  11.495  29.657  44.961
    1STR   H263 4411  11.487  29.558  44.917
    1STR   H264 4412  11.417  29.667  45.036
    1STR   H265 4413  11.590  29.662  45.014
    1STR   C266 4414  11.607  29.756  44.755
    1STR   H267 4415  11.608  29.658  44.708
    1STR   H268 4416  11.593  29.830  44.676
    1STR   O269 4417  11.730  29.780  44.825
    1STR   C270 4418  11.848  29.771  44.745
    1STR   H271 4419  11.843  29.684  44.679
    1STR   C272 4420  11.863  29.899  44.661
    1STR   H273 4421  11.863  29.988  44.725
    1STR   H274 4422  11.784  29.910  44.588
    1STR   H275 4423  11.957  29.898  44.606
    1STR   C276 4424  11.968  29.752  44.840
    1STR   H277 4425  11.977  29.838  44.907
    1STR   H278 4426  11.949  29.665  44.903
    1STR   O279 4427  12.089  29.734  44.765
    1STR   C280 4428  12.208  29.716  44.842
    1STR   H281 4429  12.210  29.788  44.924
    1STR   C282 4430  12.212  29.573  44.898
    1STR   H283 4431  12.204  29.500  44.818
    1STR   H284 4432  12.133  29.554  44.969
    1STR   H285 4433  12.306  29.555  44.949
    1STR   C286 4434  12.329  29.745  44.751
    1STR   H287 4435  12.330  29.674  44.668
    1STR   H288 4436  12.317  29.844  44.708
    1STR   O289 4437  12.451  29.737  44.825
    1STR   C290 4438  12.571  29.761  44.751
    1STR   H291 4439  12.568  29.708  44.656
    1STR   C292 4440  12.586  29.912  44.726
    1STR   H293 4441  12.583  29.968  44.820
    1STR   H294 4442  12.508  29.951  44.661
    1STR   H295 4443  12.681  29.934  44.677
    1STR   C296 4444  12.691  29.706  44.833
    1STR   H297 4445  12.696  29.757  44.929
    1STR   H298 4446  12.672  29.601  44.854
    1STR   O299 4447  12.814  29.722  44.762
    1STR   C300 4448  12.931  29.675  44.830
    1STR   H301 4449  12.927  29.706  44.935
    1STR   C302 4450  12.938  29.522  44.820
    1STR   H303 4451  12.933  29.488  44.717
    1STR   H304 4452  12.857  29.474  44.875
    1STR   H305 4453  13.031  29.484  44.863
    1STR   C306 4454  13.057  29.740  44.767
    1STR   H307 4455  13.070  29.705  44.665
    1STR   H308 4456  13.039  29.848  44.762
    1STR   O309 4457  13.175  29.713  44.845
    1STR    H1R 4458  13.310  29.747  44.693
    1STR    H1S 4459  13.393  29.966  44.792
    1STR    H1T 4460  13.278  29.947  44.924
    1STR    H1U 4461  13.221  29.972  44.759
    1STR    H1V 4462  13.412  29.598  44.870
    1STR    H1W 4463  13.411  29.732  44.982
    1STR    H1X 4464  13.725  29.794  44.722
    1STR    H1Y 4465  13.893  29.908  44.624
    1STR    H1Z 4466  14.107  30.024  44.636
    1STR    H20 4467  14.266  30.142  44.944
    1STR    H21 4468  14.341  30.033  44.826
    1STR    H22 4469  14.244  30.170  44.773
    1STR    H23 4470  14.092  29.977  45.173
    1STR    H27 4471  13.900  29.846  45.050
    1STR    H28 4472   1.330  30.167  44.693
    1STR    H29 4473   1.100  30.126  44.639
    1STR    H2A 4474   0.863  29.940  44.840
    1STR    H2B 4475   0.903  30.002  44.682
    1STR    H2C 4476   0.834  30.111  44.802
    1STR   BCK1 4477   0.874  45.065   0.141
    1STR    O03 4478   0.849  45.064   0.261
    1STR    N04 4479   0.986  45.118   0.088
    1STR    C05 4480   1.083  45.195   0.155
    1STR    C06 4481   1.222  45.164   0.143
    1STR    C07 4482   1.324  45.240   0.209
    1STR    N08 4483   1.461  45.209   0.193
    1STR    C09 4484   1.568  45.253   0.263
    1STR    O0A 4485   1.562  45.326   0.361
    1STR    O0B 4486   1.687  45.207   0.213
    1STR    C0C 4487   1.811  45.239   0.280
    1STR    C0D 4488   1.829  45.144   0.400
    1STR    C0E 4489   1.933  45.233   0.185
    1STR    O0F 4490   2.053  45.266   0.256
    1STR    C0G 4491   2.175  45.266   0.180
    1STR    C0H 4492   2.183  45.395   0.097
    1STR    C0I 4493   2.296  45.256   0.277
    1STR    O0J 4494   2.418  45.249   0.203
    1STR    C0K 4495  13.293  45.557   0.038
    1STR    C0M 4496  13.286  45.431   0.127
    1STR    C0N 4497  13.418  45.548  60.107
    1STR    O0O 4498  13.536  45.564   0.027
    1STR    C0P 4499  13.640  45.478   0.023
    1STR    O0Q 4500  13.649  45.376  60.115
    1STR    N0R 4501  13.733  45.523   0.108
    1STR    C0S 4502  13.860  45.480   0.150
    1STR    C0T 4503  13.920  45.564   0.245
    1STR    C0U 4504  14.048  45.535   0.295
    1STR    C0V 4505  14.121  45.423   0.250
    1STR    C0W 4506  14.260  45.409   0.307
    1STR    C0X 4507  14.064  45.335   0.154
    1STR    N0Y 4508  14.132  45.229   0.089
    1STR   BCK2 4509  14.240  45.148   0.098
    1STR    O10 4510  14.268  45.086  60.156
    1STR    C13 4511  13.932  45.366   0.105
    1STR    C14 4512   1.281  45.350   0.288
    1STR    C15 4513   1.145  45.384   0.297
    1STR    C16 4514   1.046  45.310   0.230
    1STR    C17 4515   0.903  45.361   0.236
    1STR    H1B 4516   0.998  45.103  60.150
    1STR    H1C 4517   1.251  45.079   0.083
    1STR    H1D 4518   1.487  45.144   0.122
    1STR    H1E 4519   1.805  45.341   0.317
    1STR    H1F 4520   1.836  45.040   0.368
    1STR    H1G 4521   1.920  45.168   0.454
    1STR    H1H 4522   1.747  45.153   0.470
    1STR    H1I 4523   1.917  45.302   0.102
    1STR    H1J 4524   1.942  45.133   0.141
    1STR    H1K 4525   2.178  45.179   0.114
    1STR    H1M 4526   2.178  45.484   0.161
    1STR    H1N 4527   2.104  45.403   0.023
    1STR    H1O 4528   2.278  45.400   0.044
    1STR    H1P 4529   2.297  45.342   0.344
    1STR    H1Q 4530   2.284  45.167   0.339
    1STR   C010 4531   2.539  45.244   0.280
    1STR   H011 4532   2.535  45.318   0.360
    1STR   C012 4533   2.557  45.103   0.340
    1STR   H013 4534   2.557  45.027   0.261
    1STR   H014 4535   2.480  45.078   0.412
    1STR   H015 4536   2.653  45.096   0.392
    1STR   C016 4537   2.658  45.281   0.188
    1STR   H017 4538   2.664  45.209   0.106
    1STR   H018 4539   2.639  45.378   0.144
    1STR   O019 4540   2.780  45.282   0.262
    1STR   C020 4541   2.898  45.311   0.185
    1STR   H021 4542   2.896  45.256   0.091
    1STR   C022 4543   2.906  45.462   0.157
    1STR   H023 4544   2.904  45.520   0.250
    1STR   H024 4545   2.825  45.497   0.094
    1STR   H025 4546   2.999  45.487   0.106
    1STR   C026 4547   3.022  45.264   0.265
    1STR   H027 4548   3.028  45.317   0.360
    1STR   H028 4549   3.010  45.158   0.289
    1STR   O029 4550   3.141  45.285   0.188
    1STR   C030 4551   3.263  45.249   0.252
    1STR   H031 4552   3.263  45.284   0.356
    1STR   C032 4553   3.281  45.096   0.248
    1STR   H033 4554   3.277  45.059   0.146
    1STR   H034 4555   3.205  45.044   0.306
    1STR   H035 4556   3.378  45.068   0.290
    1STR   C036 4557   3.378  45.320   0.179
    1STR   H037 4558   3.383  45.287   0.075
    1STR   H038 4559   3.359  45.427   0.178
    1STR   O039 4560   3.502  45.293   0.246
    1STR   C040 4561   3.618  45.350   0.185
    1STR   H041 4562   3.614  45.337   0.077
    1STR   C042 4563   3.627  45.500   0.219
    1STR   H043 4564   3.626  45.516   0.327
    1STR   H044 4565   3.545  45.557   0.176
    1STR   H045 4566   3.719  45.543   0.180
    1STR   C046 4567   3.741  45.274   0.238
    1STR   H047 4568   3.749  45.286   0.346
    1STR   H048 4569   3.728  45.168   0.218
    1STR   O049 4570   3.859  45.322   0.173
    1STR   C050 4571   3.981  45.262   0.216
    1STR   H051 4572   3.983  45.253   0.325
    1STR   C052 4573   3.997  45.124   0.151
    1STR   H053 4574   3.992  45.131   0.042
    1STR   H054 4575   3.921  45.054   0.184
    1STR   H055 4576   4.094  45.080   0.176
    1STR   C056 4577   4.096  45.356   0.175
    1STR   H057 4578   4.099  45.367   0.067
    1STR   H058 4579   4.077  45.455   0.217
    1STR   O059 4580   4.220  45.305   0.224
    1STR   C060 4581   4.336  45.381   0.190
    1STR   H061 4582   4.331  45.412   0.085
    1STR   C062 4583   4.346  45.504   0.282
    1STR   H063 4584   4.347  45.475   0.387
    1STR   H064 4585   4.264  45.574   0.267
    1STR   H065 4586   4.439  45.558   0.262
    1STR   C066 4587   4.458  45.289   0.206
    1STR   H067 4588   4.467  45.256   0.309
    1STR   H068 4589   4.443  45.199   0.145
    1STR   O069 4590   4.575  45.358   0.164
    1STR   C070 4591   4.697  45.285   0.177
    1STR   H071 4592   4.699  45.233   0.273
    1STR   C072 4593   4.710  45.184   0.062
    1STR   H073 4594   4.704  45.233  60.125
    1STR   H074 4595   4.634  45.107   0.065
    1STR   H075 4596   4.807  45.133   0.066
    1STR   C076 4597   4.812  45.387   0.176
    1STR   H077 4598   4.814  45.440   0.080
    1STR   H078 4599   4.795  45.461   0.254
    1STR   O079 4600   4.936  45.319   0.198
    1STR   C080 4601   5.052  45.402   0.195
    1STR   H081 4602   5.046  45.472   0.112
    1STR   C082 4603   5.065  45.478   0.328
    1STR   H083 4604   5.066  45.409   0.413
    1STR   H084 4605   4.983  45.548   0.344
    1STR   H085 4606   5.158  45.535   0.331
    1STR   C086 4607   5.173  45.310   0.171
    1STR   H087 4608   5.183  45.239   0.253
    1STR   H088 4609   5.156  45.252   0.081
    1STR   O089 4610   5.291  45.389   0.158
    1STR   C090 4611   5.411  45.316   0.139
    1STR   H091 4612   5.414  45.230   0.206
    1STR   C092 4613   5.422  45.270  60.153
    1STR   H093 4614   5.415  45.354  60.084
    1STR   H094 4615   5.344  45.198  60.127
    1STR   H095 4616   5.518  45.221  60.135
    1STR   C096 4617   5.528  45.409   0.177
    1STR   H097 4618   5.529  45.496   0.111
    1STR   H098 4619   5.512  45.446   0.278
    1STR   O099 4620   5.651  45.337   0.169
    1STR   C100 4621   5.768  45.413   0.198
    1STR   H101 4622   5.762  45.511   0.150
    1STR   C102 4623   5.783  45.430   0.350
    1STR   H103 4624   5.784  45.333   0.400
    1STR   H104 4625   5.702  45.489   0.393
    1STR   H105 4626   5.876  45.481   0.374
    1STR   C106 4627   5.887  45.338   0.137
    1STR   H107 4628   5.897  45.240   0.184
    1STR   H108 4629   5.869  45.322   0.031
    1STR   O109 4630   6.006  45.416   0.155
    1STR   C110 4631   6.125  45.355   0.107
    1STR   H111 4632   6.128  45.250   0.133
    1STR   C112 4633   6.134  45.371  60.114
    1STR   H113 4634   6.126  45.476  60.085
    1STR   H114 4635   6.055  45.317  60.062
    1STR   H115 4636   6.229  45.333  60.076
    1STR   C116 4637   6.243  45.425   0.177
    1STR   H117 4638   6.245  45.531   0.151
    1STR   H118 4639   6.229  45.418   0.285
    1STR   O119 4640   6.365  45.361   0.139
    1STR   C120 4641   6.483  45.419   0.194
    1STR   H121 4642   6.478  45.528   0.189
    1STR   C122 4643   6.500  45.373   0.340
    1STR   H123 4644   6.501  45.264   0.347
    1STR   H124 4645   6.421  45.410   0.404
    1STR   H125 4646   6.595  45.409   0.380
    1STR   C126 4647   6.601  45.374   0.106
    1STR   H127 4648   6.611  45.265   0.110
    1STR   H128 4649   6.581  45.401   0.003
    1STR   O129 4650   6.721  45.436   0.152
    1STR   C130 4651   6.839  45.400   0.082
    1STR   H131 4652   6.840  45.292   0.064
    1STR   C132 4653   6.846  45.475  60.108
    1STR   H133 4654   6.839  45.583  60.123
    1STR   H134 4655   6.765  45.446  60.040
    1STR   H135 4656   6.940  45.455  60.057
    1STR   C136 4657   6.958  45.434   0.172
    1STR   H137 4658   6.961  45.542   0.190
    1STR   H138 4659   6.945  45.385   0.268
    1STR   O139 4660   7.079  45.391   0.109
    1STR   C140 4661   7.198  45.421   0.181
    1STR   H141 4662   7.194  45.523   0.221
    1STR   C142 4663   7.217  45.320   0.296
    1STR   H143 4664   7.216  45.218   0.259
    1STR   H144 4665   7.139  45.329   0.372
    1STR   H145 4666   7.312  45.337   0.347
    1STR   C146 4667   7.315  45.414   0.081
    1STR   H147 4668   7.323  45.313   0.041
    1STR   H148 4669   7.294  45.480  60.157
    1STR   O149 4670   7.436  45.452   0.146
    1STR   C150 4671   7.553  45.446   0.065
    1STR   H151 4672   7.553  45.354   0.006
    1STR   C152 4673   7.559  45.568  60.133
    1STR   H153 4674   7.554  45.661   0.030
    1STR   H154 4675   7.478  45.570  60.060
    1STR   H155 4676   7.652  45.569  60.076
    1STR   C156 4677   7.673  45.441   0.160
    1STR   H157 4678   7.678  45.532   0.220
    1STR   H158 4679   7.661  45.358   0.229
    1STR   O159 4680   7.793  45.425   0.084
    1STR   C160 4681   7.913  45.423   0.160
    1STR   H161 4682   7.911  45.500   0.237
    1STR   C162 4683   7.932  45.285   0.225
    1STR   H163 4684   7.930  45.206   0.150
    1STR   H164 4685   7.855  45.263   0.299
    1STR   H165 4686   8.028  45.279   0.277
    1STR   C166 4687   8.029  45.455   0.064
    1STR   H167 4688   8.035  45.379  60.146
    1STR   H168 4689   8.007  45.550   0.014
    1STR   O169 4690   8.151  45.464   0.137
    1STR   C170 4691   8.267  45.490   0.059
    1STR   H171 4692   8.265  45.430  60.128
    1STR   C172 4693   8.273  45.639   0.023
    1STR   H173 4694   8.270  45.701   0.112
    1STR   H174 4695   8.191  45.670  60.118
    1STR   H175 4696   8.366  45.662  60.130
    1STR   C176 4697   8.389  45.447   0.142
    1STR   H177 4698   8.395  45.506   0.233
    1STR   H178 4699   8.376  45.343   0.172
    1STR   O179 4700   8.507  45.462   0.063
    1STR   C180 4701   8.628  45.429   0.130
    1STR   H181 4702   8.628  45.469   0.232
    1STR   C182 4703   8.646  45.276   0.135
    1STR   H183 4704   8.642  45.233   0.035
    1STR   H184 4705   8.569  45.227   0.195
    1STR   H185 4706   8.742  45.250   0.178
    1STR   C186 4707   8.743  45.496   0.053
    1STR   H187 4708   8.747  45.457  60.112
    1STR   H188 4709   8.722  45.603   0.045
    1STR   O189 4710   8.866  45.474   0.122
    1STR   C190 4711   8.981  45.528   0.058
    1STR   H191 4712   8.977  45.509  60.111
    1STR   C192 4713   8.989  45.680   0.085
    1STR   H193 4714   8.988  45.701   0.192
    1STR   H194 4715   8.907  45.734   0.038
    1STR   H195 4716   9.081  45.721   0.044
    1STR   C196 4717   9.103  45.455   0.115
    1STR   H197 4718   9.111  45.473   0.223
    1STR   H198 4719   9.090  45.348   0.102
    1STR   O199 4720   9.221  45.499   0.048
    1STR   C200 4721   9.342  45.441   0.094
    1STR   H201 4722   9.344  45.438   0.204
    1STR   C202 4723   9.358  45.300   0.037
    1STR   H203 4724   9.353  45.301  60.088
    1STR   H204 4725   9.282  45.231   0.074
    1STR   H205 4726   9.455  45.257   0.065
    1STR   C206 4727   9.457  45.533   0.049
    1STR   H207 4728   9.460  45.538  60.100
    1STR   H208 4729   9.438  45.634   0.085
    1STR   O209 4730   9.580  45.485   0.101
    1STR   C210 4731   9.696  45.559   0.063
    1STR   H211 4732   9.691  45.585  60.117
    1STR   C212 4733   9.706  45.687   0.148
    1STR   H213 4734   9.706  45.664   0.254
    1STR   H214 4735   9.623  45.756   0.129
    1STR   H215 4736   9.798  45.741   0.126
    1STR   C216 4737   9.818  45.468   0.084
    1STR   H217 4738   9.827  45.442   0.190
    1STR   H218 4739   9.803  45.376   0.029
    1STR   O219 4740   9.935  45.535   0.039
    1STR   C220 4741  10.057  45.463   0.056
    1STR   H221 4742  10.059  45.416   0.154
    1STR   C222 4743  10.070  45.356  60.106
    1STR   H223 4744  10.063  45.401  60.007
    1STR   H224 4745   9.993  45.279  60.114
    1STR   H225 4746  10.166  45.306  60.113
    1STR   C226 4747  10.172  45.564   0.049
    1STR   H227 4748  10.174  45.613  60.112
    1STR   H228 4749  10.154  45.643   0.123
    1STR   O229 4750  10.296  45.498   0.075
    1STR   C230 4751  10.411  45.581   0.069
    1STR   H231 4752  10.406  45.647  60.142
    1STR   C232 4753  10.424  45.664   0.197
    1STR   H233 4754  10.425  45.600   0.286
    1STR   H234 4755  10.342  45.735   0.208
    1STR   H235 4756  10.516  45.722   0.197
    1STR   C236 4757  10.533  45.489   0.050
    1STR   H237 4758  10.543  45.422   0.136
    1STR   H238 4759  10.516  45.426  60.122
    1STR   O239 4760  10.651  45.567   0.033
    1STR   C240 4761  10.772  45.493   0.018
    1STR   H241 4762  10.775  45.411   0.090
    1STR   C242 4763  10.782  45.439  60.034
    1STR   H243 4764  10.774  45.520  59.961
    1STR   H244 4765  10.704  45.366  60.012
    1STR   H245 4766  10.878  45.389  60.019
    1STR   C246 4767  10.888  45.588   0.051
    1STR   H247 4768  10.889  45.671  60.140
    1STR   H248 4769  10.873  45.631   0.150
    1STR   O249 4770  11.012  45.516   0.046
    1STR   C250 4771  11.128  45.594   0.071
    1STR   H251 4772  11.122  45.689   0.018
    1STR   C252 4773  11.143  45.619   0.222
    1STR   H253 4774  11.143  45.525   0.278
    1STR   H254 4775  11.062  45.681   0.262
    1STR   H255 4776  11.236  45.671   0.244
    1STR   C256 4777  11.249  45.516   0.016
    1STR   H257 4778  11.259  45.421   0.068
    1STR   H258 4779  11.231  45.494  60.071
    1STR   O259 4780  11.368  45.594   0.030
    1STR   C260 4781  11.488  45.532  60.145
    1STR   H261 4782  11.491  45.428   0.017
    1STR   C262 4783  11.495  45.539  59.991
    1STR   H263 4784  11.487  45.642  59.957
    1STR   H264 4785  11.417  45.481  59.943
    1STR   H265 4786  11.590  45.499  59.956
    1STR   C266 4787  11.607  45.605   0.050
    1STR   H267 4788  11.608  45.709   0.019
    1STR   H268 4789  11.593  45.604   0.158
    1STR   O269 4790  11.729  45.541   0.015
    1STR   C270 4791  11.848  45.601   0.068
    1STR   H271 4792  11.842  45.709   0.057
    1STR   C272 4793  11.863  45.563   0.216
    1STR   H273 4794  11.863  45.455   0.229
    1STR   H274 4795  11.784  45.604   0.278
    1STR   H275 4796  11.957  45.601   0.256
    1STR   C276 4797  11.968  45.551  60.145
    1STR   H277 4798  11.977  45.443  60.154
    1STR   H278 4799  11.949  45.573  60.040
    1STR   O279 4800  12.088  45.615   0.028
    1STR   C280 4801  12.207  45.576  60.119
    1STR   H281 4802  12.209  45.467  60.107
    1STR   C282 4803  12.212  45.644  59.981
    1STR   H283 4804  12.204  45.752  59.991
    1STR   H284 4805  12.132  45.610  59.916
    1STR   H285 4806  12.306  45.623  59.931
    1STR   C286 4807  12.329  45.616   0.045
    1STR   H287 4808  12.330  45.724   0.059
    1STR   H288 4809  12.317  45.571   0.144
    1STR   O289 4810  12.451  45.572  60.145
    1STR   C290 4811  12.571  45.604   0.055
    1STR   H291 4812  12.568  45.708   0.089
    1STR   C292 4813  12.587  45.510   0.176
    1STR   H293 4814  12.583  45.405   0.145
    1STR   H294 4815  12.509  45.525   0.251
    1STR   H295 4816  12.682  45.527   0.226
    1STR   C296 4817  12.690  45.589  60.117
    1STR   H297 4818  12.695  45.487  60.081
    1STR   H298 4819  12.672  45.653  60.031
    1STR   O299 4820  12.813  45.625   0.021
    1STR   C300 4821  12.931  45.613  60.099
    1STR   H301 4822  12.926  45.519  60.043
    1STR   C302 4823  12.939  45.732  60.003
    1STR   H303 4824  12.935  45.827  60.057
    1STR   H304 4825  12.859  45.732  59.930
    1STR   H305 4826  13.033  45.730  59.947
    1STR   C306 4827  13.055  45.606   0.032
    1STR   H307 4828  13.068  45.701   0.083
    1STR   H308 4829  13.034  45.532   0.109
    1STR   O309 4830  13.174  45.569  60.120
    1STR    H1R 4831  13.303  45.646   0.101
    1STR    H1S 4832  13.380  45.416   0.181
    1STR    H1T 4833  13.268  45.342   0.067
    1STR    H1U 4834  13.208  45.438   0.203
    1STR    H1V 4835  13.416  45.629  60.034
    1STR    H1W 4836  13.419  45.455  60.050
    1STR    H1X 4837  13.699  45.608   0.148
    1STR    H1Y 4838  13.870  45.652   0.282
    1STR    H1Z 4839  14.091  45.602   0.368
    1STR    H20 4840  14.261  45.327   0.379
    1STR    H21 4841  14.332  45.392   0.227
    1STR    H22 4842  14.292  45.498   0.360
    1STR    H23 4843  14.087  45.203   0.003
    1STR    H27 4844  13.885  45.303   0.031
    1STR    H28 4845   1.350  45.413   0.341
    1STR    H29 4846   1.117  45.469   0.357
    1STR    H2A 4847   0.853  45.347   0.140
    1STR    H2B 4848   0.901  45.467   0.259
    1STR    H2C 4849   0.848  45.309   0.313
    1STR   BCK1 4850   0.858  45.000  15.068
    1STR    O03 4851   0.830  44.990  14.949
    1STR    N04 4852   0.982  44.980  15.118
    1STR    C05 4853   1.083  44.904  15.057
    1STR    C06 4854   1.218  44.951  15.045
    1STR    C07 4855   1.322  44.868  14.991
    1STR    N08 4856   1.457  44.911  14.984
    1STR    C09 4857   1.569  44.837  14.969
    1STR    O0A 4858   1.570  44.714  14.964
    1STR    O0B 4859   1.684  44.911  14.959
    1STR    C0C 4860   1.809  44.846  14.925
    1STR    C0D 4861   1.821  44.836  14.772
    1STR    C0E 4862   1.933  44.917  14.985
    1STR    O0F 4863   2.052  44.844  14.952
    1STR    C0G 4864   2.175  44.893  15.007
    1STR    C0H 4865   2.185  44.852  15.155
    1STR    C0I 4866   2.295  44.835  14.928
    1STR    O0J 4867   2.419  44.889  14.977
    1STR    C0K 4868  13.287  44.758  15.328
    1STR    C0M 4869  13.293  44.800  15.180
    1STR    C0N 4870  13.407  44.818  15.405
    1STR    O0O 4871  13.528  44.753  15.366
    1STR    C0P 4872  13.638  44.823  15.330
    1STR    O0Q 4873  13.647  44.945  15.325
    1STR    N0R 4874  13.734  44.737  15.298
    1STR    C0S 4875  13.863  44.755  15.245
    1STR    C0T 4876  13.920  44.644  15.181
    1STR    C0U 4877  14.044  44.654  15.115
    1STR    C0V 4878  14.114  44.776  15.112
    1STR    C0W 4879  14.235  44.785  15.021
    1STR    C0X 4880  14.065  44.887  15.186
    1STR    N0Y 4881  14.132  45.010  15.188
    1STR   BCK2 4882  14.258  45.046  15.215
    1STR    O10 4883  14.291  45.164  15.200
    1STR    C13 4884  13.937  44.876  15.248
    1STR    C14 4885   1.284  44.740  14.944
    1STR    C15 4886   1.154  44.692  14.959
    1STR    C16 4887   1.054  44.771  15.018
    1STR    C17 4888   0.919  44.706  15.044
    1STR    H1B 4889   0.996  45.011  15.212
    1STR    H1C 4890   1.242  45.050  15.079
    1STR    H1D 4891   1.477  45.009  14.992
    1STR    H1E 4892   1.809  44.745  14.966
    1STR    H1F 4893   1.824  44.934  14.725
    1STR    H1G 4894   1.912  44.783  14.743
    1STR    H1H 4895   1.737  44.781  14.730
    1STR    H1I 4896   1.921  44.923  15.094
    1STR    H1J 4897   1.940  45.019  14.948
    1STR    H1K 4898   2.179  45.002  14.999
    1STR    H1M 4899   2.178  44.743  15.166
    1STR    H1N 4900   2.107  44.897  15.216
    1STR    H1O 4901   2.281  44.883  15.198
    1STR    H1P 4902   2.296  44.726  14.935
    1STR    H1Q 4903   2.283  44.859  14.822
    1STR   C010 4904   2.539  44.840  14.917
    1STR   H011 4905   2.534  44.731  14.908
    1STR   C012 4906   2.558  44.903  14.778
    1STR   H013 4907   2.558  45.012  14.784
    1STR   H014 4908   2.480  44.873  14.708
    1STR   H015 4909   2.653  44.873  14.734
    1STR   C016 4910   2.658  44.874  15.010
    1STR   H017 4911   2.664  44.983  15.022
    1STR   H018 4912   2.639  44.832  15.108
    1STR   O019 4913   2.781  44.823  14.957
    1STR   C020 4914   2.898  44.853  15.033
    1STR   H021 4915   2.896  44.958  15.065
    1STR   C022 4916   2.906  44.761  15.155
    1STR   H023 4917   2.904  44.656  15.126
    1STR   H024 4918   2.824  44.778  15.225
    1STR   H025 4919   2.999  44.778  15.210
    1STR   C026 4920   3.022  44.835  14.942
    1STR   H027 4921   3.028  44.731  14.908
    1STR   H028 4922   3.010  44.897  14.853
    1STR   O029 4923   3.141  44.871  15.013
    1STR   C030 4924   3.263  44.855  14.941
    1STR   H031 4925   3.263  44.759  14.888
    1STR   C032 4926   3.281  44.970  14.841
    1STR   H033 4927   3.277  45.067  14.891
    1STR   H034 4928   3.205  44.969  14.763
    1STR   H035 4929   3.378  44.963  14.791
    1STR   C036 4930   3.379  44.851  15.043
    1STR   H037 4931   3.383  44.946  15.098
    1STR   H038 4932   3.359  44.773  15.116
    1STR   O039 4933   3.502  44.826  14.976
    1STR   C040 4934   3.618  44.825  15.059
    1STR   H041 4935   3.614  44.908  15.130
    1STR   C042 4936   3.627  44.692  15.135
    1STR   H043 4937   3.626  44.607  15.066
    1STR   H044 4938   3.545  44.678  15.205
    1STR   H045 4939   3.719  44.686  15.192
    1STR   C046 4940   3.741  44.846  14.969
    1STR   H047 4941   3.749  44.765  14.897
    1STR   H048 4942   3.728  44.938  14.912
    1STR   O049 4943   3.859  44.854  15.049
    1STR   C050 4944   3.981  44.869  14.977
    1STR   H051 4945   3.983  44.803  14.891
    1STR   C052 4946   3.997  45.015  14.932
    1STR   H053 4947   3.992  45.084  15.016
    1STR   H054 4948   3.921  45.045  14.860
    1STR   H055 4949   4.094  45.030  14.884
    1STR   C056 4950   4.096  44.827  15.070
    1STR   H057 4951   4.099  44.893  15.158
    1STR   H058 4952   4.078  44.726  15.107
    1STR   O059 4953   4.220  44.833  14.999
    1STR   C060 4954   4.336  44.799  15.076
    1STR   H061 4955   4.331  44.847  15.174
    1STR   C062 4956   4.346  44.647  15.091
    1STR   H063 4957   4.347  44.598  14.994
    1STR   H064 4958   4.264  44.605  15.150
    1STR   H065 4959   4.439  44.620  15.143
    1STR   C066 4960   4.458  44.857  15.002
    1STR   H067 4961   4.467  44.811  14.904
    1STR   H068 4962   4.443  44.964  14.986
    1STR   O069 4963   4.576  44.834  15.080
    1STR   C070 4964   4.697  44.879  15.021
    1STR   H071 4965   4.699  44.853  14.915
    1STR   C072 4966   4.710  45.031  15.038
    1STR   H073 4967   4.703  45.060  15.143
    1STR   H074 4968   4.634  45.086  14.983
    1STR   H075 4969   4.807  45.066  15.001
    1STR   C076 4970   4.812  44.805  15.090
    1STR   H077 4971   4.814  44.830  15.197
    1STR   H078 4972   4.795  44.698  15.083
    1STR   O079 4973   4.936  44.840  15.028
    1STR   C080 4974   5.052  44.781  15.086
    1STR   H081 4975   5.046  44.785  15.195
    1STR   C082 4976   5.065  44.635  15.039
    1STR   H083 4977   5.066  44.628  14.931
    1STR   H084 4978   4.984  44.572  15.076
    1STR   H085 4979   5.158  44.591  15.076
    1STR   C086 4980   5.173  44.865  15.042
    1STR   H087 4981   5.183  44.861  14.934
    1STR   H088 4982   5.156  44.969  15.070
    1STR   O089 4983   5.291  44.815  15.105
    1STR   C090 4984   5.411  44.881  15.070
    1STR   H091 4985   5.414  44.900  14.962
    1STR   C092 4986   5.422  45.014  15.146
    1STR   H093 4987   5.415  44.999  15.254
    1STR   H094 4988   5.344  45.085  15.117
    1STR   H095 4989   5.518  45.063  15.127
    1STR   C096 4990   5.528  44.787  15.105
    1STR   H097 4991   5.529  44.768  15.212
    1STR   H098 4992   5.512  44.691  15.055
    1STR   O099 4993   5.651  44.846  15.062
    1STR   C100 4994   5.767  44.770  15.093
    1STR   H101 4995   5.762  44.730  15.194
    1STR   C102 4996   5.783  44.655  14.992
    1STR   H103 4997   5.784  44.692  14.889
    1STR   H104 4998   5.702  44.582  15.000
    1STR   H105 4999   5.876  44.601  15.008
    1STR   C106 5000   5.887  44.866  15.086
    1STR   H107 5001   5.897  44.907  14.986
    1STR   H108 5002   5.869  44.950  15.153
    1STR   O109 5003   6.006  44.797  15.125
    1STR   C110 5004   6.125  44.874  15.120
    1STR   H111 5005   6.128  44.934  15.029
    1STR   C112 5006   6.134  44.966  15.243
    1STR   H113 5007   6.127  44.908  15.336
    1STR   H114 5008   6.055  45.041  15.245
    1STR   H115 5009   6.229  45.019  15.245
    1STR   C116 5010   6.243  44.776  15.115
    1STR   H117 5011   6.245  44.715  15.206
    1STR   H118 5012   6.229  44.708  15.031
    1STR   O119 5013   6.365  44.848  15.101
    1STR   C120 5014   6.483  44.769  15.099
    1STR   H121 5015   6.478  44.692  15.176
    1STR   C122 5016   6.500  44.704  14.961
    1STR   H123 5017   6.501  44.779  14.882
    1STR   H124 5018   6.421  44.633  14.938
    1STR   H125 5019   6.595  44.649  14.955
    1STR   C126 5020   6.601  44.861  15.133
    1STR   H127 5021   6.611  44.939  15.057
    1STR   H128 5022   6.581  44.911  15.227
    1STR   O129 5023   6.721  44.784  15.141
    1STR   C130 5024   6.839  44.859  15.169
    1STR   H131 5025   6.840  44.950  15.109
    1STR   C132 5026   6.846  44.893  15.318
    1STR   H133 5027   6.839  44.803  15.380
    1STR   H134 5028   6.766  44.960  15.349
    1STR   H135 5029   6.940  44.943  15.342
    1STR   C136 5030   6.958  44.772  15.126
    1STR   H137 5031   6.961  44.680  15.185
    1STR   H138 5032   6.945  44.743  15.021
    1STR   O139 5033   7.079  44.846  15.142
    1STR   C140 5034   7.198  44.776  15.109
    1STR   H141 5035   7.194  44.674  15.149
    1STR   C142 5036   7.217  44.772  14.957
    1STR   H143 5037   7.216  44.873  14.915
    1STR   H144 5038   7.139  44.714  14.907
    1STR   H145 5039   7.312  44.726  14.931
    1STR   C146 5040   7.315  44.848  15.178
    1STR   H147 5041   7.323  44.950  15.140
    1STR   H148 5042   7.294  44.856  15.285
    1STR   O149 5043   7.436  44.776  15.156
    1STR   C150 5044   7.553  44.836  15.212
    1STR   H151 5045   7.553  44.943  15.193
    1STR   C152 5046   7.559  44.808  15.363
    1STR   H153 5047   7.554  44.701  15.383
    1STR   H154 5048   7.478  44.856  15.417
    1STR   H155 5049   7.652  44.845  15.405
    1STR   C156 5050   7.673  44.775  15.138
    1STR   H157 5051   7.678  44.667  15.156
    1STR   H158 5052   7.661  44.790  15.031
    1STR   O159 5053   7.793  44.838  15.184
    1STR   C160 5054   7.913  44.788  15.126
    1STR   H161 5055   7.911  44.679  15.122
    1STR   C162 5056   7.932  44.846  14.985
    1STR   H163 5057   7.930  44.955  14.987
    1STR   H164 5058   7.855  44.812  14.916
    1STR   H165 5059   8.028  44.816  14.943
    1STR   C166 5060   8.029  44.830  15.219
    1STR   H167 5061   8.035  44.938  15.225
    1STR   H168 5062   8.007  44.794  15.320
    1STR   O169 5063   8.151  44.774  15.171
    1STR   C170 5064   8.267  44.808  15.247
    1STR   H171 5065   8.265  44.914  15.273
    1STR   C172 5066   8.273  44.722  15.374
    1STR   H173 5067   8.270  44.616  15.350
    1STR   H174 5068   8.191  44.743  15.442
    1STR   H175 5069   8.366  44.741  15.428
    1STR   C176 5070   8.388  44.783  15.156
    1STR   H177 5071   8.394  44.678  15.129
    1STR   H178 5072   8.376  44.840  15.064
    1STR   O179 5073   8.507  44.825  15.224
    1STR   C180 5074   8.628  44.804  15.152
    1STR   H181 5075   8.627  44.706  15.105
    1STR   C182 5076   8.646  44.914  15.046
    1STR   H183 5077   8.642  45.013  15.091
    1STR   H184 5078   8.569  44.909  14.969
    1STR   H185 5079   8.742  44.904  14.996
    1STR   C186 5080   8.743  44.806  15.255
    1STR   H187 5081   8.747  44.904  15.303
    1STR   H188 5082   8.722  44.733  15.333
    1STR   O189 5083   8.866  44.776  15.189
    1STR   C190 5084   8.981  44.779  15.273
    1STR   H191 5085   8.977  44.866  15.339
    1STR   C192 5086   8.989  44.650  15.355
    1STR   H193 5087   8.988  44.562  15.291
    1STR   H194 5088   8.906  44.641  15.426
    1STR   H195 5089   9.081  44.647  15.413
    1STR   C196 5090   9.103  44.795  15.181
    1STR   H197 5091   9.111  44.709  15.114
    1STR   H198 5092   9.090  44.883  15.118
    1STR   O199 5093   9.221  44.808  15.261
    1STR   C200 5094   9.342  44.819  15.187
    1STR   H201 5095   9.343  44.748  15.104
    1STR   C202 5096   9.358  44.963  15.134
    1STR   H203 5097   9.353  45.035  15.216
    1STR   H204 5098   9.282  44.988  15.061
    1STR   H205 5099   9.455  44.975  15.085
    1STR   C206 5100   9.457  44.782  15.283
    1STR   H207 5101   9.460  44.852  15.367
    1STR   H208 5102   9.437  44.683  15.325
    1STR   O209 5103   9.580  44.782  15.212
    1STR   C210 5104   9.696  44.753  15.290
    1STR   H211 5105   9.691  44.806  15.386
    1STR   C212 5106   9.706  44.602  15.314
    1STR   H213 5107   9.706  44.547  15.220
    1STR   H214 5108   9.623  44.564  15.375
    1STR   H215 5109   9.798  44.577  15.367
    1STR   C216 5110   9.818  44.806  15.213
    1STR   H217 5111   9.827  44.754  15.118
    1STR   H218 5112   9.803  44.912  15.191
    1STR   O219 5113   9.935  44.788  15.292
    1STR   C220 5114  10.057  44.830  15.231
    1STR   H221 5115  10.059  44.798  15.126
    1STR   C222 5116  10.070  44.983  15.239
    1STR   H223 5117  10.063  45.017  15.343
    1STR   H224 5118   9.993  45.034  15.182
    1STR   H225 5119  10.166  45.015  15.200
    1STR   C226 5120  10.172  44.759  15.304
    1STR   H227 5121  10.174  44.790  15.409
    1STR   H228 5122  10.154  44.651  15.302
    1STR   O229 5123  10.295  44.790  15.240
    1STR   C230 5124  10.411  44.734  15.301
    1STR   H231 5125  10.405  44.744  15.409
    1STR   C232 5126  10.423  44.585  15.262
    1STR   H233 5127  10.424  44.573  15.154
    1STR   H234 5128  10.342  44.525  15.302
    1STR   H235 5129  10.516  44.543  15.301
    1STR   C236 5130  10.532  44.815  15.252
    1STR   H237 5131  10.542  44.806  15.144
    1STR   H238 5132  10.516  44.920  15.275
    1STR   O239 5133  10.650  44.768  15.318
    1STR   C240 5134  10.771  44.833  15.279
    1STR   H241 5135  10.774  44.845  15.171
    1STR   C242 5136  10.781  44.969  15.348
    1STR   H243 5137  10.774  44.960  15.456
    1STR   H244 5138  10.704  45.038  15.315
    1STR   H245 5139  10.877  45.016  15.326
    1STR   C246 5140  10.887  44.740  15.319
    1STR   H247 5141  10.889  44.727  15.427
    1STR   H248 5142  10.871  44.642  15.275
    1STR   O249 5143  11.010  44.796  15.274
    1STR   C250 5144  11.127  44.722  15.308
    1STR   H251 5145  11.121  44.688  15.411
    1STR   C252 5146  11.142  44.602  15.213
    1STR   H253 5147  11.143  44.633  15.109
    1STR   H254 5148  11.061  44.529  15.225
    1STR   H255 5149  11.235  44.549  15.232
    1STR   C256 5150  11.247  44.817  15.296
    1STR   H257 5151  11.257  44.852  15.193
    1STR   H258 5152  11.229  44.905  15.358
    1STR   O259 5153  11.366  44.750  15.338
    1STR   C260 5154  11.486  44.827  15.329
    1STR   H261 5155  11.489  44.881  15.235
    1STR   C262 5156  11.494  44.925  15.447
    1STR   H263 5157  11.486  44.873  15.543
    1STR   H264 5158  11.415  45.000  15.444
    1STR   H265 5159  11.589  44.978  15.447
    1STR   C266 5160  11.604  44.728  15.330
    1STR   H267 5161  11.605  44.673  15.424
    1STR   H268 5162  11.590  44.656  15.250
    1STR   O269 5163  11.727  44.799  15.313
    1STR   C270 5164  11.845  44.719  15.315
    1STR   H271 5165  11.839  44.646  15.396
    1STR   C272 5166  11.861  44.647  15.180
    1STR   H273 5167  11.861  44.718  15.097
    1STR   H274 5168  11.781  44.575  15.162
    1STR   H275 5169  11.955  44.592  15.176
    1STR   C276 5170  11.964  44.812  15.343
    1STR   H277 5171  11.973  44.886  15.263
    1STR   H278 5172  11.945  44.867  15.435
    1STR   O279 5173  12.084  44.736  15.354
    1STR   C280 5174  12.203  44.812  15.378
    1STR   H281 5175  12.205  44.900  15.314
    1STR   C282 5176  12.209  44.854  15.526
    1STR   H283 5177  12.201  44.768  15.592
    1STR   H284 5178  12.129  44.924  15.552
    1STR   H285 5179  12.303  44.904  15.548
    1STR   C286 5180  12.324  44.723  15.341
    1STR   H287 5181  12.325  44.634  15.404
    1STR   H288 5182  12.311  44.689  15.238
    1STR   O289 5183  12.445  44.797  15.355
    1STR   C290 5184  12.565  44.725  15.325
    1STR   H291 5185  12.561  44.626  15.370
    1STR   C292 5186  12.582  44.713  15.172
    1STR   H293 5187  12.580  44.811  15.125
    1STR   H294 5188  12.504  44.652  15.127
    1STR   H295 5189  12.677  44.667  15.147
    1STR   C296 5190  12.683  44.801  15.388
    1STR   H297 5191  12.689  44.902  15.345
    1STR   H298 5192  12.664  44.813  15.495
    1STR   O299 5193  12.806  44.731  15.367
    1STR   C300 5194  12.923  44.794  15.421
    1STR   H301 5195  12.920  44.901  15.399
    1STR   C302 5196  12.929  44.771  15.573
    1STR   H303 5197  12.923  44.665  15.597
    1STR   H304 5198  12.848  44.822  15.625
    1STR   H305 5199  13.022  44.810  15.614
    1STR   C306 5200  13.046  44.734  15.350
    1STR   H307 5201  13.056  44.628  15.374
    1STR   H308 5202  13.031  44.741  15.242
    1STR   O309 5203  13.165  44.805  15.387
    1STR    H1R 5204  13.292  44.650  15.337
    1STR    H1S 5205  13.389  44.773  15.136
    1STR    H1T 5206  13.281  44.907  15.169
    1STR    H1U 5207  13.216  44.751  15.120
    1STR    H1V 5208  13.394  44.802  15.512
    1STR    H1W 5209  13.411  44.926  15.392
    1STR    H1X 5210  13.702  44.643  15.310
    1STR    H1Y 5211  13.868  44.549  15.178
    1STR    H1Z 5212  14.082  44.569  15.061
    1STR    H20 5213  14.249  44.887  14.984
    1STR    H21 5214  14.326  44.755  15.073
    1STR    H22 5215  14.223  44.721  14.934
    1STR    H23 5216  14.075  45.091  15.167
    1STR    H27 5217  13.896  44.962  15.299
    1STR    H28 5218   1.355  44.674  14.896
    1STR    H29 5219   1.131  44.592  14.926
    1STR    H2A 5220   0.880  44.736  15.141
    1STR    H2B 5221   0.926  44.598  15.044
    1STR    H2C 5222   0.848  44.736  14.967
    1STR   BCK1 5223   0.868  45.130  30.099
    1STR    O03 5224   0.810  45.235  30.126
    1STR    N04 5225   0.995  45.122  30.053
    1STR    C05 5226   1.083  45.223  30.007
    1STR    C06 5227   1.223  45.217  30.037
    1STR    C07 5228   1.317  45.311  29.986
    1STR    N08 5229   1.456  45.299  30.013
    1STR    C09 5230   1.561  45.374  29.972
    1STR    O0A 5231   1.552  45.475  29.903
    1STR    O0B 5232   1.682  45.326  30.015
    1STR    C0C 5233   1.804  45.399  29.987
    1STR    C0D 5234   1.819  45.513  30.089
    1STR    C0E 5235   1.929  45.308  29.985
    1STR    O0F 5236   2.048  45.385  29.958
    1STR    C0G 5237   2.172  45.312  29.950
    1STR    C0H 5238   2.181  45.242  29.814
    1STR    C0I 5239   2.292  45.408  29.969
    1STR    O0J 5240   2.415  45.334  29.969
    1STR    C0K 5241  13.301  45.189  29.651
    1STR    C0M 5242  13.294  45.269  29.782
    1STR    C0N 5243  13.421  45.090  29.657
    1STR    O0O 5244  13.546  45.161  29.658
    1STR    C0P 5245  13.645  45.133  29.747
    1STR    O0Q 5246  13.639  45.054  29.840
    1STR    N0R 5247  13.750  45.209  29.716
    1STR    C0S 5248  13.877  45.233  29.771
    1STR    C0T 5249  13.947  45.339  29.710
    1STR    C0U 5250  14.071  45.382  29.759
    1STR    C0V 5251  14.130  45.319  29.870
    1STR    C0W 5252  14.255  45.385  29.927
    1STR    C0X 5253  14.070  45.204  29.928
    1STR    N0Y 5254  14.134  45.136  30.034
    1STR   BCK2 5255  14.264  45.100  30.041
    1STR    O10 5256  14.341  45.105  29.946
    1STR    C13 5257  13.940  45.165  29.880
    1STR    C14 5258   1.266  45.415  29.905
    1STR    C15 5259   1.130  45.422  29.872
    1STR    C16 5260   1.039  45.326  29.919
    1STR    C17 5261   0.897  45.334  29.865
    1STR    H1B 5262   1.030  45.028  30.051
    1STR    H1C 5263   1.258  45.138  30.101
    1STR    H1D 5264   1.486  45.222  30.070
    1STR    H1E 5265   1.796  45.443  29.887
    1STR    H1F 5266   1.829  45.475  30.190
    1STR    H1G 5267   1.908  45.573  30.067
    1STR    H1H 5268   1.734  45.581  30.085
    1STR    H1I 5269   1.916  45.231  29.910
    1STR    H1J 5270   1.940  45.258  30.081
    1STR    H1K 5271   2.175  45.238  30.030
    1STR    H1M 5272   2.174  45.314  29.732
    1STR    H1N 5273   2.103  45.168  29.800
    1STR    H1O 5274   2.277  45.190  29.804
    1STR    H1P 5275   2.293  45.483  29.890
    1STR    H1Q 5276   2.281  45.461  30.064
    1STR   C010 5277   2.536  45.410  29.981
    1STR   H011 5278   2.532  45.497  29.914
    1STR   C012 5279   2.555  45.457  30.126
    1STR   H013 5280   2.555  45.372  30.195
    1STR   H014 5281   2.477  45.526  30.158
    1STR   H015 5282   2.650  45.509  30.138
    1STR   C016 5283   2.655  45.322  29.936
    1STR   H017 5284   2.661  45.234  29.999
    1STR   H018 5285   2.637  45.287  29.835
    1STR   O019 5286   2.778  45.395  29.941
    1STR   C020 5287   2.896  45.322  29.906
    1STR   H021 5288   2.894  45.223  29.953
    1STR   C022 5289   2.904  45.307  29.753
    1STR   H023 5290   2.902  45.404  29.704
    1STR   H024 5291   2.823  45.247  29.713
    1STR   H025 5292   2.997  45.257  29.724
    1STR   C026 5293   3.020  45.396  29.960
    1STR   H027 5294   3.026  45.496  29.915
    1STR   H028 5295   3.009  45.410  30.067
    1STR   O029 5296   3.139  45.322  29.932
    1STR   C030 5297   3.262  45.383  29.974
    1STR   H031 5298   3.261  45.489  29.948
    1STR   C032 5299   3.280  45.365  30.125
    1STR   H033 5300   3.276  45.260  30.153
    1STR   H034 5301   3.204  45.418  30.182
    1STR   H035 5302   3.377  45.404  30.157
    1STR   C036 5303   3.377  45.316  29.896
    1STR   H037 5304   3.382  45.210  29.919
    1STR   H038 5305   3.358  45.325  29.789
    1STR   O039 5306   3.501  45.380  29.929
    1STR   C040 5307   3.617  45.324  29.867
    1STR   H041 5308   3.614  45.215  29.870
    1STR   C042 5309   3.626  45.372  29.721
    1STR   H043 5310   3.626  45.481  29.715
    1STR   H044 5311   3.544  45.334  29.660
    1STR   H045 5312   3.719  45.337  29.675
    1STR   C046 5313   3.741  45.370  29.947
    1STR   H047 5314   3.748  45.479  29.945
    1STR   H048 5315   3.728  45.341  30.052
    1STR   O049 5316   3.859  45.310  29.894
    1STR   C050 5317   3.981  45.347  29.957
    1STR   H051 5318   3.982  45.455  29.976
    1STR   C052 5319   3.997  45.271  30.089
    1STR   H053 5320   3.991  45.163  30.073
    1STR   H054 5321   3.921  45.298  30.162
    1STR   H055 5322   4.094  45.292  30.135
    1STR   C056 5323   4.096  45.316  29.860
    1STR   H057 5324   4.099  45.208  29.840
    1STR   H058 5325   4.077  45.366  29.765
    1STR   O059 5326   4.220  45.360  29.916
    1STR   C060 5327   4.335  45.332  29.837
    1STR   H061 5328   4.330  45.231  29.797
    1STR   C062 5329   4.346  45.434  29.723
    1STR   H063 5330   4.347  45.536  29.761
    1STR   H064 5331   4.264  45.425  29.652
    1STR   H065 5332   4.438  45.420  29.666
    1STR   C066 5333   4.458  45.340  29.930
    1STR   H067 5334   4.467  45.440  29.971
    1STR   H068 5335   4.443  45.272  30.014
    1STR   O069 5336   4.575  45.304  29.857
    1STR   C070 5337   4.697  45.311  29.931
    1STR   H071 5338   4.699  45.402  29.992
    1STR   C072 5339   4.710  45.187  30.022
    1STR   H073 5340   4.703  45.095  29.964
    1STR   H074 5341   4.633  45.184  30.099
    1STR   H075 5342   4.807  45.187  30.073
    1STR   C076 5343   4.812  45.319  29.830
    1STR   H077 5344   4.814  45.228  29.769
    1STR   H078 5345   4.795  45.403  29.763
    1STR   O079 5346   4.936  45.335  29.900
    1STR   C080 5347   5.052  45.340  29.817
    1STR   H081 5348   5.046  45.263  29.739
    1STR   C082 5349   5.065  45.479  29.753
    1STR   H083 5350   5.066  45.557  29.829
    1STR   H084 5351   4.984  45.500  29.684
    1STR   H085 5352   5.158  45.486  29.696
    1STR   C086 5353   5.173  45.307  29.906
    1STR   H087 5354   5.183  45.383  29.984
    1STR   H088 5355   5.156  45.212  29.956
    1STR   O089 5356   5.291  45.301  29.826
    1STR   C090 5357   5.411  45.276  29.897
    1STR   H091 5358   5.414  45.335  29.989
    1STR   C092 5359   5.422  45.126  29.930
    1STR   H093 5360   5.415  45.065  29.840
    1STR   H094 5361   5.344  45.094  29.999
    1STR   H095 5362   5.518  45.104  29.977
    1STR   C096 5363   5.528  45.322  29.808
    1STR   H097 5364   5.529  45.263  29.715
    1STR   H098 5365   5.512  45.426  29.779
    1STR   O099 5366   5.651  45.307  29.878
    1STR   C100 5367   5.767  45.343  29.805
    1STR   H101 5368   5.762  45.303  29.703
    1STR   C102 5369   5.783  45.496  29.802
    1STR   H103 5370   5.784  45.537  29.903
    1STR   H104 5371   5.702  45.544  29.747
    1STR   H105 5372   5.876  45.524  29.753
    1STR   C106 5373   5.887  45.276  29.874
    1STR   H107 5374   5.897  45.314  29.976
    1STR   H108 5375   5.868  45.169  29.882
    1STR   O109 5376   6.006  45.301  29.799
    1STR   C110 5377   6.125  45.247  29.855
    1STR   H111 5378   6.128  45.265  29.963
    1STR   C112 5379   6.134  45.096  29.826
    1STR   H113 5380   6.126  45.077  29.719
    1STR   H114 5381   6.055  45.040  29.876
    1STR   H115 5382   6.229  45.056  29.861
    1STR   C116 5383   6.243  45.323  29.792
    1STR   H117 5384   6.245  45.306  29.684
    1STR   H118 5385   6.229  45.430  29.808
    1STR   O119 5386   6.365  45.279  29.852
    1STR   C120 5387   6.483  45.339  29.799
    1STR   H121 5388   6.478  45.344  29.690
    1STR   C122 5389   6.500  45.480  29.858
    1STR   H123 5390   6.501  45.478  29.967
    1STR   H124 5391   6.421  45.548  29.826
    1STR   H125 5392   6.595  45.524  29.825
    1STR   C126 5393   6.601  45.248  29.837
    1STR   H127 5394   6.611  45.243  29.945
    1STR   H128 5395   6.581  45.148  29.801
    1STR   O129 5396   6.721  45.299  29.778
    1STR   C130 5397   6.839  45.226  29.809
    1STR   H131 5398   6.840  45.199  29.915
    1STR   C132 5399   6.846  45.099  29.722
    1STR   H133 5400   6.839  45.124  29.616
    1STR   H134 5401   6.765  45.029  29.745
    1STR   H135 5402   6.940  45.046  29.738
    1STR   C136 5403   6.958  45.319  29.782
    1STR   H137 5404   6.961  45.347  29.676
    1STR   H138 5405   6.945  45.411  29.839
    1STR   O139 5406   7.079  45.253  29.820
    1STR   C140 5407   7.198  45.327  29.796
    1STR   H141 5408   7.194  45.375  29.698
    1STR   C142 5409   7.217  45.433  29.906
    1STR   H143 5410   7.216  45.387  30.005
    1STR   H144 5411   7.139  45.509  29.904
    1STR   H145 5412   7.312  45.485  29.894
    1STR   C146 5413   7.315  45.227  29.795
    1STR   H147 5414   7.323  45.178  29.892
    1STR   H148 5415   7.294  45.149  29.722
    1STR   O149 5416   7.436  45.295  29.762
    1STR   C150 5417   7.553  45.214  29.761
    1STR   H151 5418   7.553  45.147  29.848
    1STR   C152 5419   7.559  45.132  29.631
    1STR   H153 5420   7.554  45.197  29.544
    1STR   H154 5421   7.478  45.060  29.624
    1STR   H155 5422   7.652  45.076  29.625
    1STR   C156 5423   7.673  45.308  29.774
    1STR   H157 5424   7.678  45.375  29.689
    1STR   H158 5425   7.661  45.370  29.863
    1STR   O159 5426   7.793  45.231  29.784
    1STR   C160 5427   7.913  45.306  29.792
    1STR   H161 5428   7.911  45.389  29.722
    1STR   C162 5429   7.932  45.359  29.935
    1STR   H163 5430   7.930  45.277  30.008
    1STR   H164 5431   7.855  45.430  29.963
    1STR   H165 5432   8.028  45.410  29.946
    1STR   C166 5433   8.029  45.213  29.751
    1STR   H167 5434   8.035  45.129  29.821
    1STR   H168 5435   8.007  45.171  29.653
    1STR   O169 5436   8.151  45.287  29.749
    1STR   C170 5437   8.267  45.211  29.717
    1STR   H171 5438   8.265  45.115  29.769
    1STR   C172 5439   8.273  45.188  29.565
    1STR   H173 5440   8.270  45.283  29.511
    1STR   H174 5441   8.191  45.126  29.529
    1STR   H175 5442   8.366  45.137  29.537
    1STR   C176 5443   8.389  45.290  29.767
    1STR   H177 5444   8.394  45.386  29.716
    1STR   H178 5445   8.376  45.311  29.873
    1STR   O179 5446   8.507  45.213  29.745
    1STR   C180 5447   8.628  45.277  29.784
    1STR   H181 5448   8.627  45.382  29.752
    1STR   C182 5449   8.646  45.268  29.936
    1STR   H183 5450   8.642  45.164  29.970
    1STR   H184 5451   8.569  45.324  29.990
    1STR   H185 5452   8.742  45.309  29.966
    1STR   C186 5453   8.743  45.206  29.710
    1STR   H187 5454   8.747  45.101  29.740
    1STR   H188 5455   8.722  45.208  29.603
    1STR   O189 5456   8.866  45.272  29.738
    1STR   C190 5457   8.981  45.214  29.678
    1STR   H191 5458   8.977  45.105  29.688
    1STR   C192 5459   8.989  45.254  29.530
    1STR   H193 5460   8.988  45.362  29.518
    1STR   H194 5461   8.906  45.213  29.472
    1STR   H195 5462   9.081  45.217  29.485
    1STR   C196 5463   9.103  45.264  29.756
    1STR   H197 5464   9.111  45.373  29.748
    1STR   H198 5465   9.090  45.241  29.862
    1STR   O199 5466   9.221  45.201  29.706
    1STR   C200 5467   9.343  45.242  29.768
    1STR   H201 5468   9.344  45.351  29.781
    1STR   C202 5469   9.358  45.172  29.904
    1STR   H203 5470   9.353  45.064  29.894
    1STR   H204 5471   9.282  45.203  29.975
    1STR   H205 5472   9.455  45.196  29.949
    1STR   C206 5473   9.457  45.205  29.672
    1STR   H207 5474   9.460  45.097  29.658
    1STR   H208 5475   9.438  45.250  29.575
    1STR   O209 5476   9.581  45.253  29.725
    1STR   C210 5477   9.696  45.221  29.648
    1STR   H211 5478   9.691  45.118  29.613
    1STR   C212 5479   9.706  45.317  29.528
    1STR   H213 5480   9.706  45.421  29.560
    1STR   H214 5481   9.624  45.304  29.458
    1STR   H215 5482   9.798  45.299  29.472
    1STR   C216 5483   9.818  45.234  29.740
    1STR   H217 5484   9.827  45.337  29.776
    1STR   H218 5485   9.803  45.171  29.828
    1STR   O219 5486   9.936  45.195  29.670
    1STR   C220 5487  10.057  45.206  29.743
    1STR   H221 5488  10.059  45.300  29.799
    1STR   C222 5489  10.070  45.087  29.840
    1STR   H223 5490  10.063  44.992  29.787
    1STR   H224 5491   9.993  45.088  29.917
    1STR   H225 5492  10.167  45.089  29.891
    1STR   C226 5493  10.172  45.208  29.641
    1STR   H227 5494  10.174  45.115  29.585
    1STR   H228 5495  10.155  45.288  29.570
    1STR   O229 5496  10.296  45.228  29.710
    1STR   C230 5497  10.412  45.229  29.627
    1STR   H231 5498  10.406  45.148  29.553
    1STR   C232 5499  10.424  45.364  29.555
    1STR   H233 5500  10.425  45.446  29.626
    1STR   H234 5501  10.342  45.381  29.485
    1STR   H235 5502  10.517  45.369  29.498
    1STR   C236 5503  10.533  45.202  29.717
    1STR   H237 5504  10.543  45.282  29.791
    1STR   H238 5505  10.517  45.109  29.772
    1STR   O239 5506  10.651  45.192  29.637
    1STR   C240 5507  10.772  45.171  29.710
    1STR   H241 5508  10.775  45.235  29.798
    1STR   C242 5509  10.782  45.023  29.751
    1STR   H243 5510  10.775  44.957  29.664
    1STR   H244 5511  10.705  44.994  29.822
    1STR   H245 5512  10.878  45.003  29.799
    1STR   C246 5513  10.889  45.211  29.618
    1STR   H247 5514  10.890  45.148  29.529
    1STR   H248 5515  10.873  45.314  29.584
    1STR   O249 5516  11.012  45.200  29.689
    1STR   C250 5517  11.129  45.233  29.614
    1STR   H251 5518  11.123  45.188  29.514
    1STR   C252 5519  11.143  45.385  29.602
    1STR   H253 5520  11.144  45.432  29.701
    1STR   H254 5521  11.062  45.430  29.544
    1STR   H255 5522  11.236  45.412  29.553
    1STR   C256 5523  11.250  45.171  29.686
    1STR   H257 5524  11.260  45.214  29.786
    1STR   H258 5525  11.232  45.064  29.700
    1STR   O259 5526  11.369  45.192  29.610
    1STR   C260 5527  11.489  45.141  29.668
    1STR   H261 5528  11.492  45.164  29.775
    1STR   C262 5529  11.496  44.989  29.648
    1STR   H263 5530  11.488  44.963  29.542
    1STR   H264 5531  11.417  44.936  29.701
    1STR   H265 5532  11.591  44.949  29.684
    1STR   C266 5533  11.608  45.212  29.601
    1STR   H267 5534  11.609  45.190  29.494
    1STR   H268 5535  11.594  45.320  29.612
    1STR   O269 5536  11.731  45.171  29.662
    1STR   C270 5537  11.849  45.230  29.607
    1STR   H271 5538  11.844  45.229  29.498
    1STR   C272 5539  11.864  45.374  29.658
    1STR   H273 5540  11.864  45.377  29.767
    1STR   H274 5541  11.785  45.439  29.622
    1STR   H275 5542  11.958  45.417  29.624
    1STR   C276 5543  11.970  45.143  29.649
    1STR   H277 5544  11.978  45.142  29.758
    1STR   H278 5545  11.951  45.040  29.618
    1STR   O279 5546  12.091  45.192  29.590
    1STR   C280 5547  12.210  45.119  29.622
    1STR   H281 5548  12.212  45.098  29.729
    1STR   C282 5549  12.214  44.988  29.542
    1STR   H283 5550  12.205  45.007  29.435
    1STR   H284 5551  12.134  44.920  29.571
    1STR   H285 5552  12.308  44.936  29.559
    1STR   C286 5553  12.332  45.209  29.589
    1STR   H287 5554  12.333  45.232  29.483
    1STR   H288 5555  12.320  45.303  29.642
    1STR   O289 5556  12.454  45.144  29.628
    1STR   C290 5557  12.574  45.218  29.603
    1STR   H291 5558  12.571  45.261  29.502
    1STR   C292 5559  12.589  45.330  29.707
    1STR   H293 5560  12.585  45.290  29.808
    1STR   H294 5561  12.510  45.405  29.698
    1STR   H295 5562  12.684  45.382  29.695
    1STR   C296 5563  12.694  45.120  29.609
    1STR   H297 5564  12.699  45.075  29.708
    1STR   H298 5565  12.677  45.040  29.538
    1STR   O299 5566  12.818  45.187  29.580
    1STR   C300 5567  12.936  45.104  29.585
    1STR   H301 5568  12.931  45.040  29.673
    1STR   C302 5569  12.943  45.019  29.458
    1STR   H303 5570  12.938  45.081  29.368
    1STR   H304 5571  12.863  44.946  29.452
    1STR   H305 5572  13.037  44.963  29.454
    1STR   C306 5573  13.061  45.194  29.601
    1STR   H307 5574  13.076  45.253  29.510
    1STR   H308 5575  13.041  45.265  29.681
    1STR   O309 5576  13.178  45.116  29.631
    1STR    H1R 5577  13.316  45.256  29.567
    1STR    H1S 5578  13.389  45.318  29.803
    1STR    H1T 5579  13.272  45.204  29.867
    1STR    H1U 5580  13.218  45.347  29.780
    1STR    H1V 5581  13.420  45.027  29.568
    1STR    H1W 5582  13.412  45.023  29.742
    1STR    H1X 5583  13.728  45.263  29.635
    1STR    H1Y 5584  13.906  45.391  29.625
    1STR    H1Z 5585  14.120  45.466  29.713
    1STR    H20 5586  14.262  45.370  30.035
    1STR    H21 5587  14.344  45.345  29.880
    1STR    H22 5588  14.254  45.493  29.910
    1STR    H23 5589  14.078  45.112  30.114
    1STR    H27 5590  13.889  45.081  29.925
    1STR    H28 5591   1.329  45.492  29.863
    1STR    H29 5592   1.096  45.501  29.807
    1STR    H2A 5593   0.853  45.235  29.853
    1STR    H2B 5594   0.896  45.382  29.767
    1STR    H2C 5595   0.835  45.393  29.932
    1STR   BCK1 5596   0.849  44.983  45.229
    1STR    O03 5597   0.814  44.901  45.313
    1STR    N04 5598   0.971  45.042  45.225
    1STR    C05 5599   1.076  45.036  45.319
    1STR    C06 5600   1.212  45.024  45.277
    1STR    C07 5601   1.322  45.022  45.369
    1STR    N08 5602   1.457  45.016  45.325
    1STR    C09 5603   1.568  44.984  45.395
    1STR    O0A 5604   1.567  44.943  45.511
    1STR    O0B 5605   1.684  45.001  45.324
    1STR    C0C 5606   1.811  44.968  45.385
    1STR    C0D 5607   1.832  44.816  45.379
    1STR    C0E 5608   1.932  45.042  45.322
    1STR    O0F 5609   2.053  45.006  45.390
    1STR    C0G 5610   2.175  45.066  45.344
    1STR    C0H 5611   2.184  45.210  45.397
    1STR    C0I 5612   2.296  44.983  45.395
    1STR    O0J 5613   2.419  45.037  45.345
    1STR    C0K 5614  13.291  45.374  45.493
    1STR    C0M 5615  13.295  45.227  45.448
    1STR    C0N 5616  13.410  45.452  45.431
    1STR    O0O 5617  13.531  45.419  45.498
    1STR    C0P 5618  13.636  45.362  45.436
    1STR    O0Q 5619  13.644  45.334  45.317
    1STR    N0R 5620  13.729  45.338  45.528
    1STR    C0S 5621  13.849  45.266  45.527
    1STR    C0T 5622  13.886  45.212  45.651
    1STR    C0U 5623  13.998  45.130  45.662
    1STR    C0V 5624  14.080  45.104  45.551
    1STR    C0W 5625  14.185  44.998  45.577
    1STR    C0X 5626  14.057  45.170  45.426
    1STR    N0Y 5627  14.140  45.173  45.312
    1STR   BCK2 5628  14.266  45.143  45.273
    1STR    O10 5629  14.305  45.187  45.165
    1STR    C13 5630  13.936  45.246  45.416
    1STR    C14 5631   1.291  45.031  45.506
    1STR    C15 5632   1.158  45.047  45.550
    1STR    C16 5633   1.052  45.054  45.458
    1STR    C17 5634   0.915  45.088  45.515
    1STR    H1B 5635   0.987  45.098  45.143
    1STR    H1C 5636   1.233  45.016  45.171
    1STR    H1D 5637   1.477  45.037  45.229
    1STR    H1E 5638   1.808  44.998  45.490
    1STR    H1F 5639   1.837  44.780  45.277
    1STR    H1G 5640   1.924  44.787  45.429
    1STR    H1H 5641   1.751  44.763  45.430
    1STR    H1I 5642   1.916  45.149  45.328
    1STR    H1J 5643   1.940  45.017  45.216
    1STR    H1K 5644   2.178  45.066  45.235
    1STR    H1M 5645   2.178  45.213  45.506
    1STR    H1N 5646   2.105  45.274  45.357
    1STR    H1O 5647   2.279  45.256  45.368
    1STR    H1P 5648   2.297  44.981  45.504
    1STR    H1Q 5649   2.284  44.880  45.362
    1STR   C010 5650   2.540  44.973  45.388
    1STR   H011 5651   2.535  44.955  45.496
    1STR   C012 5652   2.558  44.841  45.313
    1STR   H013 5653   2.559  44.856  45.205
    1STR   H014 5654   2.481  44.768  45.337
    1STR   H015 5655   2.654  44.795  45.340
    1STR   C016 5656   2.658  45.069  45.362
    1STR   H017 5657   2.665  45.091  45.255
    1STR   H018 5658   2.639  45.163  45.412
    1STR   O019 5659   2.781  45.012  45.408
    1STR   C020 5660   2.899  45.090  45.385
    1STR   H021 5661   2.897  45.131  45.284
    1STR   C022 5662   2.907  45.204  45.488
    1STR   H023 5663   2.904  45.165  45.590
    1STR   H024 5664   2.825  45.275  45.477
    1STR   H025 5665   3.000  45.260  45.476
    1STR   C026 5666   3.022  44.998  45.395
    1STR   H027 5667   3.028  44.955  45.496
    1STR   H028 5668   3.011  44.914  45.326
    1STR   O029 5669   3.141  45.071  45.365
    1STR   C030 5670   3.264  44.998  45.376
    1STR   H031 5671   3.263  44.937  45.466
    1STR   C032 5672   3.282  44.909  45.252
    1STR   H033 5673   3.278  44.967  45.160
    1STR   H034 5674   3.206  44.831  45.246
    1STR   H035 5675   3.378  44.858  45.255
    1STR   C036 5676   3.379  45.100  45.388
    1STR   H037 5677   3.383  45.162  45.299
    1STR   H038 5678   3.359  45.166  45.472
    1STR   O039 5679   3.503  45.031  45.407
    1STR   C040 5680   3.619  45.114  45.416
    1STR   H041 5681   3.615  45.191  45.339
    1STR   C042 5682   3.627  45.177  45.555
    1STR   H043 5683   3.627  45.101  45.633
    1STR   H044 5684   3.545  45.246  45.574
    1STR   H045 5685   3.720  45.234  45.566
    1STR   C046 5686   3.742  45.025  45.387
    1STR   H047 5687   3.750  44.947  45.462
    1STR   H048 5688   3.729  44.976  45.290
    1STR   O049 5689   3.860  45.106  45.386
    1STR   C050 5690   3.982  45.035  45.364
    1STR   H051 5691   3.983  44.943  45.423
    1STR   C052 5692   3.998  45.003  45.215
    1STR   H053 5693   3.992  45.093  45.154
    1STR   H054 5694   3.921  44.934  45.179
    1STR   H055 5695   4.094  44.956  45.196
    1STR   C056 5696   4.097  45.125  45.414
    1STR   H057 5697   4.100  45.217  45.357
    1STR   H058 5698   4.078  45.152  45.518
    1STR   O059 5699   4.220  45.054  45.403
    1STR   C060 5700   4.336  45.128  45.443
    1STR   H061 5701   4.331  45.230  45.404
    1STR   C062 5702   4.347  45.130  45.596
    1STR   H063 5703   4.347  45.029  45.637
    1STR   H064 5704   4.265  45.184  45.642
    1STR   H065 5705   4.439  45.179  45.627
    1STR   C066 5706   4.458  45.060  45.379
    1STR   H067 5707   4.468  44.957  45.416
    1STR   H068 5708   4.443  45.053  45.271
    1STR   O069 5709   4.576  45.135  45.408
    1STR   C070 5710   4.697  45.080  45.358
    1STR   H071 5711   4.700  44.972  45.375
    1STR   C072 5712   4.710  45.110  45.208
    1STR   H073 5713   4.704  45.217  45.189
    1STR   H074 5714   4.634  45.060  45.149
    1STR   H075 5715   4.807  45.076  45.170
    1STR   C076 5716   4.813  45.143  45.438
    1STR   H077 5717   4.814  45.251  45.423
    1STR   H078 5718   4.795  45.126  45.545
    1STR   O079 5719   4.936  45.084  45.398
    1STR   C080 5720   5.052  45.136  45.462
    1STR   H081 5721   5.046  45.245  45.468
    1STR   C082 5722   5.065  45.077  45.603
    1STR   H083 5723   5.066  44.968  45.600
    1STR   H084 5724   4.984  45.108  45.669
    1STR   H085 5725   5.158  45.110  45.651
    1STR   C086 5726   5.173  45.100  45.375
    1STR   H087 5727   5.183  44.991  45.368
    1STR   H088 5728   5.156  45.137  45.274
    1STR   O089 5729   5.291  45.158  45.430
    1STR   C090 5730   5.411  45.129  45.360
    1STR   H091 5731   5.414  45.023  45.333
    1STR   C092 5732   5.422  45.217  45.235
    1STR   H093 5733   5.415  45.323  45.260
    1STR   H094 5734   5.344  45.194  45.162
    1STR   H095 5735   5.518  45.201  45.185
    1STR   C096 5736   5.528  45.155  45.457
    1STR   H097 5737   5.529  45.261  45.486
    1STR   H098 5738   5.512  45.098  45.548
    1STR   O099 5739   5.651  45.118  45.395
    1STR   C100 5740   5.767  45.142  45.473
    1STR   H101 5741   5.762  45.239  45.522
    1STR   C102 5742   5.783  45.031  45.579
    1STR   H103 5743   5.784  44.932  45.533
    1STR   H104 5744   5.702  45.033  45.652
    1STR   H105 5745   5.876  45.043  45.634
    1STR   C106 5746   5.887  45.144  45.377
    1STR   H107 5747   5.897  45.047  45.328
    1STR   H108 5748   5.869  45.218  45.299
    1STR   O109 5749   6.006  45.177  45.449
    1STR   C110 5750   6.125  45.179  45.372
    1STR   H111 5751   6.128  45.093  45.304
    1STR   C112 5752   6.134  45.309  45.292
    1STR   H113 5753   6.127  45.396  45.357
    1STR   H114 5754   6.055  45.317  45.217
    1STR   H115 5755   6.229  45.316  45.238
    1STR   C116 5756   6.243  45.165  45.469
    1STR   H117 5757   6.245  45.250  45.538
    1STR   H118 5758   6.229  45.075  45.530
    1STR   O119 5759   6.365  45.157  45.396
    1STR   C120 5760   6.483  45.148  45.475
    1STR   H121 5761   6.478  45.218  45.559
    1STR   C122 5762   6.500  45.004  45.527
    1STR   H123 5763   6.501  44.932  45.445
    1STR   H124 5764   6.421  44.976  45.596
    1STR   H125 5765   6.595  44.994  45.581
    1STR   C126 5766   6.601  45.190  45.386
    1STR   H127 5767   6.611  45.121  45.302
    1STR   H128 5768   6.581  45.288  45.344
    1STR   O129 5769   6.721  45.192  45.464
    1STR   C130 5770   6.839  45.225  45.392
    1STR   H131 5771   6.840  45.174  45.295
    1STR   C132 5772   6.846  45.377  45.370
    1STR   H133 5773   6.839  45.431  45.465
    1STR   H134 5774   6.765  45.414  45.306
    1STR   H135 5775   6.940  45.405  45.323
    1STR   C136 5776   6.958  45.175  45.474
    1STR   H137 5777   6.961  45.226  45.571
    1STR   H138 5778   6.945  45.069  45.494
    1STR   O139 5779   7.079  45.198  45.402
    1STR   C140 5780   7.198  45.159  45.469
    1STR   H141 5781   7.194  45.190  45.574
    1STR   C142 5782   7.217  45.007  45.459
    1STR   H143 5783   7.216  44.974  45.355
    1STR   H144 5784   7.139  44.952  45.512
    1STR   H145 5785   7.312  44.977  45.503
    1STR   C146 5786   7.315  45.234  45.402
    1STR   H147 5787   7.323  45.204  45.298
    1STR   H148 5788   7.294  45.341  45.404
    1STR   O149 5789   7.436  45.206  45.473
    1STR   C150 5790   7.553  45.266  45.418
    1STR   H151 5791   7.553  45.257  45.310
    1STR   C152 5792   7.559  45.414  45.459
    1STR   H153 5793   7.554  45.425  45.568
    1STR   H154 5794   7.478  45.473  45.416
    1STR   H155 5795   7.652  45.460  45.426
    1STR   C156 5796   7.674  45.188  45.472
    1STR   H157 5797   7.678  45.196  45.581
    1STR   H158 5798   7.661  45.082  45.448
    1STR   O159 5799   7.793  45.239  45.413
    1STR   C160 5800   7.913  45.177  45.458
    1STR   H161 5801   7.911  45.164  45.566
    1STR   C162 5802   7.932  45.042  45.388
    1STR   H163 5803   7.930  45.053  45.279
    1STR   H164 5804   7.855  44.970  45.416
    1STR   H165 5805   8.028  44.997  45.415
    1STR   C166 5806   8.029  45.273  45.425
    1STR   H167 5807   8.035  45.288  45.317
    1STR   H168 5808   8.007  45.371  45.469
    1STR   O169 5809   8.151  45.221  45.476
    1STR   C170 5810   8.267  45.299  45.449
    1STR   H171 5811   8.265  45.334  45.346
    1STR   C172 5812   8.273  45.418  45.546
    1STR   H173 5813   8.270  45.385  45.649
    1STR   H174 5814   8.191  45.488  45.530
    1STR   H175 5815   8.366  45.474  45.531
    1STR   C176 5816   8.388  45.206  45.466
    1STR   H177 5817   8.394  45.170  45.568
    1STR   H178 5818   8.376  45.119  45.402
    1STR   O179 5819   8.507  45.277  45.430
    1STR   C180 5820   8.628  45.204  45.445
    1STR   H181 5821   8.627  45.148  45.539
    1STR   C182 5822   8.646  45.108  45.326
    1STR   H183 5823   8.642  45.161  45.231
    1STR   H184 5824   8.569  45.030  45.324
    1STR   H185 5825   8.742  45.057  45.332
    1STR   C186 5826   8.743  45.306  45.451
    1STR   H187 5827   8.747  45.363  45.358
    1STR   H188 5828   8.722  45.378  45.531
    1STR   O189 5829   8.866  45.238  45.476
    1STR   C190 5830   8.981  45.322  45.480
    1STR   H191 5831   8.977  45.396  45.399
    1STR   C192 5832   8.989  45.393  45.616
    1STR   H193 5833   8.988  45.321  45.698
    1STR   H194 5834   8.906  45.463  45.631
    1STR   H195 5835   9.081  45.451  45.624
    1STR   C196 5836   9.103  45.232  45.456
    1STR   H197 5837   9.111  45.158  45.536
    1STR   H198 5838   9.090  45.177  45.363
    1STR   O199 5839   9.221  45.312  45.450
    1STR   C200 5840   9.342  45.241  45.433
    1STR   H201 5841   9.344  45.152  45.496
    1STR   C202 5842   9.358  45.200  45.285
    1STR   H203 5843   9.353  45.287  45.220
    1STR   H204 5844   9.282  45.129  45.253
    1STR   H205 5845   9.455  45.153  45.268
    1STR   C206 5846   9.457  45.333  45.478
    1STR   H207 5847   9.460  45.422  45.416
    1STR   H208 5848   9.437  45.366  45.580
    1STR   O209 5849   9.580  45.262  45.471
    1STR   C210 5850   9.696  45.337  45.507
    1STR   H211 5851   9.691  45.437  45.463
    1STR   C212 5852   9.706  45.348  45.660
    1STR   H213 5853   9.706  45.249  45.706
    1STR   H214 5854   9.623  45.405  45.703
    1STR   H215 5855   9.798  45.398  45.689
    1STR   C216 5856   9.818  45.265  45.448
    1STR   H217 5857   9.827  45.166  45.491
    1STR   H218 5858   9.803  45.253  45.341
    1STR   O219 5859   9.935  45.342  45.473
    1STR   C220 5860  10.057  45.284  45.426
    1STR   H221 5861  10.059  45.178  45.449
    1STR   C222 5862  10.070  45.307  45.275
    1STR   H223 5863  10.063  45.412  45.249
    1STR   H224 5864   9.993  45.254  45.218
    1STR   H225 5865  10.166  45.270  45.239
    1STR   C226 5866  10.172  45.351  45.503
    1STR   H227 5867  10.174  45.458  45.481
    1STR   H228 5868  10.154  45.341  45.610
    1STR   O229 5869  10.295  45.290  45.466
    1STR   C230 5870  10.411  45.346  45.528
    1STR   H231 5871  10.405  45.455  45.527
    1STR   C232 5872  10.424  45.294  45.672
    1STR   H233 5873  10.425  45.185  45.675
    1STR   H234 5874  10.342  45.329  45.735
    1STR   H235 5875  10.516  45.329  45.718
    1STR   C236 5876  10.533  45.305  45.443
    1STR   H237 5877  10.543  45.196  45.442
    1STR   H238 5878  10.516  45.336  45.340
    1STR   O239 5879  10.650  45.366  45.495
    1STR   C240 5880  10.771  45.333  45.427
    1STR   H241 5881  10.774  45.226  45.405
    1STR   C242 5882  10.782  45.414  45.297
    1STR   H243 5883  10.774  45.521  45.316
    1STR   H244 5884  10.704  45.387  45.225
    1STR   H245 5885  10.877  45.396  45.248
    1STR   C246 5886  10.888  45.365  45.522
    1STR   H247 5887  10.889  45.472  45.546
    1STR   H248 5888  10.872  45.312  45.616
    1STR   O249 5889  11.011  45.325  45.463
    1STR   C250 5890  11.128  45.352  45.540
    1STR   H251 5891  11.122  45.452  45.583
    1STR   C252 5892  11.142  45.247  45.651
    1STR   H253 5893  11.143  45.146  45.611
    1STR   H254 5894  11.061  45.253  45.724
    1STR   H255 5895  11.235  45.262  45.706
    1STR   C256 5896  11.248  45.349  45.444
    1STR   H257 5897  11.258  45.249  45.400
    1STR   H258 5898  11.230  45.418  45.362
    1STR   O259 5899  11.367  45.385  45.515
    1STR   C260 5900  11.487  45.383  45.437
    1STR   H261 5901  11.489  45.293  45.375
    1STR   C262 5902  11.494  45.509  45.350
    1STR   H263 5903  11.487  45.599  45.411
    1STR   H264 5904  11.416  45.512  45.275
    1STR   H265 5905  11.589  45.513  45.297
    1STR   C266 5906  11.605  45.375  45.535
    1STR   H267 5907  11.606  45.464  45.599
    1STR   H268 5908  11.591  45.289  45.601
    1STR   O269 5909  11.728  45.364  45.463
    1STR   C270 5910  11.846  45.358  45.543
    1STR   H271 5911  11.841  45.433  45.623
    1STR   C272 5912  11.862  45.218  45.603
    1STR   H273 5913  11.862  45.142  45.525
    1STR   H274 5914  11.782  45.194  45.673
    1STR   H275 5915  11.956  45.209  45.657
    1STR   C276 5916  11.966  45.394  45.453
    1STR   H277 5917  11.975  45.322  45.372
    1STR   H278 5918  11.946  45.491  45.406
    1STR   O279 5919  12.086  45.399  45.530
    1STR   C280 5920  12.205  45.430  45.457
    1STR   H281 5921  12.207  45.373  45.364
    1STR   C282 5922  12.210  45.580  45.427
    1STR   H283 5923  12.202  45.639  45.519
    1STR   H284 5924  12.131  45.612  45.360
    1STR   H285 5925  12.305  45.607  45.379
    1STR   C286 5926  12.326  45.385  45.542
    1STR   H287 5927  12.328  45.440  45.636
    1STR   H288 5928  12.314  45.280  45.567
    1STR   O289 5929  12.448  45.406  45.470
    1STR   C290 5930  12.568  45.369  45.538
    1STR   H291 5931  12.564  45.406  45.641
    1STR   C292 5932  12.584  45.217  45.537
    1STR   H293 5933  12.581  45.178  45.435
    1STR   H294 5934  12.506  45.166  45.594
    1STR   H295 5935  12.679  45.188  45.581
    1STR   C296 5936  12.686  45.439  45.467
    1STR   H297 5937  12.691  45.405  45.363
    1STR   H298 5938  12.667  45.546  45.464
    1STR   O299 5939  12.809  45.411  45.534
    1STR   C300 5940  12.926  45.470  45.475
    1STR   H301 5941  12.922  45.458  45.367
    1STR   C302 5942  12.933  45.619  45.512
    1STR   H303 5943  12.929  45.633  45.620
    1STR   H304 5944  12.852  45.676  45.467
    1STR   H305 5945  13.026  45.663  45.476
    1STR   C306 5946  13.051  45.394  45.525
    1STR   H307 5947  13.064  45.410  45.632
    1STR   H308 5948  13.034  45.287  45.511
    1STR   O309 5949  13.168  45.435  45.453
    1STR    H1R 5950  13.300  45.380  45.602
    1STR    H1S 5951  13.392  45.182  45.470
    1STR    H1T 5952  13.279  45.218  45.341
    1STR    H1U 5953  13.220  45.166  45.498
    1STR    H1V 5954  13.394  45.559  45.445
    1STR    H1W 5955  13.416  45.436  45.323
    1STR    H1X 5956  13.698  45.372  45.617
    1STR    H1Y 5957  13.825  45.228  45.739
    1STR    H1Z 5958  14.020  45.085  45.757
    1STR    H20 5959  14.191  44.930  45.493
    1STR    H21 5960  14.281  45.045  45.600
    1STR    H22 5961  14.160  44.937  45.663
    1STR    H23 5962  14.098  45.220  45.234
    1STR    H27 5963  13.908  45.292  45.322
    1STR    H28 5964   1.367  45.031  45.582
    1STR    H29 5965   1.140  45.057  45.655
    1STR    H2A 5966   0.858  45.151  45.446
    1STR    H2B 5967   0.924  45.143  45.608
    1STR    H2C 5968   0.858  44.997  45.535
    1STR   BCK1 5969  15.906  60.064  60.146
    1STR    O03 5970  15.856  60.142  60.066
    1STR    N04 5971  16.034  60.024  60.144
    1STR    C05 5972  16.126  60.028  60.037
    1STR    C06 5973  16.263  60.064  60.057
    1STR    C07 5974  16.360  60.056  59.952
    1STR    N08 5975  16.497  60.085  59.974
    1STR    C09 5976  16.605  60.052  59.900
    1STR    O0A 5977  16.600  59.984  59.798
    1STR    O0B 5978  16.722  60.101  59.950
    1STR    C0C 5979  16.845  60.085  59.875
    1STR    C0D 5980  16.857   0.039  59.772
    1STR    C0E 5981  16.971  60.079  59.966
    1STR    O0F 5982  17.090  60.061  59.887
    1STR    C0G 5983  17.213  60.047  59.959
    1STR    C0H 5984  17.223  59.905  60.016
    1STR    C0I 5985  17.333  60.075  59.865
    1STR    O0J 5986  17.456  60.069  59.938
    1STR    C0K 5987  28.331  59.718  60.054
    1STR    C0M 5988  28.333  59.859  59.992
    1STR    C0N 5989  28.450  59.702  60.152
    1STR    O0O 5990  28.573  59.703  60.079
    1STR    C0P 5991  28.681  59.772  60.121
    1STR    O0Q 5992  28.688  59.838   0.064
    1STR    N0R 5993  28.777  59.759  60.030
    1STR    C0S 5994  28.905  59.815  60.017
    1STR    C0T 5995  28.958  59.812  59.887
    1STR    C0U 5996  29.085  59.865  59.861
    1STR    C0V 5997  29.164  59.920  59.964
    1STR    C0W 5998  29.301  59.972  59.923
    1STR    C0X 5999  29.116  59.919  60.098
    1STR    N0Y 6000  29.198  59.945   0.049
    1STR   BCK2 6001  29.303  60.026   0.071
    1STR    O10 6002  29.334  60.124   0.004
    1STR    C13 6003  28.984  59.869  60.122
    1STR    C14 6004  16.313  60.017  59.824
    1STR    C15 6005  16.180  59.979  59.803
    1STR    C16 6006  16.087  59.980  59.908
    1STR    C17 6007  15.949  59.923  59.880
    1STR    H1B 6008  16.064  59.976   0.067
    1STR    H1C 6009  16.294  60.096  60.155
    1STR    H1D 6010  16.521  60.137  60.056
    1STR    H1E 6011  16.842  59.990  59.821
    1STR    H1F 6012  16.862   0.136  59.820
    1STR    H1G 6013  16.946   0.027  59.711
    1STR    H1H 6014  16.771   0.040  59.704
    1STR    H1I 6015  16.959  59.997  60.036
    1STR    H1J 6016  16.979   0.011  60.024
    1STR    H1K 6017  17.217  60.120  60.039
    1STR    H1M 6018  17.216  59.830  59.937
    1STR    H1N 6019  17.145  59.884  60.089
    1STR    H1O 6020  17.319  59.890  60.067
    1STR    H1P 6021  17.334  60.003  59.783
    1STR    H1Q 6022  17.321   0.014  59.820
    1STR   C010 6023  17.577  60.087  59.862
    1STR   H011 6024  17.573  60.028  59.770
    1STR   C012 6025  17.596   0.076  59.828
    1STR   H013 6026  17.596   0.137  59.918
    1STR   H014 6027  17.518   0.113  59.762
    1STR   H015 6028  17.691   0.092  59.778
    1STR   C016 6029  17.696  60.035  59.946
    1STR   H017 6030  17.702  60.090  60.040
    1STR   H018 6031  17.677  59.931  59.973
    1STR   O019 6032  17.819  60.046  59.874
    1STR   C020 6033  17.937  60.004  59.944
    1STR   H021 6034  17.934  60.042  60.046
    1STR   C022 6035  17.945  59.850  59.945
    1STR   H023 6036  17.943  59.810  59.844
    1STR   H024 6037  17.863  59.805  60.001
    1STR   H025 6038  18.037  59.817  59.992
    1STR   C026 6039  18.061  60.065  59.874
    1STR   H027 6040  18.067  60.029  59.771
    1STR   H028 6041  18.049   0.013  59.870
    1STR   O029 6042  18.179  60.030  59.946
    1STR   C030 6043  18.302  60.077  59.889
    1STR   H031 6044  18.302  60.061  59.781
    1STR   C032 6045  18.320   0.066  59.920
    1STR   H033 6046  18.317   0.085  60.027
    1STR   H034 6047  18.244   0.128  59.872
    1STR   H035 6048  18.417   0.102  59.884
    1STR   C036 6049  18.418  59.994  59.948
    1STR   H037 6050  18.422  60.008  60.057
    1STR   H038 6051  18.398  59.888  59.931
    1STR   O039 6052  18.542  60.032  59.888
    1STR   C040 6053  18.658  59.965  59.938
    1STR   H041 6054  18.654  59.959  60.047
    1STR   C042 6055  18.666  59.824  59.878
    1STR   H043 6056  18.666  59.828  59.769
    1STR   H044 6057  18.584  59.760  59.910
    1STR   H045 6058  18.759  59.775  59.908
    1STR   C046 6059  18.781  60.050  59.900
    1STR   H047 6060  18.789  60.057  59.791
    1STR   H048 6061  18.768  60.151  59.938
    1STR   O049 6062  18.899  59.991  59.955
    1STR   C050 6063  19.021  60.057  59.923
    1STR   H051 6064  19.022  60.085  59.817
    1STR   C052 6065  19.037   0.022  60.011
    1STR   H053 6066  19.031  60.157  60.117
    1STR   H054 6067  18.961   0.097  59.990
    1STR   H055 6068  19.134   0.069  59.994
    1STR   C056 6069  19.136  59.958  59.946
    1STR   H057 6070  19.139  59.928  60.051
    1STR   H058 6071  19.117  59.867  59.888
    1STR   O059 6072  19.260  60.017  59.907
    1STR   C060 6073  19.375  59.936  59.927
    1STR   H061 6074  19.370  59.887  60.025
    1STR   C062 6075  19.386  59.831  59.816
    1STR   H063 6076  19.387  59.878  59.717
    1STR   H064 6077  19.304  59.760  59.818
    1STR   H065 6078  19.478  59.774  59.825
    1STR   C066 6079  19.498  60.030  59.928
    1STR   H067 6080  19.507  60.080  59.832
    1STR   H068 6081  19.483  60.107  60.003
    1STR   O069 6082  19.615  59.954  59.957
    1STR   C070 6083  19.737  60.029  59.957
    1STR   H071 6084  19.739  60.097  59.872
    1STR   C072 6085  19.750  60.108  60.088
    1STR   H073 6086  19.743  60.042   0.015
    1STR   H074 6087  19.673   0.024  60.098
    1STR   H075 6088  19.847  60.159  60.093
    1STR   C076 6089  19.852  59.928  59.941
    1STR   H077 6090  19.854  59.859  60.025
    1STR   H078 6091  19.835  59.869  59.851
    1STR   O079 6092  19.976  59.999  59.930
    1STR   C080 6093  20.092  59.917  59.918
    1STR   H081 6094  20.086  59.833  59.988
    1STR   C082 6095  20.105  59.865  59.774
    1STR   H083 6096  20.106  59.948  59.703
    1STR   H084 6097  20.023  59.798  59.747
    1STR   H085 6098  20.198  59.809  59.762
    1STR   C086 6099  20.213  60.003  59.958
    1STR   H087 6100  20.223  60.087  59.890
    1STR   H088 6101  20.196  60.044  60.058
    1STR   O089 6102  20.331  59.922  59.957
    1STR   C090 6103  20.451  59.991  59.989
    1STR   H091 6104  20.454  60.088  59.938
    1STR   C092 6105  20.462  60.011  60.141
    1STR   H093 6106  20.455  59.916   0.034
    1STR   H094 6107  20.384  60.077   0.019
    1STR   H095 6108  20.558  60.056   0.007
    1STR   C096 6109  20.568  59.906  59.935
    1STR   H097 6110  20.569  59.809  59.985
    1STR   H098 6111  20.552  59.887  59.829
    1STR   O099 6112  20.691  59.975  59.956
    1STR   C100 6113  20.807  59.905  59.914
    1STR   H101 6114  20.802  59.801  59.944
    1STR   C102 6115  20.823  59.916  59.761
    1STR   H103 6116  20.824  60.020  59.729
    1STR   H104 6117  20.742  59.865  59.708
    1STR   H105 6118  20.916  59.870  59.729
    1STR   C106 6119  20.927  59.969  59.987
    1STR   H107 6120  20.937  60.073  59.958
    1STR   H108 6121  20.908  59.967  60.094
    1STR   O109 6122  21.046  59.896  59.956
    1STR   C110 6123  21.165  59.947  60.014
    1STR   H111 6124  21.168  60.056  60.006
    1STR   C112 6125  21.174  59.905   0.001
    1STR   H113 6126  21.167  59.796   0.012
    1STR   H114 6127  21.095  59.949   0.062
    1STR   H115 6128  21.269  59.936   0.045
    1STR   C116 6129  21.283  59.891  59.933
    1STR   H117 6130  21.285  59.782  59.940
    1STR   H118 6131  21.269  59.916  59.828
    1STR   O119 6132  21.405  59.947  59.981
    1STR   C120 6133  21.523  59.900  59.917
    1STR   H121 6134  21.518  59.791  59.903
    1STR   C122 6135  21.540  59.970  59.781
    1STR   H123 6136  21.541  60.078  59.793
    1STR   H124 6137  21.461  59.945  59.711
    1STR   H125 6138  21.635  59.941  59.735
    1STR   C126 6139  21.641  59.929  60.011
    1STR   H127 6140  21.651  60.037  60.026
    1STR   H128 6141  21.621  59.884  60.108
    1STR   O129 6142  21.761  59.875  59.955
    1STR   C130 6143  21.879  59.899  60.031
    1STR   H131 6144  21.880  60.002  60.067
    1STR   C132 6145  21.886  59.801  60.149
    1STR   H133 6146  21.880  59.698  60.115
    1STR   H134 6147  21.805  59.818   0.061
    1STR   H135 6148  21.980  59.813   0.043
    1STR   C136 6149  21.998  59.880  59.936
    1STR   H137 6150  22.001  59.778  59.899
    1STR   H138 6151  21.985  59.945  59.849
    1STR   O139 6152  22.119  59.913  60.005
    1STR   C140 6153  22.238  59.896  59.929
    1STR   H141 6154  22.234  59.802  59.873
    1STR   C142 6155  22.257  60.014  59.833
    1STR   H143 6156  22.256  60.109  59.887
    1STR   H144 6157  22.179  60.019  59.757
    1STR   H145 6158  22.352  60.007  59.781
    1STR   C146 6159  22.355  59.885  60.029
    1STR   H147 6160  22.363  59.978  60.086
    1STR   H148 6161  22.334  59.805  60.100
    1STR   O149 6162  22.476  59.859  59.958
    1STR   C150 6163  22.593  59.851  60.039
    1STR   H151 6164  22.593  59.931  60.113
    1STR   C152 6165  22.599  59.714  60.109
    1STR   H153 6166  22.594  59.633  60.036
    1STR   H154 6167  22.518  59.700   0.020
    1STR   H155 6168  22.692  59.703   0.004
    1STR   C156 6169  22.713  59.872  59.946
    1STR   H157 6170  22.718  59.793  59.872
    1STR   H158 6171  22.701  59.966  59.893
    1STR   O159 6172  22.833  59.874  60.024
    1STR   C160 6173  22.953  59.890  59.950
    1STR   H161 6174  22.951  59.826  59.861
    1STR   C162 6175  22.972  60.037  59.910
    1STR   H163 6176  22.970  60.102  59.997
    1STR   H164 6177  22.895  60.071  59.841
    1STR   H165 6178  23.068  60.051  59.860
    1STR   C166 6179  23.069  59.841  60.039
    1STR   H167 6180  23.075  59.903  60.128
    1STR   H168 6181  23.047  59.739  60.072
    1STR   O169 6182  23.191  59.845  59.965
    1STR   C170 6183  23.307  59.806  60.038
    1STR   H171 6184  23.305  59.850  60.138
    1STR   C172 6185  23.313  59.653  60.048
    1STR   H173 6186  23.310  59.607  59.949
    1STR   H174 6187  23.231  59.611  60.106
    1STR   H175 6188  23.406  59.621  60.096
    1STR   C176 6189  23.429  59.863  59.964
    1STR   H177 6190  23.434  59.820  59.864
    1STR   H178 6191  23.416  59.970  59.952
    1STR   O179 6192  23.547  59.834  60.038
    1STR   C180 6193  23.668  59.879  59.978
    1STR   H181 6194  23.667  59.856  59.871
    1STR   C182 6195  23.686  60.030  60.000
    1STR   H183 6196  23.682  60.054  60.106
    1STR   H184 6197  23.609  60.088  59.949
    1STR   H185 6198  23.782  60.063  59.962
    1STR   C186 6199  23.783  59.799  60.042
    1STR   H187 6200  23.787  59.820  60.149
    1STR   H188 6201  23.762  59.692  60.031
    1STR   O189 6202  23.905  59.832  59.978
    1STR   C190 6203  24.021  59.768  60.031
    1STR   H191 6204  24.017  59.768  60.140
    1STR   C192 6205  24.029  59.624  59.979
    1STR   H193 6206  24.028  59.621  59.870
    1STR   H194 6207  23.946  59.562  60.014
    1STR   H195 6208  24.121  59.576  60.012
    1STR   C196 6209  24.143  59.850  59.988
    1STR   H197 6210  24.151  59.851  59.879
    1STR   H198 6211  24.130  59.954  60.020
    1STR   O199 6212  24.261  59.795  60.046
    1STR   C200 6213  24.382  59.860  60.011
    1STR   H201 6214  24.383  59.883  59.904
    1STR   C202 6215  24.398  59.989  60.092
    1STR   H203 6216  24.393  59.969   0.039
    1STR   H204 6217  24.322  60.063  60.068
    1STR   H205 6218  24.495  60.036  60.073
    1STR   C206 6219  24.497  59.761  60.040
    1STR   H207 6220  24.500  59.738  60.146
    1STR   H208 6221  24.477  59.668  59.987
    1STR   O209 6222  24.620  59.818  59.997
    1STR   C210 6223  24.736  59.738  60.021
    1STR   H211 6224  24.731  59.695  60.121
    1STR   C212 6225  24.746  59.627  59.915
    1STR   H213 6226  24.746  59.669  59.815
    1STR   H214 6227  24.663  59.556  59.922
    1STR   H215 6228  24.838  59.570  59.928
    1STR   C216 6229  24.858  59.832  60.016
    1STR   H217 6230  24.867  59.876  59.917
    1STR   H218 6231  24.843  59.913  60.087
    1STR   O219 6232  24.975  59.758  60.050
    1STR   C220 6233  25.097  59.832  60.045
    1STR   H221 6234  25.099  59.896  59.956
    1STR   C222 6235  25.110  59.918   0.012
    1STR   H223 6236  25.103  59.857   0.102
    1STR   H224 6237  25.033  59.995   0.018
    1STR   H225 6238  25.206  59.969   0.014
    1STR   C226 6239  25.212  59.731  60.034
    1STR   H227 6240  25.214  59.666  60.122
    1STR   H228 6241  25.194  59.667  59.948
    1STR   O229 6242  25.335  59.801  60.020
    1STR   C230 6243  25.451  59.718  60.012
    1STR   H231 6244  25.445  59.638  60.086
    1STR   C232 6245  25.464  59.658  59.871
    1STR   H233 6246  25.465  59.737  59.795
    1STR   H234 6247  25.382  59.590  59.847
    1STR   H235 6248  25.556  59.602  59.861
    1STR   C236 6249  25.573  59.805  60.047
    1STR   H237 6250  25.583  59.886  59.974
    1STR   H238 6251  25.556  59.852  60.144
    1STR   O239 6252  25.690  59.725  60.049
    1STR   C240 6253  25.811  59.795  60.077
    1STR   H241 6254  25.814  59.889  60.021
    1STR   C242 6255  25.822  59.823   0.068
    1STR   H243 6256  25.814  59.731   0.126
    1STR   H244 6257  25.744  59.891   0.103
    1STR   H245 6258  25.918  59.870   0.092
    1STR   C246 6259  25.928  59.708  60.028
    1STR   H247 6260  25.929  59.613  60.083
    1STR   H248 6261  25.912  59.683  59.923
    1STR   O249 6262  26.051  59.778  60.045
    1STR   C250 6263  26.168  59.706  60.007
    1STR   H251 6264  26.162  59.603  60.043
    1STR   C252 6265  26.182  59.708  59.854
    1STR   H253 6266  26.183  59.810  59.816
    1STR   H254 6267  26.102  59.654  59.804
    1STR   H255 6268  26.275  59.660  59.823
    1STR   C256 6269  26.288  59.773  60.075
    1STR   H257 6270  26.298  59.876  60.041
    1STR   H258 6271  26.270  59.776   0.023
    1STR   O259 6272  26.407  59.698  60.048
    1STR   C260 6273  26.527  59.752  60.103
    1STR   H261 6274  26.529  59.860  60.089
    1STR   C262 6275  26.534  59.718   0.093
    1STR   H263 6276  26.527  59.610   0.109
    1STR   H264 6277  26.456  59.766   0.150
    1STR   H265 6278  26.629  59.751   0.135
    1STR   C266 6279  26.645  59.691  60.026
    1STR   H267 6280  26.646  59.583  60.039
    1STR   H268 6281  26.631  59.711  59.920
    1STR   O269 6282  26.768  59.749  60.072
    1STR   C270 6283  26.886  59.699  60.009
    1STR   H271 6284  26.881  59.590  60.001
    1STR   C272 6285  26.902  59.762  59.870
    1STR   H273 6286  26.902  59.871  59.876
    1STR   H274 6287  26.822  59.732  59.802
    1STR   H275 6288  26.996  59.731  59.824
    1STR   C276 6289  27.006  59.733  60.100
    1STR   H277 6290  27.015  59.841  60.110
    1STR   H278 6291  26.986  59.693   0.040
    1STR   O279 6292  27.126  59.677  60.046
    1STR   C280 6293  27.245  59.704  60.121
    1STR   H281 6294  27.247  59.809  60.152
    1STR   C282 6295  27.250  59.613   0.084
    1STR   H283 6296  27.242  59.508   0.056
    1STR   H284 6297  27.170  59.634   0.155
    1STR   H285 6298  27.344  59.625   0.138
    1STR   C286 6299  27.366  59.680  60.028
    1STR   H287 6300  27.367  59.575  59.996
    1STR   H288 6301  27.354  59.741  59.939
    1STR   O289 6302  27.487  59.713  60.095
    1STR   C290 6303  27.607  59.693  60.020
    1STR   H291 6304  27.604  59.597  59.969
    1STR   C292 6305  27.623  59.807  59.918
    1STR   H293 6306  27.621  59.904  59.966
    1STR   H294 6307  27.545  59.805  59.842
    1STR   H295 6308  27.719  59.798  59.865
    1STR   C296 6309  27.726  59.690  60.119
    1STR   H297 6310  27.732  59.785   0.012
    1STR   H298 6311  27.707  59.612   0.033
    1STR   O299 6312  27.849  59.663  60.050
    1STR   C300 6313  27.966  59.660  60.133
    1STR   H301 6314  27.962  59.743   0.044
    1STR   C302 6315  27.972  59.526   0.048
    1STR   H303 6316  27.967  59.442  60.139
    1STR   H304 6317  27.891  59.515   0.120
    1STR   H305 6318  28.066  59.518   0.104
    1STR   C306 6319  28.090  59.681  60.044
    1STR   H307 6320  28.102  59.597  59.976
    1STR   H308 6321  28.074  59.769  59.983
    1STR   O309 6322  28.208  59.697  60.125
    1STR    H1R 6323  28.340  59.643  59.976
    1STR    H1S 6324  28.429  59.880  59.945
    1STR    H1T 6325  28.317  59.935  60.069
    1STR    H1U 6326  28.257  59.873  59.915
    1STR    H1V 6327  28.443  59.606   0.043
    1STR    H1W 6328  28.447  59.779   0.069
    1STR    H1X 6329  28.746  59.699  59.956
    1STR    H1Y 6330  28.903  59.768  59.805
    1STR    H1Z 6331  29.122  59.862  59.759
    1STR    H20 6332  29.299  60.081  59.924
    1STR    H21 6333  29.379  59.936  59.989
    1STR    H22 6334  29.328  59.943  59.821
    1STR    H23 6335  29.177  59.889   0.130
    1STR    H27 6336  28.944  59.869   0.062
    1STR    H28 6337  16.379  60.013  59.738
    1STR    H29 6338  16.151  59.946  59.705
    1STR    H2A 6339  15.911  59.868  59.966
    1STR    H2B 6340  15.952  59.853  59.797
    1STR    H2C 6341  15.880  60.002  59.855
    1STR   BCK1 6342  15.900   0.001  15.152
    1STR    O03 6343  15.851   0.070  15.241
    1STR    N04 6344  16.024   0.019  15.100
    1STR    C05 6345  16.118   0.122  15.123
    1STR    C06 6346  16.258   0.093  15.134
    1STR    C07 6347  16.357   0.195  15.152
    1STR    N08 6348  16.496   0.164  15.156
    1STR    C09 6349  16.601   0.241  15.192
    1STR    O0A 6350  16.591   0.355  15.237
    1STR    O0B 6351  16.722   0.179  15.173
    1STR    C0C 6352  16.845   0.247  15.211
    1STR    C0D 6353  16.864   0.234  15.363
    1STR    C0E 6354  16.969   0.193  15.135
    1STR    O0F 6355  17.089   0.260  15.178
    1STR    C0G 6356  17.212   0.221  15.114
    1STR    C0H 6357  17.221   0.285  14.975
    1STR    C0I 6358  17.333   0.263  15.201
    1STR    O0J 6359  17.456   0.218  15.142
    1STR    C0K 6360  28.339   0.386  14.841
    1STR    C0M 6361  28.329   0.328  14.983
    1STR    C0N 6362  28.464   0.328  14.770
    1STR    O0O 6363  28.583   0.377  14.832
    1STR    C0P 6364  28.685   0.297  14.872
    1STR    O0Q 6365  28.688   0.175  14.865
    1STR    N0R 6366  28.782   0.374  14.921
    1STR    C0S 6367  28.909   0.353  14.977
    1STR    C0T 6368  28.977   0.469  15.016
    1STR    C0U 6369  29.105   0.462  15.073
    1STR    C0V 6370  29.170   0.339  15.091
    1STR    C0W 6371  29.310   0.346  15.148
    1STR    C0X 6372  29.106   0.218  15.052
    1STR    N0Y 6373  29.167   0.090  15.049
    1STR   BCK2 6374  29.271   0.017  15.094
    1STR    O10 6375  29.289  60.070  15.038
    1STR    C13 6376  28.975   0.228  14.996
    1STR    C14 6377  16.311   0.328  15.159
    1STR    C15 6378  16.175   0.359  15.146
    1STR    C16 6379  16.079   0.259  15.124
    1STR    C17 6380  15.938   0.306  15.095
    1STR    H1B 6381  16.052  60.105  15.038
    1STR    H1C 6382  16.289  60.150  15.129
    1STR    H1D 6383  16.525   0.072  15.130
    1STR    H1E 6384  16.835   0.353  15.186
    1STR    H1F 6385  16.874   0.130  15.394
    1STR    H1G 6386  16.954   0.287  15.395
    1STR    H1H 6387  16.781   0.278  15.418
    1STR    H1I 6388  16.954   0.207  15.028
    1STR    H1J 6389  16.979   0.086  15.152
    1STR    H1K 6390  17.214   0.112  15.105
    1STR    H1M 6391  17.215   0.394  14.982
    1STR    H1N 6392  17.142   0.252  14.908
    1STR    H1O 6393  17.316   0.260  14.927
    1STR    H1P 6394  17.334   0.372  15.212
    1STR    H1Q 6395  17.321   0.222  15.301
    1STR   C010 6396  17.577   0.255  15.210
    1STR   H011 6397  17.573   0.360  15.238
    1STR   C012 6398  17.595   0.168  15.335
    1STR   H013 6399  17.595   0.062  15.310
    1STR   H014 6400  17.518   0.186  15.410
    1STR   H015 6401  17.691   0.190  15.383
    1STR   C016 6402  17.696   0.237  15.113
    1STR   H017 6403  17.702   0.132  15.081
    1STR   H018 6404  17.677   0.296  15.023
    1STR   O019 6405  17.819   0.277  15.174
    1STR   C020 6406  17.936   0.261  15.094
    1STR   H021 6407  17.934   0.164  15.044
    1STR   C022 6408  17.944   0.373  14.989
    1STR   H023 6409  17.942   0.471  15.036
    1STR   H024 6410  17.863   0.368  14.917
    1STR   H025 6411  18.037   0.366  14.932
    1STR   C026 6412  18.060   0.263  15.186
    1STR   H027 6413  18.066   0.359  15.238
    1STR   H028 6414  18.049   0.186  15.263
    1STR   O029 6415  18.179   0.240  15.110
    1STR   C030 6416  18.302   0.244  15.184
    1STR   H031 6417  18.302   0.329  15.252
    1STR   C032 6418  18.320   0.113  15.262
    1STR   H033 6419  18.317   0.027  15.196
    1STR   H034 6420  18.244   0.100  15.339
    1STR   H035 6421  18.417   0.112  15.313
    1STR   C036 6422  18.418   0.265  15.084
    1STR   H037 6423  18.422   0.182  15.014
    1STR   H038 6424  18.398   0.355  15.025
    1STR   O039 6425  18.542   0.278  15.154
    1STR   C040 6426  18.658   0.293  15.072
    1STR   H041 6427  18.654   0.224  14.988
    1STR   C042 6428  18.666   0.438  15.021
    1STR   H043 6429  18.666   0.509  15.104
    1STR   H044 6430  18.584   0.463  14.954
    1STR   H045 6431  18.759   0.454  14.965
    1STR   C046 6432  18.781   0.257  15.158
    1STR   H047 6433  18.789   0.325  15.243
    1STR   H048 6434  18.768   0.157  15.198
    1STR   O049 6435  18.899   0.264  15.077
    1STR   C050 6436  19.021   0.236  15.146
    1STR   H051 6437  19.022   0.286  15.242
    1STR   C052 6438  19.037   0.084  15.165
    1STR   H053 6439  19.031   0.032  15.070
    1STR   H054 6440  18.961   0.043  15.231
    1STR   H055 6441  19.134   0.061  15.210
    1STR   C056 6442  19.136   0.294  15.061
    1STR   H057 6443  19.139   0.245  14.964
    1STR   H058 6444  19.117   0.399  15.043
    1STR   O059 6445  19.260   0.276  15.130
    1STR   C060 6446  19.375   0.322  15.060
    1STR   H061 6447  19.370   0.292  14.955
    1STR   C062 6448  19.386   0.475  15.072
    1STR   H063 6449  19.387   0.507  15.176
    1STR   H064 6450  19.304   0.526  15.021
    1STR   H065 6451  19.479   0.510  15.026
    1STR   C066 6452  19.498   0.253  15.123
    1STR   H067 6453  19.507   0.281  15.228
    1STR   H068 6454  19.483   0.145  15.120
    1STR   O069 6455  19.615   0.289  15.050
    1STR   C070 6456  19.737   0.234  15.101
    1STR   H071 6457  19.739   0.241  15.210
    1STR   C072 6458  19.750   0.087  15.058
    1STR   H073 6459  19.743   0.077  14.949
    1STR   H074 6460  19.674   0.024  15.102
    1STR   H075 6461  19.847   0.046  15.088
    1STR   C076 6462  19.852   0.319  15.045
    1STR   H077 6463  19.854   0.313  14.936
    1STR   H078 6464  19.835   0.424  15.071
    1STR   O079 6465  19.976   0.274  15.100
    1STR   C080 6466  20.092   0.342  15.054
    1STR   H081 6467  20.086   0.357  14.946
    1STR   C082 6468  20.105   0.478  15.125
    1STR   H083 6469  20.106   0.465  15.233
    1STR   H084 6470  20.023   0.546  15.100
    1STR   H085 6471  20.198   0.528  15.097
    1STR   C086 6472  20.213   0.252  15.082
    1STR   H087 6473  20.223   0.236  15.190
    1STR   H088 6474  20.196   0.155  15.037
    1STR   O089 6475  20.331   0.312  15.029
    1STR   C090 6476  20.451   0.240  15.052
    1STR   H091 6477  20.454   0.204  15.155
    1STR   C092 6478  20.462   0.123  14.954
    1STR   H093 6479  20.455   0.157  14.851
    1STR   H094 6480  20.384   0.048  14.970
    1STR   H095 6481  20.558   0.072  14.965
    1STR   C096 6482  20.568   0.339  15.034
    1STR   H097 6483  20.569   0.377  14.932
    1STR   H098 6484  20.552   0.425  15.100
    1STR   O099 6485  20.691   0.274  15.066
    1STR   C100 6486  20.807   0.354  15.049
    1STR   H101 6487  20.802   0.411  14.956
    1STR   C102 6488  20.823   0.450  15.169
    1STR   H103 6489  20.824   0.395  15.263
    1STR   H104 6490  20.742   0.523  15.173
    1STR   H105 6491  20.916   0.505  15.162
    1STR   C106 6492  20.927   0.258  15.038
    1STR   H107 6493  20.937   0.200  15.131
    1STR   H108 6494  20.908   0.187  14.958
    1STR   O109 6495  21.046   0.333  15.012
    1STR   C110 6496  21.165   0.256  15.004
    1STR   H111 6497  21.168   0.181  15.083
    1STR   C112 6498  21.174   0.187  14.867
    1STR   H113 6499  21.166   0.260  14.786
    1STR   H114 6500  21.095   0.113  14.852
    1STR   H115 6501  21.269   0.135  14.855
    1STR   C116 6502  21.283   0.352  15.026
    1STR   H117 6503  21.285   0.428  14.947
    1STR   H118 6504  21.269   0.405  15.120
    1STR   O119 6505  21.405   0.278  15.028
    1STR   C120 6506  21.523   0.356  15.043
    1STR   H121 6507  21.518   0.446  14.981
    1STR   C122 6508  21.540   0.396  15.191
    1STR   H123 6509  21.541   0.308  15.255
    1STR   H124 6510  21.461   0.462  15.225
    1STR   H125 6511  21.635   0.449  15.206
    1STR   C126 6512  21.641   0.271  14.994
    1STR   H127 6513  21.651   0.181  15.055
    1STR   H128 6514  21.621   0.238  14.892
    1STR   O129 6515  21.761   0.349  14.999
    1STR   C130 6516  21.879   0.280  14.959
    1STR   H131 6517  21.880   0.179  15.002
    1STR   C132 6518  21.886   0.272  14.805
    1STR   H133 6519  21.879   0.371  14.761
    1STR   H134 6520  21.806   0.211  14.764
    1STR   H135 6521  21.980   0.227  14.773
    1STR   C136 6522  21.998   0.358  15.016
    1STR   H137 6523  22.001   0.458  14.974
    1STR   H138 6524  21.985   0.368  15.124
    1STR   O139 6525  22.119   0.287  14.987
    1STR   C140 6526  22.238   0.351  15.032
    1STR   H141 6527  22.234   0.458  15.010
    1STR   C142 6528  22.257   0.328  15.183
    1STR   H143 6529  22.256   0.222  15.207
    1STR   H144 6530  22.179   0.376  15.241
    1STR   H145 6531  22.352   0.369  15.216
    1STR   C146 6532  22.355   0.291  14.951
    1STR   H147 6533  22.363   0.184  14.971
    1STR   H148 6534  22.334   0.302  14.845
    1STR   O149 6535  22.476   0.359  14.986
    1STR   C150 6536  22.593   0.310  14.921
    1STR   H151 6537  22.593   0.201  14.920
    1STR   C152 6538  22.599   0.363  14.777
    1STR   H153 6539  22.594   0.472  14.775
    1STR   H154 6540  22.518   0.325  14.715
    1STR   H155 6541  22.692   0.334  14.729
    1STR   C156 6542  22.714   0.357  15.003
    1STR   H157 6543  22.718   0.466  15.005
    1STR   H158 6544  22.701   0.324  15.106
    1STR   O159 6545  22.833   0.302  14.947
    1STR   C160 6546  22.953   0.342  15.013
    1STR   H161 6547  22.951   0.448  15.036
    1STR   C162 6548  22.972   0.260  15.142
    1STR   H163 6549  22.970   0.153  15.121
    1STR   H164 6550  22.895   0.282  15.216
    1STR   H165 6551  23.068   0.283  15.188
    1STR   C166 6552  23.069   0.317  14.914
    1STR   H167 6553  23.075   0.211  14.890
    1STR   H168 6554  23.047   0.370  14.821
    1STR   O169 6555  23.191   0.364  14.971
    1STR   C170 6556  23.307   0.344  14.891
    1STR   H171 6557  23.305   0.244  14.847
    1STR   C172 6558  23.313   0.450  14.781
    1STR   H173 6559  23.310   0.551  14.823
    1STR   H174 6560  23.231   0.441  14.709
    1STR   H175 6561  23.406   0.441  14.724
    1STR   C176 6562  23.429   0.352  14.984
    1STR   H177 6563  23.434   0.451  15.029
    1STR   H178 6564  23.416   0.280  15.066
    1STR   O179 6565  23.547   0.323  14.910
    1STR   C180 6566  23.668   0.331  14.984
    1STR   H181 6567  23.668   0.419  15.048
    1STR   C182 6568  23.686   0.204  15.070
    1STR   H183 6569  23.682   0.114  15.008
    1STR   H184 6570  23.609   0.195  15.147
    1STR   H185 6571  23.782   0.205  15.121
    1STR   C186 6572  23.783   0.346  14.883
    1STR   H187 6573  23.787   0.259  14.818
    1STR   H188 6574  23.762   0.432  14.819
    1STR   O189 6575  23.906   0.364  14.953
    1STR   C190 6576  24.021   0.376  14.870
    1STR   H191 6577  24.017   0.302  14.790
    1STR   C192 6578  24.029   0.518  14.811
    1STR   H193 6579  24.028   0.593  14.890
    1STR   H194 6580  23.947   0.539  14.743
    1STR   H195 6581  24.121   0.531  14.755
    1STR   C196 6582  24.143   0.345  14.958
    1STR   H197 6583  24.151   0.418  15.039
    1STR   H198 6584  24.130   0.247  15.004
    1STR   O199 6585  24.261   0.346  14.877
    1STR   C200 6586  24.383   0.322  14.947
    1STR   H201 6587  24.384   0.378  15.041
    1STR   C202 6588  24.398   0.172  14.975
    1STR   H203 6589  24.393   0.114  14.882
    1STR   H204 6590  24.322   0.134  15.042
    1STR   H205 6591  24.495   0.151  15.021
    1STR   C206 6592  24.497   0.375  14.860
    1STR   H207 6593  24.500   0.321  14.765
    1STR   H208 6594  24.478   0.480  14.836
    1STR   O209 6595  24.621   0.362  14.930
    1STR   C210 6596  24.736   0.405  14.858
    1STR   H211 6597  24.731   0.369  14.754
    1STR   C212 6598  24.746   0.558  14.861
    1STR   H213 6599  24.746   0.595  14.963
    1STR   H214 6600  24.664   0.606  14.807
    1STR   H215 6601  24.838   0.592  14.813
    1STR   C216 6602  24.858   0.339  14.924
    1STR   H217 6603  24.867   0.373  15.027
    1STR   H218 6604  24.843   0.231  14.927
    1STR   O219 6605  24.976   0.371  14.850
    1STR   C220 6606  25.097   0.319  14.903
    1STR   H221 6607  25.099   0.333  15.012
    1STR   C222 6608  25.110   0.170  14.868
    1STR   H223 6609  25.103   0.155  14.760
    1STR   H224 6610  25.033   0.110  14.916
    1STR   H225 6611  25.207   0.131  14.901
    1STR   C226 6612  25.212   0.402  14.843
    1STR   H227 6613  25.214   0.390  14.735
    1STR   H228 6614  25.195   0.507  14.863
    1STR   O229 6615  25.336   0.360  14.901
    1STR   C230 6616  25.452   0.426  14.850
    1STR   H231 6617  25.446   0.435  14.742
    1STR   C232 6618  25.464   0.565  14.914
    1STR   H233 6619  25.465   0.558  15.023
    1STR   H234 6620  25.382   0.631  14.885
    1STR   H235 6621  25.557   0.614  14.884
    1STR   C236 6622  25.573   0.338  14.884
    1STR   H237 6623  25.583   0.328  14.992
    1STR   H238 6624  25.557   0.238  14.844
    1STR   O239 6625  25.691   0.395  14.828
    1STR   C240 6626  25.812   0.325  14.855
    1STR   H241 6627  25.815   0.294  14.959
    1STR   C242 6628  25.822   0.202  14.763
    1STR   H243 6629  25.815   0.231  14.658
    1STR   H244 6630  25.745   0.128  14.784
    1STR   H245 6631  25.918   0.152  14.776
    1STR   C246 6632  25.929   0.422  14.831
    1STR   H247 6633  25.930   0.455  14.727
    1STR   H248 6634  25.913   0.511  14.892
    1STR   O249 6635  26.052   0.359  14.866
    1STR   C250 6636  26.169   0.438  14.846
    1STR   H251 6637  26.163   0.490  14.750
    1STR   C252 6638  26.183   0.540  14.960
    1STR   H253 6639  26.184   0.491  15.057
    1STR   H254 6640  26.102   0.614  14.960
    1STR   H255 6641  26.276   0.596  14.951
    1STR   C256 6642  26.290   0.343  14.841
    1STR   H257 6643  26.300   0.290  14.935
    1STR   H258 6644  26.272   0.268  14.764
    1STR   O259 6645  26.409   0.417  14.812
    1STR   C260 6646  26.529   0.340  14.806
    1STR   H261 6647  26.532   0.269  14.889
    1STR   C262 6648  26.536   0.264  14.673
    1STR   H263 6649  26.528   0.332  14.588
    1STR   H264 6650  26.457   0.189  14.663
    1STR   H265 6651  26.631   0.211  14.663
    1STR   C266 6652  26.648   0.436  14.822
    1STR   H267 6653  26.649   0.508  14.740
    1STR   H268 6654  26.635   0.493  14.914
    1STR   O269 6655  26.771   0.363  14.826
    1STR   C270 6656  26.889   0.442  14.839
    1STR   H271 6657  26.884   0.528  14.772
    1STR   C272 6658  26.904   0.490  14.985
    1STR   H273 6659  26.904   0.405  15.054
    1STR   H274 6660  26.825   0.558  15.014
    1STR   H275 6661  26.999   0.543  14.998
    1STR   C276 6662  27.010   0.356  14.796
    1STR   H277 6663  27.018   0.269  14.861
    1STR   H278 6664  26.991   0.318  14.695
    1STR   O279 6665  27.131   0.433  14.799
    1STR   C280 6666  27.250   0.363  14.761
    1STR   H281 6667  27.252   0.265  14.809
    1STR   C282 6668  27.254   0.347  14.608
    1STR   H283 6669  27.245   0.443  14.558
    1STR   H284 6670  27.174   0.282  14.571
    1STR   H285 6671  27.348   0.302  14.577
    1STR   C286 6672  27.372   0.443  14.812
    1STR   H287 6673  27.373   0.542  14.766
    1STR   H288 6674  27.360   0.458  14.919
    1STR   O289 6675  27.494   0.373  14.784
    1STR   C290 6676  27.614   0.438  14.827
    1STR   H291 6677  27.611   0.544  14.800
    1STR   C292 6678  27.629   0.423  14.979
    1STR   H293 6679  27.626   0.318  15.009
    1STR   H294 6680  27.552   0.477  15.034
    1STR   H295 6681  27.725   0.464  15.013
    1STR   C296 6682  27.734   0.373  14.753
    1STR   H297 6683  27.739   0.267  14.777
    1STR   H298 6684  27.716   0.381  14.645
    1STR   O299 6685  27.858   0.437  14.787
    1STR   C300 6686  27.976   0.383  14.726
    1STR   H301 6687  27.971   0.274  14.728
    1STR   C302 6688  27.984   0.432  14.581
    1STR   H303 6689  27.979   0.541  14.575
    1STR   H304 6690  27.904   0.392  14.519
    1STR   H305 6691  28.078   0.400  14.535
    1STR   C306 6692  28.100   0.426  14.808
    1STR   H307 6693  28.114   0.534  14.799
    1STR   H308 6694  28.079   0.406  14.913
    1STR   O309 6695  28.219   0.356  14.767
    1STR    H1R 6696  28.350   0.495  14.846
    1STR    H1S 6697  28.423   0.343  15.037
    1STR    H1T 6698  28.310   0.221  14.980
    1STR    H1U 6699  28.251   0.375  15.043
    1STR    H1V 6700  28.465   0.359  14.666
    1STR    H1W 6701  28.461   0.219  14.769
    1STR    H1X 6702  28.753   0.470  14.912
    1STR    H1Y 6703  28.932   0.567  15.003
    1STR    H1Z 6704  29.154   0.554  15.101
    1STR    H20 6705  29.309   0.308  15.250
    1STR    H21 6706  29.379   0.290  15.086
    1STR    H22 6707  29.347   0.449  15.153
    1STR    H23 6708  29.117   0.027  14.988
    1STR    H27 6709  28.923   0.139  14.964
    1STR    H28 6710  16.378   0.411  15.172
    1STR    H29 6711  16.146   0.463  15.149
    1STR    H2A 6712  15.886   0.240  15.026
    1STR    H2B 6713  15.938   0.405  15.050
    1STR    H2C 6714  15.880   0.312  15.188
    1STR   BCK1 6715  15.894  60.032  30.127
    1STR    O03 6716  15.876  59.946  30.040
    1STR    N04 6717  16.013  60.056  30.185
    1STR    C05 6718  16.120  59.965  30.192
    1STR    C06 6719  16.255  59.999  30.157
    1STR    C07 6720  16.363  59.906  30.171
    1STR    N08 6721  16.497  59.941  30.141
    1STR    C09 6722  16.612  59.873  30.165
    1STR    O0A 6723  16.617  59.764  30.222
    1STR    O0B 6724  16.725  59.936  30.119
    1STR    C0C 6725  16.852  59.866  30.126
    1STR    C0D 6726  16.866  59.776  30.002
    1STR    C0E 6727  16.975  59.960  30.140
    1STR    O0F 6728  17.094  59.881  30.153
    1STR    C0G 6729  17.217  59.952  30.174
    1STR    C0H 6730  17.226  59.996  30.321
    1STR    C0I 6731  17.337  59.860  30.138
    1STR    O0J 6732  17.460  59.932  30.151
    1STR    C0K 6733  28.329  60.010  30.518
    1STR    C0M 6734  28.335  59.964  30.371
    1STR    C0N 6735  28.449  60.102  30.551
    1STR    O0O 6736  28.569  60.025  30.559
    1STR    C0P 6737  28.679  60.056  30.486
    1STR    O0Q 6738  28.688  60.149  30.406
    1STR    N0R 6739  28.774  59.966  30.512
    1STR    C0S 6740  28.899  59.943  30.454
    1STR    C0T 6741  28.947  59.811  30.460
    1STR    C0U 6742  29.066  59.775  30.395
    1STR    C0V 6743  29.142  59.871  30.326
    1STR    C0W 6744  29.258  59.820  30.241
    1STR    C0X 6745  29.104  60.007  30.331
    1STR    N0Y 6746  29.179  60.107  30.268
    1STR   BCK2 6747  29.309  60.139  30.272
    1STR    O10 6748  29.353   0.065  30.197
    1STR    C13 6749  28.980  60.041  30.391
    1STR    C14 6750  16.330  59.777  30.218
    1STR    C15 6751  16.200  59.743  30.258
    1STR    C16 6752  16.096  59.837  30.249
    1STR    C17 6753  15.960  59.798  30.306
    1STR    H1B 6754  16.019  60.139  30.241
    1STR    H1C 6755  16.275  60.098  30.119
    1STR    H1D 6756  16.515  60.029  30.095
    1STR    H1E 6757  16.854  59.802  30.214
    1STR    H1F 6758  16.869  59.834  29.910
    1STR    H1G 6759  16.958  59.718  30.006
    1STR    H1H 6760  16.784  59.705  29.995
    1STR    H1I 6761  16.961  60.022  30.228
    1STR    H1J 6762  16.982  60.027  30.054
    1STR    H1K 6763  17.221  60.039  30.108
    1STR    H1M 6764  17.219  59.911  30.388
    1STR    H1N 6765  17.148  60.067  30.348
    1STR    H1O 6766  17.322  60.045  30.340
    1STR    H1P 6767  17.337  59.773  30.203
    1STR    H1Q 6768  17.325  59.824  30.036
    1STR   C010 6769  17.580  59.858  30.126
    1STR   H011 6770  17.575  59.761  30.177
    1STR   C012 6771  17.599  59.837  29.975
    1STR   H013 6772  17.599  59.932  29.922
    1STR   H014 6773  17.521  59.774  29.932
    1STR   H015 6774  17.694  59.788  29.955
    1STR   C016 6775  17.699  59.937  30.186
    1STR   H017 6776  17.706  60.035  30.138
    1STR   H018 6777  17.680  59.954  30.292
    1STR   O019 6778  17.822  59.865  30.169
    1STR   C020 6779  17.939  59.931  30.217
    1STR   H021 6780  17.937  60.036  30.188
    1STR   C022 6781  17.947  59.919  30.370
    1STR   H023 6782  17.945  59.815  30.402
    1STR   H024 6783  17.865  59.971  30.420
    1STR   H025 6784  18.040  59.963  30.407
    1STR   C026 6785  18.063  59.867  30.150
    1STR   H027 6786  18.069  59.761  30.178
    1STR   H028 6787  18.051  59.871  30.042
    1STR   O029 6788  18.181  59.936  30.190
    1STR   C030 6789  18.304  59.883  30.139
    1STR   H031 6790  18.304  59.774  30.145
    1STR   C032 6791  18.322  59.927  29.992
    1STR   H033 6792  18.318  60.035  29.983
    1STR   H034 6793  18.246  59.884  29.927
    1STR   H035 6794  18.419  59.894  29.954
    1STR   C036 6795  18.419  59.935  30.227
    1STR   H037 6796  18.424  60.044  30.222
    1STR   H038 6797  18.399  59.908  30.331
    1STR   O039 6798  18.543  59.878  30.184
    1STR   C040 6799  18.659  59.922  30.255
    1STR   H041 6800  18.655  60.030  30.270
    1STR   C042 6801  18.667  59.849  30.390
    1STR   H043 6802  18.667  59.741  30.377
    1STR   H044 6803  18.585  59.876  30.456
    1STR   H045 6804  18.760  59.876  30.442
    1STR   C046 6805  18.782  59.891  30.168
    1STR   H047 6806  18.790  59.783  30.151
    1STR   H048 6807  18.769  59.937  30.070
    1STR   O049 6808  18.900  59.941  30.231
    1STR   C050 6809  19.022  59.915  30.161
    1STR   H051 6810  19.023  59.812  30.124
    1STR   C052 6811  19.038  60.014  30.045
    1STR   H053 6812  19.032  60.117  30.080
    1STR   H054 6813  18.961  60.000  29.968
    1STR   H055 6814  19.134  60.001  29.996
    1STR   C056 6815  19.137  59.929  30.263
    1STR   H057 6816  19.140  60.031  30.302
    1STR   H058 6817  19.118  59.863  30.348
    1STR   O059 6818  19.260  59.896  30.200
    1STR   C060 6819  19.376  59.909  30.283
    1STR   H061 6820  19.371  60.002  30.340
    1STR   C062 6821  19.387  59.788  30.377
    1STR   H063 6822  19.387  59.695  30.322
    1STR   H064 6823  19.305  59.785  30.449
    1STR   H065 6824  19.479  59.793  30.435
    1STR   C066 6825  19.498  59.918  30.190
    1STR   H067 6826  19.508  59.826  30.131
    1STR   H068 6827  19.483  59.999  30.119
    1STR   O069 6828  19.616  59.940  30.267
    1STR   C070 6829  19.737  59.947  30.193
    1STR   H071 6830  19.740  59.868  30.118
    1STR   C072 6831  19.750  60.084  30.126
    1STR   H073 6832  19.744   0.005  30.199
    1STR   H074 6833  19.674  60.101  30.050
    1STR   H075 6834  19.847  60.093  30.076
    1STR   C076 6835  19.853  59.921  30.292
    1STR   H077 6836  19.854  59.999  30.368
    1STR   H078 6837  19.835  59.827  30.343
    1STR   O079 6838  19.976  59.917  30.221
    1STR   C080 6839  20.092  59.898  30.301
    1STR   H081 6840  20.086  59.960  30.391
    1STR   C082 6841  20.105  59.750  30.340
    1STR   H083 6842  20.106  59.686  30.252
    1STR   H084 6843  20.024  59.717  30.404
    1STR   H085 6844  20.198  59.733  30.395
    1STR   C086 6845  20.213  59.946  30.219
    1STR   H087 6846  20.223  59.885  30.129
    1STR   H088 6847  20.196  60.048  30.187
    1STR   O089 6848  20.331  59.937  30.299
    1STR   C090 6849  20.451  59.975  30.233
    1STR   H091 6850  20.454  59.932  30.133
    1STR   C092 6851  20.462  60.128  30.227
    1STR   H093 6852  20.455   0.012  30.326
    1STR   H094 6853  20.385   0.012  30.164
    1STR   H095 6854  20.558  60.158  30.184
    1STR   C096 6855  20.568  59.914  30.313
    1STR   H097 6856  20.569  59.955  30.414
    1STR   H098 6857  20.552  59.806  30.323
    1STR   O099 6858  20.691  59.940  30.246
    1STR   C100 6859  20.808  59.893  30.312
    1STR   H101 6860  20.802  59.914  30.419
    1STR   C102 6861  20.823  59.742  30.289
    1STR   H103 6862  20.824  59.718  30.182
    1STR   H104 6863  20.742  59.684  30.335
    1STR   H105 6864  20.916  59.705  30.331
    1STR   C106 6865  20.927  59.971  30.255
    1STR   H107 6866  20.937  59.951  30.149
    1STR   H108 6867  20.909  60.077  30.267
    1STR   O109 6868  21.046  59.933  30.325
    1STR   C110 6869  21.165  59.996  30.279
    1STR   H111 6870  21.168  59.997  30.170
    1STR   C112 6871  21.174  60.139  30.335
    1STR   H113 6872  21.166  60.140  30.443
    1STR   H114 6873  21.095   0.043  30.295
    1STR   H115 6874  21.269   0.025  30.308
    1STR   C116 6875  21.283  59.910  30.328
    1STR   H117 6876  21.285  59.908  30.437
    1STR   H118 6877  21.269  59.807  30.294
    1STR   O119 6878  21.405  59.963  30.277
    1STR   C120 6879  21.523  59.895  30.318
    1STR   H121 6880  21.518  59.871  30.425
    1STR   C122 6881  21.540  59.766  30.236
    1STR   H123 6882  21.541  59.787  30.129
    1STR   H124 6883  21.461  59.694  30.256
    1STR   H125 6884  21.635  59.717  30.261
    1STR   C126 6885  21.641  59.991  30.297
    1STR   H127 6886  21.651  60.016  30.191
    1STR   H128 6887  21.621  60.084  30.350
    1STR   O129 6888  21.761  59.931  30.346
    1STR   C130 6889  21.879  60.009  30.329
    1STR   H131 6890  21.880  60.053  30.229
    1STR   C132 6891  21.886  60.118  30.436
    1STR   H133 6892  21.879  60.076  30.536
    1STR   H134 6893  21.805   0.031  30.426
    1STR   H135 6894  21.980   0.013  30.429
    1STR   C136 6895  21.998  59.912  30.339
    1STR   H137 6896  22.001  59.867  30.438
    1STR   H138 6897  21.985  59.832  30.267
    1STR   O139 6898  22.119  59.984  30.313
    1STR   C140 6899  22.238  59.907  30.323
    1STR   H141 6900  22.234  59.842  30.411
    1STR   C142 6901  22.257  59.822  30.196
    1STR   H143 6902  22.256  59.884  30.107
    1STR   H144 6903  22.179  59.747  30.185
    1STR   H145 6904  22.352  59.769  30.199
    1STR   C146 6905  22.355  60.005  30.342
    1STR   H147 6906  22.363  60.070  30.255
    1STR   H148 6907  22.334  60.069  30.428
    1STR   O149 6908  22.476  59.932  30.362
    1STR   C150 6909  22.593  60.012  30.377
    1STR   H151 6910  22.593  60.093  30.304
    1STR   C152 6911  22.599  60.070  30.520
    1STR   H153 6912  22.594  59.990  30.594
    1STR   H154 6913  22.518  60.139  30.540
    1STR   H155 6914  22.692  60.124  30.535
    1STR   C156 6915  22.714  59.922  30.348
    1STR   H157 6916  22.718  59.840  30.420
    1STR   H158 6917  22.701  59.877  30.250
    1STR   O159 6918  22.833  60.000  30.352
    1STR   C160 6919  22.953  59.927  30.331
    1STR   H161 6920  22.951  59.833  30.386
    1STR   C162 6921  22.972  59.900  30.181
    1STR   H163 6922  22.970  59.992  30.123
    1STR   H164 6923  22.895  59.834  30.141
    1STR   H165 6924  23.068  59.851  30.162
    1STR   C166 6925  23.069  60.011  30.387
    1STR   H167 6926  23.075  60.106  30.333
    1STR   H168 6927  23.047  60.035  30.491
    1STR   O169 6928  23.191  59.938  30.376
    1STR   C170 6929  23.307  60.007  30.422
    1STR   H171 6930  23.305  60.111  30.387
    1STR   C172 6931  23.313  60.003  30.575
    1STR   H173 6932  23.310  59.901  30.612
    1STR   H174 6933  23.231  60.058  30.622
    1STR   H175 6934  23.406  60.048  30.611
    1STR   C176 6935  23.429  59.938  30.359
    1STR   H177 6936  23.434  59.835  30.392
    1STR   H178 6937  23.416  59.936  30.250
    1STR   O179 6938  23.547  60.010  30.394
    1STR   C180 6939  23.668  59.954  30.344
    1STR   H181 6940  23.667  59.845  30.357
    1STR   C182 6941  23.686  59.989  30.196
    1STR   H183 6942  23.682  60.097  30.180
    1STR   H184 6943  23.609  59.944  30.133
    1STR   H185 6944  23.782  59.954  30.159
    1STR   C186 6945  23.783  60.011  30.430
    1STR   H187 6946  23.787  60.119  30.418
    1STR   H188 6947  23.762  59.991  30.535
    1STR   O189 6948  23.906  59.950  30.390
    1STR   C190 6949  24.021  59.997  30.459
    1STR   H191 6950  24.017  60.106  30.469
    1STR   C192 6951  24.029  59.933  30.599
    1STR   H193 6952  24.028  59.824  30.592
    1STR   H194 6953  23.946  59.963  30.663
    1STR   H195 6954  24.121  59.961  30.649
    1STR   C196 6955  24.143  59.961  30.374
    1STR   H197 6956  24.151  59.853  30.364
    1STR   H198 6957  24.130  60.002  30.273
    1STR   O199 6958  24.261  60.015  30.434
    1STR   C200 6959  24.382  59.985  30.366
    1STR   H201 6960  24.383  59.881  30.334
    1STR   C202 6961  24.398  60.077  30.244
    1STR   H203 6962  24.393   0.022  30.273
    1STR   H204 6963  24.322  60.059  30.169
    1STR   H205 6964  24.495  60.061  30.196
    1STR   C206 6965  24.497  60.005  30.467
    1STR   H207 6966  24.500  60.109  30.499
    1STR   H208 6967  24.477  59.944  30.555
    1STR   O209 6968  24.620  59.967  30.406
    1STR   C210 6969  24.736  59.985  30.488
    1STR   H211 6970  24.731  60.081  30.540
    1STR   C212 6971  24.746  59.870  30.589
    1STR   H213 6972  24.746  59.773  30.539
    1STR   H214 6973  24.663  59.871  30.661
    1STR   H215 6974  24.838  59.877  30.647
    1STR   C216 6975  24.858  59.988  30.395
    1STR   H217 6976  24.867  59.893  30.342
    1STR   H218 6977  24.843  60.066  30.319
    1STR   O219 6978  24.975  60.015  30.471
    1STR   C220 6979  25.097  60.017  30.397
    1STR   H221 6980  25.099  59.934  30.326
    1STR   C222 6981  25.110  60.151  30.322
    1STR   H223 6982  25.103   0.075  30.391
    1STR   H224 6983  25.033   0.003  30.246
    1STR   H225 6984  25.206  60.157  30.271
    1STR   C226 6985  25.212  59.997  30.496
    1STR   H227 6986  25.214  60.079  30.568
    1STR   H228 6987  25.194  59.905  30.553
    1STR   O229 6988  25.335  59.989  30.426
    1STR   C230 6989  25.451  59.974  30.507
    1STR   H231 6990  25.445  60.041  30.594
    1STR   C232 6991  25.463  59.828  30.554
    1STR   H233 6992  25.465  59.759  30.470
    1STR   H234 6993  25.382  59.799  30.620
    1STR   H235 6994  25.556  59.813  30.610
    1STR   C236 6995  25.572  60.016  30.423
    1STR   H237 6996  25.582  59.951  30.337
    1STR   H238 6997  25.556  60.117  30.385
    1STR   O239 6998  25.690  60.012  30.504
    1STR   C240 6999  25.811  60.046  30.436
    1STR   H241 7000  25.814  59.998  30.338
    1STR   C242 7001  25.821   0.038  30.421
    1STR   H243 7002  25.814   0.088  30.518
    1STR   H244 7003  25.744   0.079  30.356
    1STR   H245 7004  25.917   0.066  30.377
    1STR   C246 7005  25.927  59.989  30.519
    1STR   H247 7006  25.929  60.036  30.618
    1STR   H248 7007  25.911  59.883  30.534
    1STR   O249 7008  26.050  60.012  30.451
    1STR   C250 7009  26.167  59.968  30.519
    1STR   H251 7010  26.161  59.994  30.625
    1STR   C252 7011  26.182  59.815  30.504
    1STR   H253 7012  26.183  59.786  30.399
    1STR   H254 7013  26.101  59.761  30.553
    1STR   H255 7014  26.275  59.781  30.549
    1STR   C256 7015  26.287  60.042  30.459
    1STR   H257 7016  26.297  60.017  30.353
    1STR   H258 7017  26.269  60.149  30.464
    1STR   O259 7018  26.406  60.008  30.530
    1STR   C260 7019  26.526  60.068  30.481
    1STR   H261 7020  26.529  60.063  30.372
    1STR   C262 7021  26.534   0.054  30.529
    1STR   H263 7022  26.526   0.061  30.637
    1STR   H264 7023  26.455   0.116  30.485
    1STR   H265 7024  26.629   0.099  30.499
    1STR   C266 7025  26.644  59.985  30.535
    1STR   H267 7026  26.646  59.989  30.644
    1STR   H268 7027  26.631  59.881  30.506
    1STR   O269 7028  26.767  60.036  30.482
    1STR   C270 7029  26.885  59.969  30.526
    1STR   H271 7030  26.880  59.951  30.634
    1STR   C272 7031  26.901  59.836  30.451
    1STR   H273 7032  26.901  59.851  30.343
    1STR   H274 7033  26.821  59.766  30.475
    1STR   H275 7034  26.995  59.788  30.478
    1STR   C276 7035  27.004  60.063  30.500
    1STR   H277 7036  27.014  60.082  30.393
    1STR   H278 7037  26.985  60.159  30.548
    1STR   O279 7038  27.125  60.005  30.551
    1STR   C280 7039  27.243  60.081  30.531
    1STR   H281 7040  27.245  60.121  30.429
    1STR   C282 7041  27.249   0.037  30.632
    1STR   H283 7042  27.241  60.159  30.734
    1STR   H284 7043  27.169   0.109  30.617
    1STR   H285 7044  27.343   0.091  30.624
    1STR   C286 7045  27.364  59.987  30.547
    1STR   H287 7046  27.366  59.946  30.648
    1STR   H288 7047  27.352  59.903  30.478
    1STR   O289 7048  27.486  60.057  30.519
    1STR   C290 7049  27.606  59.980  30.532
    1STR   H291 7050  27.602  59.920  30.624
    1STR   C292 7051  27.622  59.888  30.410
    1STR   H293 7052  27.620  59.945  30.317
    1STR   H294 7053  27.544  59.812  30.405
    1STR   H295 7054  27.718  59.835  30.414
    1STR   C296 7055  27.724  60.078  30.545
    1STR   H297 7056  27.730  60.140  30.455
    1STR   H298 7057  27.705  60.146  30.628
    1STR   O299 7058  27.847  60.008  30.565
    1STR   C300 7059  27.964  60.089  30.576
    1STR   H301 7060  27.961   0.008  30.500
    1STR   C302 7061  27.970  60.152  30.716
    1STR   H303 7062  27.964  60.075  30.794
    1STR   H304 7063  27.889   0.062  30.733
    1STR   H305 7064  28.063   0.047  30.730
    1STR   C306 7065  28.088  60.001  30.548
    1STR   H307 7066  28.097  59.925  30.625
    1STR   H308 7067  28.072  59.949  30.454
    1STR   O309 7068  28.207  60.081  30.542
    1STR    H1R 7069  28.333  59.923  30.584
    1STR    H1S 7070  28.431  59.918  30.349
    1STR    H1T 7071  28.323  60.049  30.303
    1STR    H1U 7072  28.258  59.891  30.347
    1STR    H1V 7073  28.434  60.149  30.648
    1STR    H1W 7074  28.456   0.024  30.479
    1STR    H1X 7075  28.742  59.900  30.580
    1STR    H1Y 7076  28.890  59.734  30.510
    1STR    H1Z 7077  29.097  59.671  30.396
    1STR    H20 7078  29.279  59.888  30.159
    1STR    H21 7079  29.348  59.807  30.301
    1STR    H22 7080  29.233  59.724  30.197
    1STR    H23 7081  29.127   0.010  30.209
    1STR    H27 7082  28.945  60.144  30.388
    1STR    H28 7083  16.403  59.698  30.228
    1STR    H29 7084  16.181  59.645  30.297
    1STR    H2A 7085  15.917  59.881  30.362
    1STR    H2B 7086  15.969  59.714  30.375
    1STR    H2C 7087  15.892  59.770  30.226
    1STR   BCK1 7088  15.905  60.132  45.100
    1STR    O03 7089  15.849   0.081  45.089
    1STR    N04 7090  16.033  60.108  45.063
    1STR    C05 7091  16.121   0.024  44.983
    1STR    C06 7092  16.261   0.033  45.015
    1STR    C07 7093  16.355   0.100  44.931
    1STR    N08 7094  16.494   0.103  44.962
    1STR    C09 7095  16.599   0.145  44.888
    1STR    O0A 7096  16.591   0.189  44.774
    1STR    O0B 7097  16.720   0.132  44.953
    1STR    C0C 7098  16.841   0.181  44.891
    1STR    C0D 7099  16.854   0.332  44.916
    1STR    C0E 7100  16.968   0.106  44.939
    1STR    O0F 7101  17.087   0.157  44.875
    1STR    C0G 7102  17.211   0.092  44.908
    1STR    C0H 7103  17.221  60.119  44.830
    1STR    C0I 7104  17.331   0.183  44.873
    1STR    O0J 7105  17.455   0.121  44.912
    1STR    C0K 7106  28.340  59.981  44.717
    1STR    C0M 7107  28.337  60.119  44.786
    1STR    C0N 7108  28.459  59.898  44.772
    1STR    O0O 7109  28.585  59.956  44.734
    1STR    C0P 7110  28.688  59.971  44.821
    1STR    O0Q 7111  28.686  59.944  44.941
    1STR    N0R 7112  28.792  60.023  44.755
    1STR    C0S 7113  28.919  60.070  44.792
    1STR    C0T 7114  28.985  60.144  44.692
    1STR    C0U 7115  29.108   0.046  44.718
    1STR    C0V 7116  29.171   0.032  44.843
    1STR    C0W 7117  29.295   0.117  44.867
    1STR    C0X 7118  29.114  60.108  44.942
    1STR    N0Y 7119  29.181  60.086  45.065
    1STR   BCK2 7120  29.311  60.054  45.082
    1STR    O10 7121  29.388  60.028  44.990
    1STR    C13 7122  28.985  60.051  44.917
    1STR    C14 7123  16.304   0.161  44.814
    1STR    C15 7124  16.169   0.150  44.779
    1STR    C16 7125  16.078   0.080  44.860
    1STR    C17 7126  15.937   0.062  44.806
    1STR    H1B 7127  16.067  60.019  45.096
    1STR    H1C 7128  16.296  60.148  45.107
    1STR    H1D 7129  16.523   0.070  45.052
    1STR    H1E 7130  16.835   0.165  44.783
    1STR    H1F 7131  16.863   0.355  45.022
    1STR    H1G 7132  16.943   0.372  44.867
    1STR    H1H 7133  16.768   0.386  44.877
    1STR    H1I 7134  16.956  60.160  44.917
    1STR    H1J 7135  16.978   0.115  45.047
    1STR    H1K 7136  17.215   0.072  45.015
    1STR    H1M 7137  17.214  60.136  44.723
    1STR    H1N 7138  17.143  60.049  44.858
    1STR    H1O 7139  17.317  60.071  44.849
    1STR    H1P 7140  17.332   0.204  44.766
    1STR    H1Q 7141  17.320   0.279  44.924
    1STR   C010 7142  17.576   0.192  44.880
    1STR   H011 7143  17.571   0.229  44.778
    1STR   C012 7144  17.594   0.309  44.978
    1STR   H013 7145  17.595   0.275  45.081
    1STR   H014 7146  17.517   0.385  44.967
    1STR   H015 7147  17.690   0.359  44.960
    1STR   C016 7148  17.695   0.093  44.890
    1STR   H017 7149  17.701   0.053  44.991
    1STR   H018 7150  17.676   0.009  44.823
    1STR   O019 7151  17.818   0.158  44.855
    1STR   C020 7152  17.936   0.077  44.865
    1STR   H021 7153  17.933   0.019  44.957
    1STR   C022 7154  17.944  60.142  44.744
    1STR   H023 7155  17.942   0.038  44.650
    1STR   H024 7156  17.862  60.070  44.742
    1STR   H025 7157  18.037  60.085  44.746
    1STR   C026 7158  18.060   0.169  44.871
    1STR   H027 7159  18.066   0.229  44.780
    1STR   H028 7160  18.048   0.238  44.954
    1STR   O029 7161  18.179   0.091  44.887
    1STR   C030 7162  18.301   0.164  44.889
    1STR   H031 7163  18.301   0.240  44.811
    1STR   C032 7164  18.320   0.231  45.026
    1STR   H033 7165  18.316   0.158  45.107
    1STR   H034 7166  18.244   0.307  45.046
    1STR   H035 7167  18.417   0.281  45.032
    1STR   C036 7168  18.417   0.067  44.859
    1STR   H037 7169  18.421  60.150  44.936
    1STR   H038 7170  18.398   0.016  44.765
    1STR   O039 7171  18.541   0.138  44.853
    1STR   C040 7172  18.657   0.058  44.830
    1STR   H041 7173  18.653  60.128  44.892
    1STR   C042 7174  18.666   0.020  44.682
    1STR   H043 7175  18.665   0.108  44.618
    1STR   H044 7176  18.584  60.115  44.651
    1STR   H045 7177  18.758  60.125  44.662
    1STR   C046 7178  18.780   0.140  44.874
    1STR   H047 7179  18.788   0.230  44.814
    1STR   H048 7180  18.767   0.171  44.978
    1STR   O049 7181  18.898   0.060  44.861
    1STR   C050 7182  19.021   0.126  44.894
    1STR   H051 7183  19.022   0.227  44.852
    1STR   C052 7184  19.037   0.132  45.047
    1STR   H053 7185  19.031   0.033  45.091
    1STR   H054 7186  18.961   0.194  45.094
    1STR   H055 7187  19.133   0.175  45.074
    1STR   C056 7188  19.136   0.047  44.829
    1STR   H057 7189  19.139  60.105  44.870
    1STR   H058 7190  19.117   0.038  44.722
    1STR   O059 7191  19.260   0.114  44.853
    1STR   C060 7192  19.375   0.048  44.801
    1STR   H061 7193  19.370  60.101  44.821
    1STR   C062 7194  19.386   0.073  44.650
    1STR   H063 7195  19.387   0.180  44.627
    1STR   H064 7196  19.304   0.027  44.595
    1STR   H065 7197  19.478   0.031  44.610
    1STR   C066 7198  19.498   0.105  44.876
    1STR   H067 7199  19.507   0.212  44.857
    1STR   H068 7200  19.483   0.092  44.983
    1STR   O069 7201  19.615   0.036  44.834
    1STR   C070 7202  19.737   0.081  44.892
    1STR   H071 7203  19.739   0.190  44.894
    1STR   C072 7204  19.750   0.025  45.035
    1STR   H073 7205  19.743  60.077  45.035
    1STR   H074 7206  19.673   0.064  45.102
    1STR   H075 7207  19.847   0.053  45.078
    1STR   C076 7208  19.852   0.033  44.803
    1STR   H077 7209  19.854  60.084  44.799
    1STR   H078 7210  19.835   0.068  44.701
    1STR   O079 7211  19.976   0.084  44.852
    1STR   C080 7212  20.092   0.044  44.780
    1STR   H081 7213  20.086  60.097  44.756
    1STR   C082 7214  20.105   0.127  44.651
    1STR   H083 7215  20.106   0.233  44.673
    1STR   H084 7216  20.023   0.108  44.582
    1STR   H085 7217  20.198   0.103  44.599
    1STR   C086 7218  20.213   0.064  44.872
    1STR   H087 7219  20.223   0.170  44.898
    1STR   H088 7220  20.196   0.010  44.966
    1STR   O089 7221  20.331   0.016  44.808
    1STR   C090 7222  20.451   0.033  44.882
    1STR   H091 7223  20.454   0.132  44.927
    1STR   C092 7224  20.462  60.085  44.990
    1STR   H093 7225  20.455  59.985  44.947
    1STR   H094 7226  20.384  60.095  45.066
    1STR   H095 7227  20.558  60.092  45.042
    1STR   C096 7228  20.568   0.024  44.782
    1STR   H097 7229  20.569  60.085  44.735
    1STR   H098 7230  20.552   0.097  44.702
    1STR   O099 7231  20.691   0.050  44.849
    1STR   C100 7232  20.807   0.040  44.768
    1STR   H101 7233  20.801  60.112  44.704
    1STR   C102 7234  20.823   0.167  44.683
    1STR   H103 7235  20.824   0.257  44.746
    1STR   H104 7236  20.742   0.179  44.611
    1STR   H105 7237  20.916   0.165  44.627
    1STR   C106 7238  20.927   0.021  44.863
    1STR   H107 7239  20.937   0.108  44.928
    1STR   H108 7240  20.908  60.095  44.927
    1STR   O109 7241  21.046   0.001  44.786
    1STR   C110 7242  21.165  60.146  44.862
    1STR   H111 7243  21.168   0.059  44.943
    1STR   C112 7244  21.174  60.003  44.918
    1STR   H113 7245  21.167  59.929  44.839
    1STR   H114 7246  21.095  59.983  44.990
    1STR   H115 7247  21.269  59.988  44.969
    1STR   C116 7248  21.283   0.017  44.768
    1STR   H117 7249  21.285  60.105  44.686
    1STR   H118 7250  21.269   0.115  44.724
    1STR   O119 7251  21.405   0.012  44.842
    1STR   C120 7252  21.523   0.034  44.765
    1STR   H121 7253  21.518  60.140  44.671
    1STR   C122 7254  21.540   0.185  44.739
    1STR   H123 7255  21.541   0.241  44.832
    1STR   H124 7256  21.461   0.225  44.676
    1STR   H125 7257  21.635   0.204  44.688
    1STR   C126 7258  21.641  60.138  44.846
    1STR   H127 7259  21.651   0.031  44.941
    1STR   H128 7260  21.621  60.033  44.870
    1STR   O129 7261  21.761  60.149  44.769
    1STR   C130 7262  21.879  60.104  44.834
    1STR   H131 7263  21.880  60.138  44.938
    1STR   C132 7264  21.886  59.950  44.829
    1STR   H133 7265  21.879  59.914  44.726
    1STR   H134 7266  21.805  59.903  44.886
    1STR   H135 7267  21.980  59.914  44.871
    1STR   C136 7268  21.998   0.008  44.762
    1STR   H137 7269  22.001  60.134  44.658
    1STR   H138 7270  21.985   0.116  44.760
    1STR   O139 7271  22.119  60.132  44.829
    1STR   C140 7272  22.238   0.022  44.769
    1STR   H141 7273  22.234   0.010  44.661
    1STR   C142 7274  22.257   0.171  44.806
    1STR   H143 7275  22.256   0.185  44.914
    1STR   H144 7276  22.179   0.234  44.763
    1STR   H145 7277  22.352   0.208  44.768
    1STR   C146 7278  22.355  60.097  44.822
    1STR   H147 7279  22.363  60.108  44.930
    1STR   H148 7280  22.334  59.992  44.802
    1STR   O149 7281  22.476  60.137  44.758
    1STR   C150 7282  22.593  60.068  44.801
    1STR   H151 7283  22.593  60.058  44.909
    1STR   C152 7284  22.599  59.929  44.735
    1STR   H153 7285  22.594  59.937  44.626
    1STR   H154 7286  22.518  59.865  44.767
    1STR   H155 7287  22.692  59.879  44.760
    1STR   C156 7288  22.714  60.154  44.761
    1STR   H157 7289  22.718   0.006  44.653
    1STR   H158 7290  22.701   0.094  44.803
    1STR   O159 7291  22.833  60.094  44.811
    1STR   C160 7292  22.953   0.003  44.777
    1STR   H161 7293  22.951   0.035  44.673
    1STR   C162 7294  22.972   0.124  44.870
    1STR   H163 7295  22.970   0.094  44.975
    1STR   H164 7296  22.895   0.199  44.855
    1STR   H165 7297  23.068   0.172  44.851
    1STR   C166 7298  23.069  60.062  44.793
    1STR   H167 7299  23.075  60.029  44.897
    1STR   H168 7300  23.047  59.974  44.732
    1STR   O169 7301  23.191  60.123  44.752
    1STR   C170 7302  23.307  60.041  44.765
    1STR   H171 7303  23.305  59.989  44.860
    1STR   C172 7304  23.313  59.941  44.649
    1STR   H173 7305  23.310  59.992  44.552
    1STR   H174 7306  23.231  59.869  44.651
    1STR   H175 7307  23.406  59.883  44.653
    1STR   C176 7308  23.428  60.135  44.765
    1STR   H177 7309  23.434   0.029  44.670
    1STR   H178 7310  23.416   0.050  44.843
    1STR   O179 7311  23.547  60.059  44.787
    1STR   C180 7312  23.668  60.134  44.786
    1STR   H181 7313  23.667   0.045  44.703
    1STR   C182 7314  23.686   0.048  44.920
    1STR   H183 7315  23.682  60.138  45.004
    1STR   H184 7316  23.609   0.124  44.935
    1STR   H185 7317  23.782   0.098  44.923
    1STR   C186 7318  23.783  60.034  44.761
    1STR   H187 7319  23.787  59.962  44.843
    1STR   H188 7320  23.762  59.978  44.670
    1STR   O189 7321  23.906  60.105  44.750
    1STR   C190 7322  24.021  60.024  44.731
    1STR   H191 7323  24.017  59.937  44.797
    1STR   C192 7324  24.029  59.978  44.584
    1STR   H193 7325  24.028  60.063  44.516
    1STR   H194 7326  23.947  59.912  44.557
    1STR   H195 7327  24.121  59.922  44.566
    1STR   C196 7328  24.143  60.108  44.770
    1STR   H197 7329  24.151   0.035  44.704
    1STR   H198 7330  24.130  60.146  44.871
    1STR   O199 7331  24.261  60.028  44.761
    1STR   C200 7332  24.383  60.096  44.791
    1STR   H201 7333  24.384   0.034  44.744
    1STR   C202 7334  24.398  60.110  44.944
    1STR   H203 7335  24.393  60.013  44.993
    1STR   H204 7336  24.322   0.014  44.987
    1STR   H205 7337  24.495  60.154  44.968
    1STR   C206 7338  24.497  60.013  44.731
    1STR   H207 7339  24.500  59.914  44.776
    1STR   H208 7340  24.478  59.998  44.624
    1STR   O209 7341  24.620  60.082  44.750
    1STR   C210 7342  24.736  60.014  44.701
    1STR   H211 7343  24.731  59.908  44.727
    1STR   C212 7344  24.746  60.030  44.549
    1STR   H213 7345  24.746  60.135  44.520
    1STR   H214 7346  24.663  59.981  44.496
    1STR   H215 7347  24.838  59.985  44.511
    1STR   C216 7348  24.858  60.074  44.772
    1STR   H217 7349  24.867   0.020  44.747
    1STR   H218 7350  24.843  60.068  44.880
    1STR   O219 7351  24.975  60.003  44.734
    1STR   C220 7352  25.097  60.052  44.790
    1STR   H221 7353  25.099   0.001  44.786
    1STR   C222 7354  25.110  60.003  44.935
    1STR   H223 7355  25.103  59.895  44.942
    1STR   H224 7356  25.033  60.046  45.000
    1STR   H225 7357  25.206  60.033  44.977
    1STR   C226 7358  25.212  59.999  44.703
    1STR   H227 7359  25.214  59.890  44.705
    1STR   H228 7360  25.194  60.028  44.599
    1STR   O229 7361  25.336  60.053  44.750
    1STR   C230 7362  25.452  60.008  44.679
    1STR   H231 7363  25.446  59.901  44.661
    1STR   C232 7364  25.464  60.084  44.546
    1STR   H233 7365  25.465   0.032  44.562
    1STR   H234 7366  25.382  60.061  44.478
    1STR   H235 7367  25.557  60.058  44.495
    1STR   C236 7368  25.573  60.034  44.770
    1STR   H237 7369  25.583  60.141  44.789
    1STR   H238 7370  25.556  59.986  44.866
    1STR   O239 7371  25.691  59.983  44.708
    1STR   C240 7372  25.812  60.004  44.780
    1STR   H241 7373  25.815  60.105  44.821
    1STR   C242 7374  25.822  59.902  44.895
    1STR   H243 7375  25.814  59.800  44.857
    1STR   H244 7376  25.745  59.916  44.970
    1STR   H245 7377  25.918  59.911  44.946
    1STR   C246 7378  25.929  59.989  44.681
    1STR   H247 7379  25.930  59.888  44.640
    1STR   H248 7380  25.913  60.057  44.598
    1STR   O249 7381  26.052  60.018  44.747
    1STR   C250 7382  26.169  60.005  44.666
    1STR   H251 7383  26.163  59.913  44.606
    1STR   C252 7384  26.183  60.127  44.574
    1STR   H253 7385  26.184   0.060  44.632
    1STR   H254 7386  26.102  60.134  44.502
    1STR   H255 7387  26.276  60.123  44.518
    1STR   C256 7388  26.289  59.991  44.761
    1STR   H257 7389  26.299  60.081  44.822
    1STR   H258 7390  26.271  59.908  44.829
    1STR   O259 7391  26.408  59.969  44.685
    1STR   C260 7392  26.528  59.957  44.762
    1STR   H261 7393  26.531  60.034  44.839
    1STR   C262 7394  26.536  59.817  44.826
    1STR   H263 7395  26.528  59.739  44.750
    1STR   H264 7396  26.457  59.801  44.899
    1STR   H265 7397  26.631  59.803  44.877
    1STR   C266 7398  26.647  59.981  44.667
    1STR   H267 7399  26.648  59.905  44.588
    1STR   H268 7400  26.634  60.077  44.617
    1STR   O269 7401  26.770  59.979  44.740
    1STR   C270 7402  26.889  59.998  44.662
    1STR   H271 7403  26.883  59.939  44.571
    1STR   C272 7404  26.904  60.147  44.627
    1STR   H273 7405  26.903   0.049  44.717
    1STR   H274 7406  26.824   0.023  44.562
    1STR   H275 7407  26.998   0.006  44.575
    1STR   C276 7408  27.009  59.948  44.744
    1STR   H277 7409  27.018  60.006  44.837
    1STR   H278 7410  26.990  59.844  44.773
    1STR   O279 7411  27.130  59.957  44.668
    1STR   C280 7412  27.249  59.914  44.734
    1STR   H281 7413  27.251  59.953  44.836
    1STR   C282 7414  27.253  59.760  44.737
    1STR   H283 7415  27.244  59.718  44.637
    1STR   H284 7416  27.173  59.717  44.798
    1STR   H285 7417  27.347  59.725  44.779
    1STR   C286 7418  27.371  59.971  44.659
    1STR   H287 7419  27.372  59.934  44.556
    1STR   H288 7420  27.359  60.080  44.652
    1STR   O289 7421  27.493  59.938  44.725
    1STR   C290 7422  27.613  59.987  44.665
    1STR   H291 7423  27.610  59.969  44.557
    1STR   C292 7424  27.628  60.137  44.692
    1STR   H293 7425  27.624  60.158  44.799
    1STR   H294 7426  27.549   0.036  44.644
    1STR   H295 7427  27.723   0.014  44.654
    1STR   C296 7428  27.733  59.907  44.723
    1STR   H297 7429  27.737  59.922  44.831
    1STR   H298 7430  27.715  59.801  44.706
    1STR   O299 7431  27.857  59.947  44.662
    1STR   C300 7432  27.974  59.880  44.710
    1STR   H301 7433  27.969  59.872  44.819
    1STR   C302 7434  27.981  59.739  44.649
    1STR   H303 7435  27.976  59.743  44.540
    1STR   H304 7436  27.900  59.675  44.683
    1STR   H305 7437  28.074  59.690  44.675
    1STR   C306 7438  28.100  59.963  44.675
    1STR   H307 7439  28.114  59.965  44.567
    1STR   H308 7440  28.081  60.065  44.706
    1STR   O309 7441  28.217  59.911  44.741
    1STR    H1R 7442  28.354  59.994  44.609
    1STR    H1S 7443  28.433   0.009  44.776
    1STR    H1T 7444  28.316  60.108  44.892
    1STR    H1U 7445  28.262   0.025  44.743
    1STR    H1V 7446  28.456  59.797  44.731
    1STR    H1W 7447  28.451  59.887  44.880
    1STR    H1X 7448  28.767  60.033  44.659
    1STR    H1Y 7449  28.940  60.158  44.595
    1STR    H1Z 7450  29.154   0.106  44.641
    1STR    H20 7451  29.306   0.143  44.972
    1STR    H21 7452  29.384   0.063  44.834
    1STR    H22 7453  29.290   0.210  44.811
    1STR    H23 7454  29.127  60.091  45.149
    1STR    H27 7455  28.937  59.991  44.993
    1STR    H28 7456  16.366   0.216  44.745
    1STR    H29 7457  16.135   0.195  44.687
    1STR    H2A 7458  15.896  60.125  44.833
    1STR    H2B 7459  15.936   0.068  44.697
    1STR    H2C 7460  15.872   0.140  44.844
    1STR   BCK1 7461  15.912  14.946   0.139
    1STR    O03 7462  15.900  14.900   0.252
    1STR    N04 7463  16.018  15.019   0.099
    1STR    C05 7464  16.121  15.067   0.183
    1STR    C06 7465  16.259  15.039   0.158
    1STR    C07 7466  16.363  15.086   0.243
    1STR    N08 7467  16.500  15.060   0.216
    1STR    C09 7468  16.608  15.073   0.296
    1STR    O0A 7469  16.603  15.104   0.414
    1STR    O0B 7470  16.726  15.048   0.231
    1STR    C0C 7471  16.851  15.054   0.304
    1STR    C0D 7472  16.870  14.924   0.383
    1STR    C0E 7473  16.973  15.082   0.212
    1STR    O0F 7474  17.093  15.089   0.290
    1STR    C0G 7475  17.215  15.115   0.219
    1STR    C0H 7476  17.223  15.265   0.186
    1STR    C0I 7477  17.336  15.072   0.306
    1STR    O0J 7478  17.459  15.091   0.235
    1STR    C0K 7479  28.334  15.441   0.182
    1STR    C0M 7480  28.329  15.293   0.224
    1STR    C0N 7481  28.458  15.466   0.093
    1STR    O0O 7482  28.577  15.461   0.172
    1STR    C0P 7483  28.683  15.381   0.144
    1STR    O0Q 7484  28.693  15.303   0.049
    1STR    N0R 7485  28.775  15.401   0.238
    1STR    C0S 7486  28.900  15.346   0.270
    1STR    C0T 7487  28.951  15.389   0.393
    1STR    C0U 7488  29.076  15.344   0.438
    1STR    C0V 7489  29.155  15.257   0.360
    1STR    C0W 7490  29.289  15.222   0.419
    1STR    C0X 7491  29.108  15.212   0.233
    1STR    N0Y 7492  29.183  15.139   0.138
    1STR   BCK2 7493  29.294  15.065   0.122
    1STR    O10 7494  29.330  15.043   0.007
    1STR    C13 7495  28.978  15.258   0.191
    1STR    C14 7496  16.324  15.165   0.355
    1STR    C15 7497  16.190  15.196   0.379
    1STR    C16 7498  16.088  15.151   0.293
    1STR    C17 7499  15.947  15.199   0.320
    1STR    H1B 7500  16.021  15.044   0.002
    1STR    H1C 7501  16.284  14.978   0.072
    1STR    H1D 7502  16.524  15.025   0.125
    1STR    H1E 7503  16.845  15.137   0.375
    1STR    H1F 7504  16.877  14.838   0.317
    1STR    H1G 7505  16.962  14.928   0.442
    1STR    H1H 7506  16.788  14.907   0.453
    1STR    H1I 7507  16.956  15.176   0.159
    1STR    H1J 7508  16.981  15.004   0.137
    1STR    H1K 7509  17.218  15.056   0.127
    1STR    H1M 7510  17.218  15.326   0.276
    1STR    H1N 7511  17.144  15.297   0.118
    1STR    H1O 7512  17.318  15.288   0.137
    1STR    H1P 7513  17.337  15.130   0.399
    1STR    H1Q 7514  17.324  14.968   0.334
    1STR   C010 7515  17.579  15.060   0.305
    1STR   H011 7516  17.575  15.102   0.406
    1STR   C012 7517  17.598  14.908   0.313
    1STR   H013 7518  17.598  14.863   0.213
    1STR   H014 7519  17.520  14.859   0.372
    1STR   H015 7520  17.693  14.883   0.360
    1STR   C016 7521  17.698  15.126   0.232
    1STR   H017 7522  17.704  15.088   0.130
    1STR   H018 7523  17.679  15.233   0.224
    1STR   O019 7524  17.821  15.103   0.301
    1STR   C020 7525  17.938  15.157   0.240
    1STR   H021 7526  17.936  15.137   0.133
    1STR   C022 7527  17.946  15.308   0.265
    1STR   H023 7528  17.944  15.330   0.372
    1STR   H024 7529  17.865  15.362   0.218
    1STR   H025 7530  18.039  15.349   0.226
    1STR   C026 7531  18.062  15.085   0.298
    1STR   H027 7532  18.068  15.102   0.406
    1STR   H028 7533  18.050  14.977   0.284
    1STR   O029 7534  18.181  15.131   0.233
    1STR   C030 7535  18.303  15.075   0.281
    1STR   H031 7536  18.303  15.072   0.390
    1STR   C032 7537  18.321  14.933   0.225
    1STR   H033 7538  18.317  14.933   0.116
    1STR   H034 7539  18.245  14.864   0.262
    1STR   H035 7540  18.418  14.892   0.254
    1STR   C036 7541  18.419  15.167   0.237
    1STR   H037 7542  18.423  15.172   0.128
    1STR   H038 7543  18.399  15.268   0.273
    1STR   O039 7544  18.542  15.119   0.290
    1STR   C040 7545  18.658  15.193   0.253
    1STR   H041 7546  18.655  15.218   0.146
    1STR   C042 7547  18.667  15.322   0.336
    1STR   H043 7548  18.666  15.299   0.443
    1STR   H044 7549  18.585  15.390   0.316
    1STR   H045 7550  18.759  15.376   0.315
    1STR   C046 7551  18.781  15.103   0.276
    1STR   H047 7552  18.789  15.077   0.381
    1STR   H048 7553  18.768  15.010   0.221
    1STR   O049 7554  18.899  15.171   0.232
    1STR   C050 7555  19.021  15.100   0.251
    1STR   H051 7556  19.023  15.054   0.350
    1STR   C052 7557  19.037  14.992   0.143
    1STR   H053 7558  19.032  15.035   0.043
    1STR   H054 7559  18.961  14.915   0.150
    1STR   H055 7560  19.134  14.942   0.152
    1STR   C056 7561  19.136  15.202   0.246
    1STR   H057 7562  19.139  15.249   0.147
    1STR   H058 7563  19.118  15.281   0.319
    1STR   O059 7564  19.260  15.137   0.274
    1STR   C060 7565  19.376  15.220   0.268
    1STR   H061 7566  19.371  15.285   0.180
    1STR   C062 7567  19.386  15.304   0.396
    1STR   H063 7568  19.387  15.240   0.485
    1STR   H064 7569  19.304  15.375   0.406
    1STR   H065 7570  19.479  15.362   0.397
    1STR   C066 7571  19.498  15.128   0.251
    1STR   H067 7572  19.507  15.062   0.337
    1STR   H068 7573  19.483  15.065   0.163
    1STR   O069 7574  19.616  15.207   0.235
    1STR   C070 7575  19.737  15.134   0.223
    1STR   H071 7576  19.739  15.052   0.295
    1STR   C072 7577  19.750  15.079   0.080
    1STR   H073 7578  19.744  15.159   0.006
    1STR   H074 7579  19.674  15.005   0.057
    1STR   H075 7580  19.847  15.030   0.066
    1STR   C076 7581  19.852  15.230   0.257
    1STR   H077 7582  19.854  15.313   0.186
    1STR   H078 7583  19.835  15.273   0.355
    1STR   O079 7584  19.976  15.159   0.254
    1STR   C080 7585  20.092  15.237   0.280
    1STR   H081 7586  20.086  15.332   0.226
    1STR   C082 7587  20.105  15.263   0.431
    1STR   H083 7588  20.106  15.169   0.487
    1STR   H084 7589  20.024  15.324   0.470
    1STR   H085 7590  20.198  15.316   0.453
    1STR   C086 7591  20.213  15.160   0.226
    1STR   H087 7592  20.223  15.065   0.279
    1STR   H088 7593  20.196  15.137   0.121
    1STR   O089 7594  20.331  15.239   0.241
    1STR   C090 7595  20.451  15.176   0.198
    1STR   H091 7596  20.454  15.073   0.232
    1STR   C092 7597  20.462  15.183   0.045
    1STR   H093 7598  20.455  15.285   0.009
    1STR   H094 7599  20.385  15.124  60.156
    1STR   H095 7600  20.558  15.143   0.011
    1STR   C096 7601  20.568  15.251   0.266
    1STR   H097 7602  20.569  15.355   0.233
    1STR   H098 7603  20.552  15.251   0.374
    1STR   O099 7604  20.691  15.186   0.233
    1STR   C100 7605  20.807  15.248   0.287
    1STR   H101 7606  20.802  15.356   0.275
    1STR   C102 7607  20.823  15.211   0.435
    1STR   H103 7608  20.824  15.103   0.449
    1STR   H104 7609  20.742  15.252   0.496
    1STR   H105 7610  20.916  15.251   0.475
    1STR   C106 7611  20.927  15.198   0.204
    1STR   H107 7612  20.937  15.090   0.214
    1STR   H108 7613  20.908  15.219   0.098
    1STR   O109 7614  21.046  15.265   0.247
    1STR   C110 7615  21.165  15.224   0.181
    1STR   H111 7616  21.168  15.116   0.170
    1STR   C112 7617  21.174  15.292   0.043
    1STR   H113 7618  21.166  15.400   0.052
    1STR   H114 7619  21.095  15.258  60.136
    1STR   H115 7620  21.269  15.269  60.155
    1STR   C116 7621  21.283  15.266   0.271
    1STR   H117 7622  21.285  15.374   0.283
    1STR   H118 7623  21.269  15.222   0.370
    1STR   O119 7624  21.405  15.219   0.213
    1STR   C120 7625  21.523  15.254   0.285
    1STR   H121 7626  21.518  15.358   0.318
    1STR   C122 7627  21.540  15.161   0.406
    1STR   H123 7628  21.541  15.056   0.375
    1STR   H124 7629  21.461  15.174   0.479
    1STR   H125 7630  21.635  15.181   0.457
    1STR   C126 7631  21.641  15.242   0.187
    1STR   H127 7632  21.651  15.138   0.153
    1STR   H128 7633  21.621  15.303   0.099
    1STR   O129 7634  21.761  15.285   0.251
    1STR   C130 7635  21.879  15.274   0.173
    1STR   H131 7636  21.880  15.179   0.119
    1STR   C132 7637  21.886  15.391   0.073
    1STR   H133 7638  21.879  15.487   0.124
    1STR   H134 7639  21.806  15.387  60.159
    1STR   H135 7640  21.980  15.389   0.018
    1STR   C136 7641  21.998  15.276   0.269
    1STR   H137 7642  22.001  15.371   0.324
    1STR   H138 7643  21.985  15.197   0.343
    1STR   O139 7644  22.119  15.257   0.196
    1STR   C140 7645  22.238  15.260   0.274
    1STR   H141 7646  22.234  15.342   0.346
    1STR   C142 7647  22.257  15.126   0.347
    1STR   H143 7648  22.256  15.043   0.277
    1STR   H144 7649  22.179  15.109   0.421
    1STR   H145 7650  22.352  15.125   0.400
    1STR   C146 7651  22.355  15.288   0.177
    1STR   H147 7652  22.363  15.207   0.105
    1STR   H148 7653  22.334  15.379   0.121
    1STR   O149 7654  22.476  15.301   0.252
    1STR   C150 7655  22.593  15.323   0.173
    1STR   H151 7656  22.593  15.257   0.086
    1STR   C152 7657  22.599  15.470   0.129
    1STR   H153 7658  22.594  15.538   0.214
    1STR   H154 7659  22.518  15.496   0.061
    1STR   H155 7660  22.692  15.491   0.076
    1STR   C156 7661  22.714  15.286   0.261
    1STR   H157 7662  22.718  15.351   0.348
    1STR   H158 7663  22.701  15.184   0.297
    1STR   O159 7664  22.833  15.297   0.184
    1STR   C160 7665  22.953  15.270   0.254
    1STR   H161 7666  22.951  15.316   0.353
    1STR   C162 7667  22.972  15.118   0.268
    1STR   H163 7668  22.970  15.069   0.171
    1STR   H164 7669  22.895  15.072   0.330
    1STR   H165 7670  23.068  15.094   0.315
    1STR   C166 7671  23.069  15.333   0.175
    1STR   H167 7672  23.075  15.288   0.076
    1STR   H168 7673  23.047  15.439   0.161
    1STR   O169 7674  23.191  15.316   0.247
    1STR   C170 7675  23.307  15.367   0.182
    1STR   H171 7676  23.305  15.342   0.076
    1STR   C172 7677  23.313  15.520   0.199
    1STR   H173 7678  23.310  15.548   0.305
    1STR   H174 7679  23.231  15.571   0.149
    1STR   H175 7680  23.406  15.559   0.157
    1STR   C176 7681  23.428  15.298   0.245
    1STR   H177 7682  23.434  15.323   0.351
    1STR   H178 7683  23.416  15.190   0.238
    1STR   O179 7684  23.547  15.339   0.177
    1STR   C180 7685  23.668  15.285   0.229
    1STR   H181 7686  23.667  15.289   0.338
    1STR   C182 7687  23.686  15.140   0.180
    1STR   H183 7688  23.682  15.135   0.071
    1STR   H184 7689  23.609  15.074   0.220
    1STR   H185 7690  23.782  15.101   0.212
    1STR   C186 7691  23.783  15.375   0.179
    1STR   H187 7692  23.787  15.373   0.070
    1STR   H188 7693  23.762  15.478   0.209
    1STR   O189 7694  23.906  15.331   0.236
    1STR   C190 7695  24.021  15.404   0.195
    1STR   H191 7696  24.017  15.423   0.088
    1STR   C192 7697  24.029  15.537   0.272
    1STR   H193 7698  24.028  15.520   0.380
    1STR   H194 7699  23.947  15.603   0.247
    1STR   H195 7700  24.121  15.589   0.248
    1STR   C196 7701  24.143  15.315   0.223
    1STR   H197 7702  24.151  15.295   0.330
    1STR   H198 7703  24.130  15.219   0.174
    1STR   O199 7704  24.261  15.380   0.175
    1STR   C200 7705  24.382  15.310   0.199
    1STR   H201 7706  24.384  15.269   0.300
    1STR   C202 7707  24.398  15.196   0.096
    1STR   H203 7708  24.393  15.235  60.154
    1STR   H204 7709  24.322  15.119   0.108
    1STR   H205 7710  24.495  15.147   0.108
    1STR   C206 7711  24.497  15.412   0.188
    1STR   H207 7712  24.500  15.453   0.087
    1STR   H208 7713  24.478  15.494   0.257
    1STR   O209 7714  24.620  15.348   0.220
    1STR   C210 7715  24.736  15.431   0.210
    1STR   H211 7716  24.731  15.492   0.119
    1STR   C212 7717  24.746  15.522   0.334
    1STR   H213 7718  24.746  15.464   0.426
    1STR   H214 7719  24.663  15.593   0.339
    1STR   H215 7720  24.838  15.580   0.331
    1STR   C216 7721  24.858  15.339   0.199
    1STR   H217 7722  24.867  15.277   0.288
    1STR   H218 7723  24.843  15.270   0.115
    1STR   O219 7724  24.975  15.417   0.179
    1STR   C220 7725  25.097  15.343   0.170
    1STR   H221 7726  25.099  15.265   0.247
    1STR   C222 7727  25.110  15.280   0.030
    1STR   H223 7728  25.103  15.356  60.112
    1STR   H224 7729  25.033  15.205   0.011
    1STR   H225 7730  25.206  15.231   0.019
    1STR   C226 7731  25.212  15.441   0.199
    1STR   H227 7732  25.214  15.519   0.123
    1STR   H228 7733  25.194  15.489   0.295
    1STR   O229 7734  25.336  15.370   0.201
    1STR   C230 7735  25.452  15.450   0.223
    1STR   H231 7736  25.446  15.541   0.164
    1STR   C232 7737  25.464  15.484   0.372
    1STR   H233 7738  25.465  15.393   0.433
    1STR   H234 7739  25.382  15.547   0.407
    1STR   H235 7740  25.556  15.538   0.392
    1STR   C236 7741  25.573  15.369   0.173
    1STR   H237 7742  25.583  15.277   0.231
    1STR   H238 7743  25.556  15.340   0.069
    1STR   O239 7744  25.691  15.449   0.185
    1STR   C240 7745  25.811  15.385   0.145
    1STR   H241 7746  25.814  15.283   0.184
    1STR   C242 7747  25.822  15.383  60.152
    1STR   H243 7748  25.814  15.483  60.111
    1STR   H244 7749  25.744  15.322  60.106
    1STR   H245 7750  25.918  15.342  60.120
    1STR   C246 7751  25.928  15.463   0.208
    1STR   H247 7752  25.929  15.565   0.170
    1STR   H248 7753  25.912  15.468   0.316
    1STR   O249 7754  26.051  15.397   0.179
    1STR   C250 7755  26.168  15.461   0.230
    1STR   H251 7756  26.162  15.569   0.212
    1STR   C252 7757  26.182  15.432   0.380
    1STR   H253 7758  26.183  15.325   0.400
    1STR   H254 7759  26.102  15.477   0.438
    1STR   H255 7760  26.276  15.474   0.418
    1STR   C256 7761  26.289  15.407   0.151
    1STR   H257 7762  26.299  15.300   0.167
    1STR   H258 7763  26.271  15.422   0.044
    1STR   O259 7764  26.408  15.475   0.191
    1STR   C260 7765  26.528  15.432   0.127
    1STR   H261 7766  26.530  15.323   0.122
    1STR   C262 7767  26.535  15.492  60.145
    1STR   H263 7768  26.527  15.600  60.148
    1STR   H264 7769  26.456  15.454  60.080
    1STR   H265 7770  26.630  15.467  60.098
    1STR   C266 7771  26.646  15.478   0.214
    1STR   H267 7772  26.647  15.587   0.220
    1STR   H268 7773  26.633  15.440   0.315
    1STR   O269 7774  26.769  15.430   0.158
    1STR   C270 7775  26.887  15.468   0.229
    1STR   H271 7776  26.882  15.574   0.256
    1STR   C272 7777  26.903  15.382   0.355
    1STR   H273 7778  26.902  15.276   0.330
    1STR   H274 7779  26.823  15.399   0.427
    1STR   H275 7780  26.997  15.404   0.405
    1STR   C276 7781  27.007  15.450   0.134
    1STR   H277 7782  27.016  15.345   0.105
    1STR   H278 7783  26.988  15.507   0.043
    1STR   O279 7784  27.128  15.495   0.196
    1STR   C280 7785  27.247  15.482   0.118
    1STR   H281 7786  27.249  15.384   0.070
    1STR   C282 7787  27.251  15.593   0.012
    1STR   H283 7788  27.243  15.692   0.058
    1STR   H284 7789  27.172  15.584  60.099
    1STR   H285 7790  27.346  15.591  60.118
    1STR   C286 7791  27.368  15.490   0.213
    1STR   H287 7792  27.370  15.587   0.263
    1STR   H288 7793  27.357  15.415   0.291
    1STR   O289 7794  27.490  15.470   0.141
    1STR   C290 7795  27.611  15.475   0.218
    1STR   H291 7796  27.607  15.561   0.285
    1STR   C292 7797  27.626  15.346   0.299
    1STR   H293 7798  27.623  15.258   0.234
    1STR   H294 7799  27.548  15.335   0.375
    1STR   H295 7800  27.722  15.344   0.352
    1STR   C296 7801  27.729  15.495   0.121
    1STR   H297 7802  27.734  15.411   0.052
    1STR   H298 7803  27.711  15.584   0.062
    1STR   O299 7804  27.853  15.507   0.192
    1STR   C300 7805  27.970  15.524   0.111
    1STR   H301 7806  27.966  15.456   0.026
    1STR   C302 7807  27.978  15.669   0.062
    1STR   H303 7808  27.973  15.739   0.146
    1STR   H304 7809  27.897  15.694  60.154
    1STR   H305 7810  28.071  15.687   0.009
    1STR   C306 7811  28.095  15.486   0.195
    1STR   H307 7812  28.108  15.558   0.276
    1STR   H308 7813  28.075  15.389   0.242
    1STR   O309 7814  28.214  15.478   0.114
    1STR    H1R 7815  28.344  15.504   0.271
    1STR    H1S 7816  28.424  15.262   0.268
    1STR    H1T 7817  28.311  15.229   0.138
    1STR    H1U 7818  28.252  15.273   0.298
    1STR    H1V 7819  28.453  15.566   0.049
    1STR    H1W 7820  28.462  15.396   0.009
    1STR    H1X 7821  28.740  15.472   0.301
    1STR    H1Y 7822  28.896  15.457   0.456
    1STR    H1Z 7823  29.112  15.379   0.534
    1STR    H20 7824  29.288  15.118   0.451
    1STR    H21 7825  29.368  15.241   0.347
    1STR    H22 7826  29.312  15.281   0.508
    1STR    H23 7827  29.143  15.145   0.046
    1STR    H27 7828  28.938  15.226   0.096
    1STR    H28 7829  16.396  15.205   0.424
    1STR    H29 7830  16.166  15.258   0.464
    1STR    H2A 7831  15.896  15.224   0.226
    1STR    H2B 7832  15.946  15.287   0.383
    1STR    H2C 7833  15.889  15.121   0.370
    1STR   BCK1 7834  15.907  14.928  15.051
    1STR    O03 7835  15.870  14.958  14.938
    1STR    N04 7836  16.033  14.891  15.081
    1STR    C05 7837  16.129  14.840  14.992
    1STR    C06 7838  16.265  14.885  14.994
    1STR    C07 7839  16.365  14.826  14.911
    1STR    N08 7840  16.501  14.867  14.917
    1STR    C09 7841  16.611  14.801  14.875
    1STR    O0A 7842  16.609  14.688  14.827
    1STR    O0B 7843  16.726  14.873  14.891
    1STR    C0C 7844  16.850  14.822  14.837
    1STR    C0D 7845  16.862  14.865  14.690
    1STR    C0E 7846  16.974  14.868  14.918
    1STR    O0F 7847  17.093  14.810  14.862
    1STR    C0G 7848  17.216  14.837  14.931
    1STR    C0H 7849  17.226  14.748  15.056
    1STR    C0I 7850  17.336  14.810  14.836
    1STR    O0J 7851  17.459  14.844  14.902
    1STR    C0K 7852  28.329  14.604  15.187
    1STR    C0M 7853  28.333  14.693  15.061
    1STR    C0N 7854  28.449  14.637  15.279
    1STR    O0O 7855  28.571  14.593  15.219
    1STR    C0P 7856  28.680  14.672  15.214
    1STR    O0Q 7857  28.687  14.788  15.254
    1STR    N0R 7858  28.780  14.605  15.156
    1STR    C0S 7859  28.910  14.642  15.117
    1STR    C0T 7860  28.973  14.557  15.024
    1STR    C0U 7861  29.098  14.591  14.969
    1STR    C0V 7862  29.164  14.709  15.007
    1STR    C0W 7863  29.288  14.749  14.929
    1STR    C0X 7864  29.109  14.791  15.110
    1STR    N0Y 7865  29.169  14.911  15.150
    1STR   BCK2 7866  29.293  14.945  15.189
    1STR    O10 7867  29.317  15.063  15.209
    1STR    C13 7868  28.980  14.758  15.160
    1STR    C14 7869  16.324  14.725  14.821
    1STR    C15 7870  16.192  14.678  14.821
    1STR    C16 7871  16.096  14.731  14.908
    1STR    C17 7872  15.959  14.664  14.912
    1STR    H1B 7873  16.054  14.888  15.179
    1STR    H1C 7874  16.292  14.965  15.062
    1STR    H1D 7875  16.522  14.956  14.959
    1STR    H1E 7876  16.850  14.713  14.841
    1STR    H1F 7877  16.865  14.973  14.679
    1STR    H1G 7878  16.953  14.824  14.645
    1STR    H1H 7879  16.778  14.828  14.631
    1STR    H1I 7880  16.962  14.836  15.022
    1STR    H1J 7881  16.982  14.976  14.918
    1STR    H1K 7882  17.220  14.942  14.960
    1STR    H1M 7883  17.219  14.643  15.030
    1STR    H1N 7884  17.148  14.770  15.129
    1STR    H1O 7885  17.321  14.763  15.106
    1STR    H1P 7886  17.337  14.705  14.806
    1STR    H1Q 7887  17.324  14.869  14.745
    1STR   C010 7888  17.579  14.819  14.828
    1STR   H011 7889  17.575  14.720  14.782
    1STR   C012 7890  17.598  14.926  14.719
    1STR   H013 7891  17.598  15.026  14.763
    1STR   H014 7892  17.520  14.922  14.643
    1STR   H015 7893  17.693  14.913  14.668
    1STR   C016 7894  17.698  14.820  14.927
    1STR   H017 7895  17.704  14.917  14.976
    1STR   H018 7896  17.679  14.746  15.005
    1STR   O019 7897  17.821  14.790  14.860
    1STR   C020 7898  17.938  14.792  14.942
    1STR   H021 7899  17.936  14.879  15.007
    1STR   C022 7900  17.946  14.663  15.025
    1STR   H023 7901  17.944  14.575  14.961
    1STR   H024 7902  17.864  14.655  15.097
    1STR   H025 7903  18.039  14.660  15.082
    1STR   C026 7904  18.062  14.806  14.850
    1STR   H027 7905  18.068  14.720  14.783
    1STR   H028 7906  18.050  14.894  14.788
    1STR   O029 7907  18.181  14.816  14.929
    1STR   C030 7908  18.303  14.825  14.856
    1STR   H031 7909  18.303  14.753  14.773
    1STR   C032 7910  18.321  14.967  14.801
    1STR   H033 7911  18.317  15.041  14.882
    1STR   H034 7912  18.245  14.993  14.728
    1STR   H035 7913  18.418  14.978  14.752
    1STR   C036 7914  18.419  14.786  14.951
    1STR   H037 7915  18.423  14.857  15.034
    1STR   H038 7916  18.399  14.688  14.993
    1STR   O039 7917  18.542  14.786  14.879
    1STR   C040 7918  18.658  14.757  14.957
    1STR   H041 7919  18.654  14.810  15.052
    1STR   C042 7920  18.667  14.605  14.982
    1STR   H043 7921  18.666  14.550  14.888
    1STR   H044 7922  18.585  14.569  15.044
    1STR   H045 7923  18.759  14.580  15.035
    1STR   C046 7924  18.781  14.807  14.879
    1STR   H047 7925  18.789  14.755  14.784
    1STR   H048 7926  18.768  14.913  14.857
    1STR   O049 7927  18.899  14.787  14.957
    1STR   C050 7928  19.021  14.826  14.895
    1STR   H051 7929  19.023  14.793  14.791
    1STR   C052 7930  19.037  14.979  14.902
    1STR   H053 7931  19.032  15.014  15.005
    1STR   H054 7932  18.961  15.031  14.844
    1STR   H055 7933  19.134  15.009  14.862
    1STR   C056 7934  19.136  14.755  14.968
    1STR   H057 7935  19.139  14.786  15.073
    1STR   H058 7936  19.118  14.647  14.967
    1STR   O059 7937  19.260  14.784  14.903
    1STR   C060 7938  19.376  14.727  14.964
    1STR   H061 7939  19.371  14.738  15.073
    1STR   C062 7940  19.386  14.578  14.926
    1STR   H063 7941  19.387  14.565  14.818
    1STR   H064 7942  19.304  14.519  14.967
    1STR   H065 7943  19.479  14.535  14.965
    1STR   C066 7944  19.498  14.806  14.914
    1STR   H067 7945  19.507  14.796  14.806
    1STR   H068 7946  19.483  14.912  14.936
    1STR   O069 7947  19.615  14.758  14.980
    1STR   C070 7948  19.737  14.820  14.939
    1STR   H071 7949  19.739  14.832  14.831
    1STR   C072 7950  19.750  14.957  15.007
    1STR   H073 7951  19.744  14.948  15.116
    1STR   H074 7952  19.674  15.027  14.975
    1STR   H075 7953  19.847  15.003  14.984
    1STR   C076 7954  19.852  14.727  14.979
    1STR   H077 7955  19.854  14.714  15.087
    1STR   H078 7956  19.835  14.628  14.935
    1STR   O079 7957  19.976  14.781  14.933
    1STR   C080 7958  20.092  14.705  14.967
    1STR   H081 7959  20.086  14.672  15.071
    1STR   C082 7960  20.105  14.584  14.873
    1STR   H083 7961  20.106  14.615  14.769
    1STR   H084 7962  20.024  14.513  14.886
    1STR   H085 7963  20.198  14.530  14.892
    1STR   C086 7964  20.213  14.799  14.954
    1STR   H087 7965  20.223  14.834  14.851
    1STR   H088 7966  20.196  14.887  15.016
    1STR   O089 7967  20.331  14.731  14.996
    1STR   C090 7968  20.451  14.806  14.986
    1STR   H091 7969  20.454  14.860  14.891
    1STR   C092 7970  20.462  14.904  15.103
    1STR   H093 7971  20.455  14.853  15.199
    1STR   H094 7972  20.384  14.981  15.100
    1STR   H095 7973  20.558  14.956  15.101
    1STR   C096 7974  20.568  14.705  14.987
    1STR   H097 7975  20.569  14.650  15.081
    1STR   H098 7976  20.552  14.632  14.907
    1STR   O099 7977  20.691  14.775  14.967
    1STR   C100 7978  20.807  14.693  14.969
    1STR   H101 7979  20.802  14.621  15.051
    1STR   C102 7980  20.823  14.620  14.835
    1STR   H103 7981  20.824  14.690  14.752
    1STR   H104 7982  20.742  14.549  14.817
    1STR   H105 7983  20.916  14.564  14.832
    1STR   C106 7984  20.927  14.786  14.997
    1STR   H107 7985  20.937  14.859  14.916
    1STR   H108 7986  20.909  14.842  15.088
    1STR   O109 7987  21.046  14.707  15.009
    1STR   C110 7988  21.165  14.782  15.031
    1STR   H111 7989  21.168  14.869  14.966
    1STR   C112 7990  21.174  14.825  15.178
    1STR   H113 7991  21.166  14.739  15.245
    1STR   H114 7992  21.095  14.895  15.205
    1STR   H115 7993  21.269  14.875  15.198
    1STR   C116 7994  21.283  14.691  14.993
    1STR   H117 7995  21.285  14.603  15.057
    1STR   H118 7996  21.269  14.656  14.891
    1STR   O119 7997  21.405  14.764  15.004
    1STR   C120 7998  21.523  14.690  14.975
    1STR   H121 7999  21.518  14.591  15.021
    1STR   C122 8000  21.540  14.676  14.823
    1STR   H123 8001  21.541  14.774  14.774
    1STR   H124 8002  21.461  14.617  14.777
    1STR   H125 8003  21.635  14.627  14.799
    1STR   C126 8004  21.641  14.765  15.038
    1STR   H127 8005  21.651  14.864  14.994
    1STR   H128 8006  21.621  14.779  15.144
    1STR   O129 8007  21.761  14.690  15.020
    1STR   C130 8008  21.879  14.750  15.071
    1STR   H131 8009  21.880  14.857  15.046
    1STR   C132 8010  21.886  14.732  15.224
    1STR   H133 8011  21.879  14.626  15.251
    1STR   H134 8012  21.806  14.784  15.275
    1STR   H135 8013  21.980  14.770  15.263
    1STR   C136 8014  21.998  14.684  15.001
    1STR   H137 8015  22.001  14.577  15.025
    1STR   H138 8016  21.985  14.692  14.893
    1STR   O139 8017  22.119  14.748  15.042
    1STR   C140 8018  22.238  14.693  14.987
    1STR   H141 8019  22.234  14.584  14.990
    1STR   C142 8020  22.257  14.742  14.842
    1STR   H143 8021  22.256  14.851  14.837
    1STR   H144 8022  22.179  14.705  14.776
    1STR   H145 8023  22.352  14.707  14.802
    1STR   C146 8024  22.355  14.738  15.077
    1STR   H147 8025  22.363  14.846  15.075
    1STR   H148 8026  22.334  14.708  15.180
    1STR   O149 8027  22.476  14.677  15.031
    1STR   C150 8028  22.593  14.714  15.104
    1STR   H151 8029  22.593  14.821  15.123
    1STR   C152 8030  22.599  14.636  15.236
    1STR   H153 8031  22.594  14.528  15.218
    1STR   H154 8032  22.518  14.663  15.303
    1STR   H155 8033  22.692  14.657  15.289
    1STR   C156 8034  22.714  14.682  15.014
    1STR   H157 8035  22.718  14.575  14.994
    1STR   H158 8036  22.701  14.733  14.918
    1STR   O159 8037  22.833  14.726  15.079
    1STR   C160 8038  22.953  14.699  15.008
    1STR   H161 8039  22.951  14.598  14.966
    1STR   C162 8040  22.972  14.802  14.895
    1STR   H163 8041  22.970  14.903  14.934
    1STR   H164 8042  22.895  14.793  14.818
    1STR   H165 8043  23.068  14.787  14.845
    1STR   C166 8044  23.069  14.705  15.109
    1STR   H167 8045  23.075  14.806  15.151
    1STR   H168 8046  23.047  14.637  15.191
    1STR   O169 8047  23.191  14.670  15.045
    1STR   C170 8048  23.307  14.676  15.127
    1STR   H171 8049  23.305  14.766  15.188
    1STR   C172 8050  23.313  14.552  15.217
    1STR   H173 8051  23.310  14.460  15.158
    1STR   H174 8052  23.231  14.548  15.289
    1STR   H175 8053  23.406  14.551  15.275
    1STR   C176 8054  23.429  14.684  15.034
    1STR   H177 8055  23.434  14.594  14.972
    1STR   H178 8056  23.416  14.768  14.966
    1STR   O179 8057  23.547  14.700  15.112
    1STR   C180 8058  23.668  14.705  15.037
    1STR   H181 8059  23.667  14.628  14.959
    1STR   C182 8060  23.686  14.844  14.975
    1STR   H183 8061  23.682  14.922  15.051
    1STR   H184 8062  23.609  14.866  14.900
    1STR   H185 8063  23.782  14.852  14.925
    1STR   C186 8064  23.783  14.672  15.134
    1STR   H187 8065  23.787  14.747  15.213
    1STR   H188 8066  23.762  14.576  15.182
    1STR   O189 8067  23.906  14.666  15.062
    1STR   C190 8068  24.021  14.640  15.142
    1STR   H191 8069  24.017  14.699  15.234
    1STR   C192 8070  24.029  14.490  15.175
    1STR   H193 8071  24.028  14.430  15.084
    1STR   H194 8072  23.946  14.458  15.238
    1STR   H195 8073  24.121  14.468  15.229
    1STR   C196 8074  24.143  14.686  15.061
    1STR   H197 8075  24.151  14.628  14.969
    1STR   H198 8076  24.130  14.791  15.033
    1STR   O199 8077  24.261  14.671  15.140
    1STR   C200 8078  24.382  14.707  15.075
    1STR   H201 8079  24.383  14.668  14.973
    1STR   C202 8080  24.398  14.860  15.075
    1STR   H203 8081  24.393  14.900  15.176
    1STR   H204 8082  24.322  14.909  15.014
    1STR   H205 8083  24.495  14.888  15.033
    1STR   C206 8084  24.497  14.639  15.152
    1STR   H207 8085  24.500  14.676  15.255
    1STR   H208 8086  24.477  14.532  15.158
    1STR   O209 8087  24.620  14.664  15.086
    1STR   C210 8088  24.736  14.610  15.149
    1STR   H211 8089  24.731  14.627  15.257
    1STR   C212 8090  24.746  14.459  15.120
    1STR   H213 8091  24.746  14.440  15.012
    1STR   H214 8092  24.663  14.403  15.164
    1STR   H215 8093  24.838  14.418  15.161
    1STR   C216 8094  24.858  14.686  15.095
    1STR   H217 8095  24.867  14.670  14.988
    1STR   H218 8096  24.843  14.793  15.111
    1STR   O219 8097  24.975  14.641  15.163
    1STR   C220 8098  25.097  14.702  15.119
    1STR   H221 8099  25.099  14.707  15.010
    1STR   C222 8100  25.110  14.842  15.180
    1STR   H223 8101  25.103  14.839  15.289
    1STR   H224 8102  25.033  14.910  15.143
    1STR   H225 8103  25.206  14.886  15.154
    1STR   C226 8104  25.212  14.610  15.164
    1STR   H227 8105  25.214  14.603  15.273
    1STR   H228 8106  25.194  14.510  15.126
    1STR   O229 8107  25.335  14.661  15.115
    1STR   C230 8108  25.451  14.587  15.153
    1STR   H231 8109  25.445  14.560  15.258
    1STR   C232 8110  25.463  14.461  15.066
    1STR   H233 8111  25.464  14.487  14.960
    1STR   H234 8112  25.382  14.391  15.083
    1STR   H235 8113  25.556  14.408  15.088
    1STR   C236 8114  25.572  14.680  15.135
    1STR   H237 8115  25.582  14.709  15.030
    1STR   H238 8116  25.556  14.772  15.192
    1STR   O239 8117  25.690  14.614  15.180
    1STR   C240 8118  25.811  14.688  15.166
    1STR   H241 8119  25.814  14.737  15.068
    1STR   C242 8120  25.821  14.793  15.278
    1STR   H243 8121  25.814  14.746  15.376
    1STR   H244 8122  25.744  14.869  15.271
    1STR   H245 8123  25.917  14.845  15.273
    1STR   C246 8124  25.927  14.588  15.172
    1STR   H247 8125  25.929  14.538  15.269
    1STR   H248 8126  25.911  14.511  15.096
    1STR   O249 8127  26.050  14.656  15.149
    1STR   C250 8128  26.167  14.575  15.155
    1STR   H251 8129  26.161  14.507  15.240
    1STR   C252 8130  26.182  14.494  15.025
    1STR   H253 8131  26.183  14.560  14.938
    1STR   H254 8132  26.101  14.422  15.012
    1STR   H255 8133  26.275  14.438  15.025
    1STR   C256 8134  26.287  14.668  15.177
    1STR   H257 8135  26.297  14.736  15.092
    1STR   H258 8136  26.269  14.729  15.265
    1STR   O259 8137  26.406  14.590  15.193
    1STR   C260 8138  26.526  14.665  15.211
    1STR   H261 8139  26.529  14.749  15.141
    1STR   C262 8140  26.534  14.717  15.356
    1STR   H263 8141  26.526  14.635  15.427
    1STR   H264 8142  26.455  14.789  15.378
    1STR   H265 8143  26.629  14.767  15.373
    1STR   C266 8144  26.644  14.572  15.178
    1STR   H267 8145  26.646  14.488  15.247
    1STR   H268 8146  26.631  14.532  15.078
    1STR   O269 8147  26.767  14.645  15.186
    1STR   C270 8148  26.885  14.569  15.160
    1STR   H271 8149  26.880  14.473  15.212
    1STR   C272 8150  26.901  14.548  15.009
    1STR   H273 8151  26.901  14.643  14.956
    1STR   H274 8152  26.821  14.486  14.968
    1STR   H275 8153  26.995  14.497  14.987
    1STR   C276 8154  27.005  14.647  15.219
    1STR   H277 8155  27.014  14.744  15.169
    1STR   H278 8156  26.985  14.667  15.324
    1STR   O279 8157  27.125  14.572  15.203
    1STR   C280 8158  27.244  14.634  15.252
    1STR   H281 8159  27.245  14.739  15.221
    1STR   C282 8160  27.249  14.624  15.405
    1STR   H283 8161  27.241  14.520  15.438
    1STR   H284 8162  27.169  14.680  15.453
    1STR   H285 8163  27.343  14.663  15.443
    1STR   C286 8164  27.364  14.564  15.186
    1STR   H287 8165  27.366  14.459  15.215
    1STR   H288 8166  27.352  14.567  15.078
    1STR   O289 8167  27.486  14.628  15.225
    1STR   C290 8168  27.606  14.571  15.172
    1STR   H291 8169  27.602  14.462  15.180
    1STR   C292 8170  27.622  14.612  15.025
    1STR   H293 8171  27.620  14.720  15.014
    1STR   H294 8172  27.544  14.570  14.962
    1STR   H295 8173  27.717  14.577  14.985
    1STR   C296 8174  27.724  14.621  15.258
    1STR   H297 8175  27.730  14.730  15.252
    1STR   H298 8176  27.705  14.596  15.362
    1STR   O299 8177  27.847  14.562  15.214
    1STR   C300 8178  27.964  14.603  15.286
    1STR   H301 8179  27.961  14.711  15.302
    1STR   C302 8180  27.970  14.530  15.421
    1STR   H303 8181  27.965  14.422  15.407
    1STR   H304 8182  27.889  14.559  15.487
    1STR   H305 8183  28.063  14.552  15.473
    1STR   C306 8184  28.088  14.572  15.199
    1STR   H307 8185  28.098  14.464  15.186
    1STR   H308 8186  28.072  14.614  15.100
    1STR   O309 8187  28.207  14.626  15.259
    1STR    H1R 8188  28.335  14.499  15.159
    1STR    H1S 8189  28.429  14.684  15.011
    1STR    H1T 8190  28.319  14.798  15.087
    1STR    H1U 8191  28.256  14.666  14.989
    1STR    H1V 8192  28.438  14.584  15.374
    1STR    H1W 8193  28.450  14.743  15.303
    1STR    H1X 8194  28.750  14.512  15.134
    1STR    H1Y 8195  28.924  14.467  14.989
    1STR    H1Z 8196  29.141  14.527  14.893
    1STR    H20 8197  29.297  14.858  14.922
    1STR    H21 8198  29.378  14.709  14.975
    1STR    H22 8199  29.283  14.712  14.827
    1STR    H23 8200  29.108  14.991  15.152
    1STR    H27 8201  28.933  14.823  15.233
    1STR    H28 8202  16.392  14.680  14.752
    1STR    H29 8203  16.166  14.597  14.755
    1STR    H2A 8204  15.922  14.658  15.014
    1STR    H2B 8205  15.964  14.562  14.873
    1STR    H2C 8206  15.888  14.720  14.851
    1STR   BCK1 8207  15.902  15.057  30.133
    1STR    O03 8208  15.847  15.152  30.187
    1STR    N04 8209  16.028  15.058  30.084
    1STR    C05 8210  16.118  15.166  30.064
    1STR    C06 8211  16.259  15.149  30.089
    1STR    C07 8212  16.355  15.252  30.064
    1STR    N08 8213  16.494  15.231  30.084
    1STR    C09 8214  16.599  15.316  30.072
    1STR    O0A 8215  16.589  15.436  30.046
    1STR    O0B 8216  16.721  15.256  30.093
    1STR    C0C 8217  16.842  15.335  30.090
    1STR    C0D 8218  16.860  15.407  30.225
    1STR    C0E 8219  16.968  15.250  30.056
    1STR    O0F 8220  17.087  15.332  30.056
    1STR    C0G 8221  17.211  15.265  30.024
    1STR    C0H 8222  17.220  15.246  29.872
    1STR    C0I 8223  17.332  15.348  30.075
    1STR    O0J 8224  17.455  15.279  30.049
    1STR    C0K 8225  28.341  15.253  29.704
    1STR    C0M 8226  28.333  15.284  29.854
    1STR    C0N 8227  28.463  15.160  29.677
    1STR    O0O 8228  28.587  15.227  29.702
    1STR    C0P 8229  28.685  15.175  29.780
    1STR    O0Q 8230  28.679  15.072  29.846
    1STR    N0R 8231  28.791  15.256  29.773
    1STR    C0S 8232  28.918  15.263  29.832
    1STR    C0T 8233  28.992  15.378  29.797
    1STR    C0U 8234  29.116  15.405  29.856
    1STR    C0V 8235  29.172  15.318  29.950
    1STR    C0W 8236  29.298  15.364  30.020
    1STR    C0X 8237  29.107  15.194  29.980
    1STR    N0Y 8238  29.168  15.106  30.072
    1STR   BCK2 8239  29.296  15.063  30.070
    1STR    O10 8240  29.371  15.076  29.974
    1STR    C13 8241  28.977  15.170  29.924
    1STR    C14 8242  16.305  15.374  30.013
    1STR    C15 8243  16.169  15.392  29.986
    1STR    C16 8244  16.076  15.289  30.007
    1STR    C17 8245  15.934  15.315  29.960
    1STR    H1B 8246  16.061  14.967  30.057
    1STR    H1C 8247  16.293  15.055  30.130
    1STR    H1D 8248  16.525  15.139  30.111
    1STR    H1E 8249  16.833  15.410  30.011
    1STR    H1F 8250  16.870  15.337  30.307
    1STR    H1G 8251  16.949  15.471  30.223
    1STR    H1H 8252  16.775  15.472  30.246
    1STR    H1I 8253  16.954  15.204  29.958
    1STR    H1J 8254  16.979  15.169  30.128
    1STR    H1K 8255  17.214  15.168  30.074
    1STR    H1M 8256  17.214  15.341  29.820
    1STR    H1N 8257  17.142  15.181  29.833
    1STR    H1O 8258  17.315  15.200  29.845
    1STR    H1P 8259  17.333  15.446  30.026
    1STR    H1Q 8260  17.320  15.367  30.182
    1STR   C010 8261  17.576  15.347  30.086
    1STR   H011 8262  17.572  15.451  30.054
    1STR   C012 8263  17.594  15.340  30.239
    1STR   H013 8264  17.594  15.237  30.274
    1STR   H014 8265  17.517  15.395  30.292
    1STR   H015 8266  17.690  15.385  30.268
    1STR   C016 8267  17.695  15.279  30.014
    1STR   H017 8268  17.701  15.174  30.043
    1STR   H018 8269  17.676  15.281  29.907
    1STR   O019 8270  17.818  15.346  30.044
    1STR   C020 8271  17.936  15.289  29.986
    1STR   H021 8272  17.934  15.180  29.996
    1STR   C022 8273  17.944  15.327  29.837
    1STR   H023 8274  17.942  15.436  29.824
    1STR   H024 8275  17.862  15.285  29.779
    1STR   H025 8276  18.037  15.291  29.793
    1STR   C026 8277  18.060  15.341  30.062
    1STR   H027 8278  18.066  15.449  30.054
    1STR   H028 8279  18.048  15.317  30.168
    1STR   O029 8280  18.179  15.280  30.010
    1STR   C030 8281  18.302  15.323  30.070
    1STR   H031 8282  18.301  15.432  30.082
    1STR   C032 8283  18.320  15.255  30.207
    1STR   H033 8284  18.316  15.146  30.197
    1STR   H034 8285  18.244  15.285  30.278
    1STR   H035 8286  18.417  15.281  30.250
    1STR   C036 8287  18.417  15.287  29.974
    1STR   H037 8288  18.422  15.179  29.960
    1STR   H038 8289  18.398  15.332  29.877
    1STR   O039 8290  18.541  15.336  30.027
    1STR   C040 8291  18.657  15.305  29.950
    1STR   H041 8292  18.653  15.201  29.916
    1STR   C042 8293  18.666  15.399  29.829
    1STR   H043 8294  18.665  15.504  29.860
    1STR   H044 8295  18.584  15.385  29.759
    1STR   H045 8296  18.758  15.382  29.773
    1STR   C046 8297  18.781  15.320  30.041
    1STR   H047 8298  18.788  15.423  30.076
    1STR   H048 8299  18.768  15.257  30.129
    1STR   O049 8300  18.899  15.282  29.970
    1STR   C050 8301  19.021  15.296  30.042
    1STR   H051 8302  19.022  15.390  30.097
    1STR   C052 8303  19.037  15.178  30.140
    1STR   H053 8304  19.031  15.083  30.088
    1STR   H054 8305  18.961  15.179  30.218
    1STR   H055 8306  19.133  15.183  30.190
    1STR   C056 8307  19.136  15.299  29.940
    1STR   H057 8308  19.139  15.205  29.884
    1STR   H058 8309  19.117  15.379  29.868
    1STR   O059 8310  19.260  15.321  30.008
    1STR   C060 8311  19.375  15.322  29.924
    1STR   H061 8312  19.370  15.241  29.852
    1STR   C062 8313  19.386  15.458  29.852
    1STR   H063 8314  19.387  15.540  29.923
    1STR   H064 8315  19.304  15.474  29.782
    1STR   H065 8316  19.478  15.463  29.794
    1STR   C066 8317  19.498  15.298  30.014
    1STR   H067 8318  19.507  15.378  30.088
    1STR   H068 8319  19.483  15.205  30.070
    1STR   O069 8320  19.615  15.289  29.934
    1STR   C070 8321  19.737  15.270  30.006
    1STR   H071 8322  19.739  15.335  30.094
    1STR   C072 8323  19.750  15.123  30.048
    1STR   H073 8324  19.743  15.056  29.962
    1STR   H074 8325  19.673  15.093  30.119
    1STR   H075 8326  19.847  15.105  30.096
    1STR   C076 8327  19.852  15.312  29.913
    1STR   H077 8328  19.854  15.249  29.825
    1STR   H078 8329  19.835  15.414  29.879
    1STR   O079 8330  19.976  15.304  29.984
    1STR   C080 8331  20.092  15.336  29.908
    1STR   H081 8332  20.086  15.291  29.809
    1STR   C082 8333  20.105  15.489  29.896
    1STR   H083 8334  20.106  15.536  29.994
    1STR   H084 8335  20.024  15.533  29.838
    1STR   H085 8336  20.198  15.516  29.845
    1STR   C086 8337  20.213  15.276  29.981
    1STR   H087 8338  20.223  15.320  30.080
    1STR   H088 8339  20.196  15.169  29.995
    1STR   O089 8340  20.331  15.298  29.903
    1STR   C090 8341  20.451  15.249  29.962
    1STR   H091 8342  20.454  15.274  30.068
    1STR   C092 8343  20.462  15.097  29.942
    1STR   H093 8344  20.455  15.071  29.836
    1STR   H094 8345  20.384  15.043  29.996
    1STR   H095 8346  20.558  15.060  29.978
    1STR   C096 8347  20.568  15.323  29.893
    1STR   H097 8348  20.569  15.300  29.787
    1STR   H098 8349  20.552  15.431  29.903
    1STR   O099 8350  20.691  15.285  29.955
    1STR   C100 8351  20.807  15.344  29.898
    1STR   H101 8352  20.802  15.342  29.789
    1STR   C102 8353  20.823  15.488  29.948
    1STR   H103 8354  20.824  15.493  30.056
    1STR   H104 8355  20.742  15.553  29.912
    1STR   H105 8356  20.916  15.532  29.912
    1STR   C106 8357  20.927  15.257  29.940
    1STR   H107 8358  20.937  15.258  30.049
    1STR   H108 8359  20.908  15.154  29.911
    1STR   O109 8360  21.046  15.306  29.878
    1STR   C110 8361  21.165  15.237  29.912
    1STR   H111 8362  21.168  15.216  30.020
    1STR   C112 8363  21.173  15.105  29.833
    1STR   H113 8364  21.166  15.123  29.726
    1STR   H114 8365  21.095  15.035  29.861
    1STR   H115 8366  21.268  15.055  29.852
    1STR   C116 8367  21.283  15.329  29.879
    1STR   H117 8368  21.285  15.351  29.772
    1STR   H118 8369  21.269  15.424  29.931
    1STR   O119 8370  21.405  15.268  29.920
    1STR   C120 8371  21.523  15.342  29.892
    1STR   H121 8372  21.518  15.384  29.791
    1STR   C122 8373  21.540  15.455  29.995
    1STR   H123 8374  21.541  15.415  30.096
    1STR   H124 8375  21.461  15.529  29.988
    1STR   H125 8376  21.635  15.507  29.979
    1STR   C126 8377  21.641  15.244  29.896
    1STR   H127 8378  21.651  15.201  29.996
    1STR   H128 8379  21.621  15.161  29.827
    1STR   O129 8380  21.761  15.312  29.858
    1STR   C130 8381  21.879  15.232  29.862
    1STR   H131 8382  21.880  15.171  29.952
    1STR   C132 8383  21.886  15.143  29.737
    1STR   H133 8384  21.879  15.203  29.645
    1STR   H134 8385  21.806  15.069  29.734
    1STR   H135 8386  21.980  15.088  29.734
    1STR   C136 8387  21.998  15.329  29.868
    1STR   H137 8388  22.001  15.391  29.779
    1STR   H138 8389  21.985  15.396  29.953
    1STR   O139 8390  22.119  15.254  29.881
    1STR   C140 8391  22.238  15.332  29.885
    1STR   H141 8392  22.234  15.411  29.809
    1STR   C142 8393  22.257  15.393  30.024
    1STR   H143 8394  22.256  15.316  30.102
    1STR   H144 8395  22.179  15.465  30.048
    1STR   H145 8396  22.352  15.446  30.031
    1STR   C146 8397  22.355  15.238  29.849
    1STR   H147 8398  22.363  15.159  29.923
    1STR   H148 8399  22.334  15.190  29.753
    1STR   O149 8400  22.476  15.313  29.841
    1STR   C150 8401  22.593  15.237  29.813
    1STR   H151 8402  22.593  15.145  29.871
    1STR   C152 8403  22.599  15.206  29.662
    1STR   H153 8404  22.594  15.297  29.603
    1STR   H154 8405  22.518  15.140  29.631
    1STR   H155 8406  22.692  15.155  29.638
    1STR   C156 8407  22.714  15.321  29.857
    1STR   H157 8408  22.718  15.414  29.800
    1STR   H158 8409  22.701  15.349  29.962
    1STR   O159 8410  22.833  15.245  29.839
    1STR   C160 8411  22.953  15.313  29.873
    1STR   H161 8412  22.951  15.416  29.836
    1STR   C162 8413  22.972  15.314  30.026
    1STR   H163 8414  22.970  15.213  30.066
    1STR   H164 8415  22.895  15.372  30.077
    1STR   H165 8416  23.068  15.358  30.053
    1STR   C166 8417  23.069  15.240  29.803
    1STR   H167 8418  23.075  15.137  29.840
    1STR   H168 8419  23.047  15.235  29.696
    1STR   O169 8420  23.191  15.310  29.826
    1STR   C170 8421  23.307  15.250  29.770
    1STR   H171 8422  23.305  15.142  29.786
    1STR   C172 8423  23.313  15.280  29.619
    1STR   H173 8424  23.310  15.388  29.601
    1STR   H174 8425  23.231  15.235  29.564
    1STR   H175 8426  23.406  15.242  29.576
    1STR   C176 8427  23.429  15.307  29.844
    1STR   H177 8428  23.434  15.414  29.829
    1STR   H178 8429  23.416  15.290  29.951
    1STR   O179 8430  23.547  15.242  29.797
    1STR   C180 8431  23.668  15.289  29.856
    1STR   H181 8432  23.667  15.398  29.862
    1STR   C182 8433  23.686  15.228  29.996
    1STR   H183 8434  23.682  15.119  29.992
    1STR   H184 8435  23.609  15.262  30.065
    1STR   H185 8436  23.782  15.256  30.038
    1STR   C186 8437  23.783  15.248  29.762
    1STR   H187 8438  23.787  15.139  29.754
    1STR   H188 8439  23.762  15.286  29.662
    1STR   O189 8440  23.906  15.300  29.811
    1STR   C190 8441  24.021  15.266  29.735
    1STR   H191 8442  24.018  15.161  29.706
    1STR   C192 8443  24.029  15.354  29.609
    1STR   H193 8444  24.028  15.460  29.635
    1STR   H194 8445  23.947  15.336  29.540
    1STR   H195 8446  24.121  15.335  29.554
    1STR   C196 8447  24.143  15.287  29.826
    1STR   H197 8448  24.151  15.392  29.855
    1STR   H198 8449  24.130  15.229  29.917
    1STR   O199 8450  24.261  15.245  29.757
    1STR   C200 8451  24.383  15.262  29.829
    1STR   H201 8452  24.384  15.359  29.878
    1STR   C202 8453  24.398  15.150  29.933
    1STR   H203 8454  24.393  15.052  29.886
    1STR   H204 8455  24.322  15.154  30.010
    1STR   H205 8456  24.495  15.157  29.983
    1STR   C206 8457  24.497  15.260  29.726
    1STR   H207 8458  24.500  15.163  29.676
    1STR   H208 8459  24.478  15.335  29.650
    1STR   O209 8460  24.621  15.286  29.792
    1STR   C210 8461  24.736  15.284  29.709
    1STR   H211 8462  24.731  15.198  29.641
    1STR   C212 8463  24.746  15.415  29.629
    1STR   H213 8464  24.746  15.501  29.695
    1STR   H214 8465  24.664  15.426  29.559
    1STR   H215 8466  24.838  15.417  29.571
    1STR   C216 8467  24.858  15.264  29.800
    1STR   H217 8468  24.867  15.348  29.869
    1STR   H218 8469  24.843  15.175  29.861
    1STR   O219 8470  24.976  15.251  29.720
    1STR   C220 8471  25.097  15.236  29.793
    1STR   H221 8472  25.099  15.306  29.877
    1STR   C222 8473  25.110  15.091  29.843
    1STR   H223 8474  25.103  15.020  29.761
    1STR   H224 8475  25.034  15.066  29.916
    1STR   H225 8476  25.207  15.076  29.892
    1STR   C226 8477  25.212  15.273  29.698
    1STR   H227 8478  25.214  15.205  29.613
    1STR   H228 8479  25.195  15.373  29.658
    1STR   O229 8480  25.336  15.269  29.769
    1STR   C230 8481  25.452  15.298  29.691
    1STR   H231 8482  25.446  15.247  29.595
    1STR   C232 8483  25.464  15.450  29.670
    1STR   H233 8484  25.465  15.502  29.766
    1STR   H234 8485  25.382  15.490  29.611
    1STR   H235 8486  25.557  15.474  29.618
    1STR   C236 8487  25.573  15.242  29.767
    1STR   H237 8488  25.583  15.291  29.864
    1STR   H238 8489  25.557  15.136  29.787
    1STR   O239 8490  25.691  15.260  29.689
    1STR   C240 8491  25.812  15.215  29.749
    1STR   H241 8492  25.815  15.245  29.854
    1STR   C242 8493  25.822  15.062  29.738
    1STR   H243 8494  25.815  15.030  29.634
    1STR   H244 8495  25.745  15.011  29.794
    1STR   H245 8496  25.918  15.027  29.776
    1STR   C246 8497  25.929  15.284  29.677
    1STR   H247 8498  25.930  15.256  29.572
    1STR   H248 8499  25.913  15.392  29.681
    1STR   O249 8500  26.052  15.250  29.740
    1STR   C250 8501  26.169  15.306  29.681
    1STR   H251 8502  26.163  15.298  29.572
    1STR   C252 8503  26.183  15.453  29.722
    1STR   H253 8504  26.184  15.463  29.831
    1STR   H254 8505  26.103  15.515  29.683
    1STR   H255 8506  26.277  15.495  29.684
    1STR   C256 8507  26.290  15.223  29.728
    1STR   H257 8508  26.300  15.229  29.836
    1STR   H258 8509  26.272  15.118  29.703
    1STR   O259 8510  26.409  15.269  29.664
    1STR   C260 8511  26.529  15.201  29.701
    1STR   H261 8512  26.532  15.186  29.809
    1STR   C262 8513  26.536  15.065  29.629
    1STR   H263 8514  26.528  15.077  29.521
    1STR   H264 8515  26.457  14.997  29.661
    1STR   H265 8516  26.631  15.016  29.649
    1STR   C266 8517  26.648  15.291  29.662
    1STR   H267 8518  26.649  15.307  29.554
    1STR   H268 8519  26.635  15.388  29.709
    1STR   O269 8520  26.771  15.232  29.705
    1STR   C270 8521  26.890  15.305  29.673
    1STR   H271 8522  26.884  15.342  29.570
    1STR   C272 8523  26.905  15.423  29.770
    1STR   H273 8524  26.904  15.389  29.874
    1STR   H274 8525  26.825  15.497  29.758
    1STR   H275 8526  26.999  15.475  29.753
    1STR   C276 8527  27.010  15.209  29.683
    1STR   H277 8528  27.019  15.171  29.785
    1STR   H278 8529  26.991  15.123  29.618
    1STR   O279 8530  27.131  15.275  29.644
    1STR   C280 8531  27.250  15.196  29.650
    1STR   H281 8532  27.252  15.139  29.743
    1STR   C282 8533  27.254  15.100  29.530
    1STR   H283 8534  27.245  15.155  29.436
    1STR   H284 8535  27.175  15.026  29.533
    1STR   H285 8536  27.348  15.046  29.527
    1STR   C286 8537  27.372  15.291  29.649
    1STR   H287 8538  27.373  15.350  29.557
    1STR   H288 8539  27.361  15.362  29.732
    1STR   O289 8540  27.494  15.218  29.663
    1STR   C290 8541  27.615  15.295  29.665
    1STR   H291 8542  27.612  15.370  29.585
    1STR   C292 8543  27.629  15.365  29.801
    1STR   H293 8544  27.626  15.293  29.883
    1STR   H294 8545  27.551  15.439  29.818
    1STR   H295 8546  27.725  15.418  29.808
    1STR   C296 8547  27.735  15.201  29.638
    1STR   H297 8548  27.739  15.125  29.715
    1STR   H298 8549  27.717  15.150  29.543
    1STR   O299 8550  27.859  15.274  29.633
    1STR   C300 8551  27.977  15.195  29.610
    1STR   H301 8552  27.972  15.104  29.671
    1STR   C302 8553  27.985  15.158  29.461
    1STR   H303 8554  27.980  15.247  29.398
    1STR   H304 8555  27.904  15.092  29.431
    1STR   H305 8556  28.078  15.107  29.439
    1STR   C306 8557  28.102  15.274  29.656
    1STR   H307 8558  28.117  15.360  29.590
    1STR   H308 8559  28.081  15.314  29.755
    1STR   O309 8560  28.220  15.191  29.659
    1STR    H1R 8561  28.356  15.346  29.648
    1STR    H1S 8562  28.428  15.324  29.891
    1STR    H1T 8563  28.311  15.194  29.911
    1STR    H1U 8564  28.257  15.359  29.878
    1STR    H1V 8565  28.462  15.130  29.572
    1STR    H1W 8566  28.454  15.068  29.735
    1STR    H1X 8567  28.769  15.330  29.709
    1STR    H1Y 8568  28.952  15.449  29.726
    1STR    H1Z 8569  29.167  15.496  29.829
    1STR    H20 8570  29.301  15.329  30.124
    1STR    H21 8571  29.387  15.327  29.969
    1STR    H22 8572  29.305  15.473  30.023
    1STR    H23 8573  29.112  15.073  30.149
    1STR    H27 8574  28.923  15.081  29.949
    1STR    H28 8575  16.369  15.458  29.991
    1STR    H29 8576  16.137  15.487  29.945
    1STR    H2A 8577  15.888  15.224  29.923
    1STR    H2B 8578  15.933  15.387  29.878
    1STR    H2C 8579  15.874  15.355  30.041
    1STR   BCK1 8580  15.889  14.911  45.203
    1STR    O03 8581  15.876  14.791  45.182
    1STR    N04 8582  16.006  14.970  45.238
    1STR    C05 8583  16.115  14.909  45.303
    1STR    C06 8584  16.250  14.917  45.255
    1STR    C07 8585  16.361  14.865  45.330
    1STR    N08 8586  16.495  14.877  45.286
    1STR    C09 8587  16.609  14.822  45.335
    1STR    O0A 8588  16.611  14.741  45.428
    1STR    O0B 8589  16.723  14.864  45.273
    1STR    C0C 8590  16.851  14.810  45.316
    1STR    C0D 8591  16.870  14.669  45.257
    1STR    C0E 8592  16.973  14.900  45.281
    1STR    O0F 8593  17.093  14.842  45.333
    1STR    C0G 8594  17.216  14.913  45.312
    1STR    C0H 8595  17.225  15.030  45.411
    1STR    C0I 8596  17.336  14.818  45.330
    1STR    O0J 8597  17.459  14.886  45.302
    1STR    C0K 8598  28.334  15.149  45.566
    1STR    C0M 8599  28.339  15.029  45.470
    1STR    C0N 8600  28.455  15.243  45.542
    1STR    O0O 8601  28.575  15.186  45.594
    1STR    C0P 8602  28.683  15.162  45.516
    1STR    O0Q 8603  28.692  15.186  45.396
    1STR    N0R 8604  28.777  15.103  45.591
    1STR    C0S 8605  28.898  15.042  45.557
    1STR    C0T 8606  28.938  14.935  45.639
    1STR    C0U 8607  29.051  14.858  45.607
    1STR    C0V 8608  29.129  14.889  45.494
    1STR    C0W 8609  29.234  14.787  45.453
    1STR    C0X 8610  29.101  15.006  45.419
    1STR    N0Y 8611  29.179  15.047  45.310
    1STR   BCK2 8612  29.312  15.062  45.292
    1STR    O10 8613  29.354  15.095  45.182
    1STR    C13 8614  28.981  15.078  45.448
    1STR    C14 8615  16.330  14.807  45.456
    1STR    C15 8616  16.199  14.800  45.505
    1STR    C16 8617  16.092  14.853  45.431
    1STR    C17 8618  15.955  14.855  45.496
    1STR    H1B 8619  16.006  15.070  45.236
    1STR    H1C 8620  16.268  14.963  45.159
    1STR    H1D 8621  16.514  14.934  45.205
    1STR    H1E 8622  16.850  14.802  45.425
    1STR    H1F 8623  16.874  14.670  45.148
    1STR    H1G 8624  16.963  14.624  45.293
    1STR    H1H 8625  16.790  14.602  45.287
    1STR    H1I 8626  16.957  14.999  45.324
    1STR    H1J 8627  16.981  14.913  45.173
    1STR    H1K 8628  17.219  14.951  45.209
    1STR    H1M 8629  17.219  14.995  45.514
    1STR    H1N 8630  17.146  15.104  45.396
    1STR    H1O 8631  17.320  15.083  45.400
    1STR    H1P 8632  17.337  14.779  45.432
    1STR    H1Q 8633  17.325  14.732  45.264
    1STR   C010 8634  17.580  14.810  45.321
    1STR   H011 8635  17.575  14.756  45.416
    1STR   C012 8636  17.599  14.711  45.205
    1STR   H013 8637  17.599  14.763  45.109
    1STR   H014 8638  17.521  14.635  45.202
    1STR   H015 8639  17.694  14.659  45.214
    1STR   C016 8640  17.699  14.909  45.329
    1STR   H017 8641  17.706  14.966  45.237
    1STR   H018 8642  17.680  14.980  45.409
    1STR   O019 8643  17.821  14.839  45.353
    1STR   C020 8644  17.939  14.921  45.358
    1STR   H021 8645  17.937  14.994  45.278
    1STR   C022 8646  17.947  14.992  45.494
    1STR   H023 8647  17.945  14.921  45.577
    1STR   H024 8648  17.866  15.063  45.508
    1STR   H025 8649  18.040  15.049  45.502
    1STR   C026 8650  18.063  14.830  45.337
    1STR   H027 8651  18.069  14.756  45.416
    1STR   H028 8652  18.051  14.776  45.243
    1STR   O029 8653  18.181  14.910  45.334
    1STR   C030 8654  18.304  14.838  45.318
    1STR   H031 8655  18.303  14.749  45.382
    1STR   C032 8656  18.322  14.796  45.171
    1STR   H033 8657  18.318  14.883  45.105
    1STR   H034 8658  18.246  14.725  45.139
    1STR   H035 8659  18.419  14.748  45.157
    1STR   C036 8660  18.419  14.929  45.365
    1STR   H037 8661  18.424  15.018  45.302
    1STR   H038 8662  18.399  14.962  45.467
    1STR   O039 8663  18.543  14.858  45.359
    1STR   C040 8664  18.659  14.932  45.395
    1STR   H041 8665  18.655  15.032  45.350
    1STR   C042 8666  18.667  14.944  45.548
    1STR   H043 8667  18.667  14.846  45.596
    1STR   H044 8668  18.585  15.002  45.590
    1STR   H045 8669  18.760  14.994  45.578
    1STR   C046 8670  18.782  14.860  45.338
    1STR   H047 8671  18.790  14.760  45.382
    1STR   H048 8672  18.769  14.846  45.231
    1STR   O049 8673  18.900  14.936  45.365
    1STR   C050 8674  19.022  14.877  45.320
    1STR   H051 8675  19.023  14.770  45.344
    1STR   C052 8676  19.038  14.898  45.169
    1STR   H053 8677  19.032  15.003  45.143
    1STR   H054 8678  18.961  14.845  45.112
    1STR   H055 8679  19.134  14.861  45.135
    1STR   C056 8680  19.137  14.943  45.398
    1STR   H057 8681  19.140  15.050  45.376
    1STR   H058 8682  19.118  14.933  45.505
    1STR   O059 8683  19.260  14.881  45.363
    1STR   C060 8684  19.376  14.937  45.426
    1STR   H061 8685  19.371  15.046  45.425
    1STR   C062 8686  19.387  14.886  45.570
    1STR   H063 8687  19.387  14.777  45.574
    1STR   H064 8688  19.305  14.921  45.633
    1STR   H065 8689  19.479  14.921  45.617
    1STR   C066 8690  19.498  14.894  45.343
    1STR   H067 8691  19.508  14.786  45.343
    1STR   H068 8692  19.483  14.925  45.239
    1STR   O069 8693  19.616  14.955  45.396
    1STR   C070 8694  19.737  14.921  45.330
    1STR   H071 8695  19.740  14.813  45.309
    1STR   C072 8696  19.750  15.000  45.199
    1STR   H073 8697  19.744  15.108  45.218
    1STR   H074 8698  19.674  14.974  45.127
    1STR   H075 8699  19.847  14.981  45.152
    1STR   C076 8700  19.853  14.952  45.427
    1STR   H077 8701  19.854  15.059  45.449
    1STR   H078 8702  19.835  14.900  45.521
    1STR   O079 8703  19.976  14.910  45.369
    1STR   C080 8704  20.092  14.938  45.447
    1STR   H081 8705  20.086  15.038  45.490
    1STR   C082 8706  20.105  14.833  45.559
    1STR   H083 8707  20.106  14.732  45.519
    1STR   H084 8708  20.024  14.840  45.631
    1STR   H085 8709  20.198  14.848  45.615
    1STR   C086 8710  20.213  14.934  45.353
    1STR   H087 8711  20.223  14.834  45.309
    1STR   H088 8712  20.196  15.003  45.270
    1STR   O089 8713  20.331  14.970  45.424
    1STR   C090 8714  20.451  14.966  45.349
    1STR   H091 8715  20.454  14.876  45.287
    1STR   C092 8716  20.462  15.091  45.261
    1STR   H093 8717  20.455  15.182  45.321
    1STR   H094 8718  20.385  15.095  45.185
    1STR   H095 8719  20.558  15.094  45.209
    1STR   C096 8720  20.568  14.958  45.449
    1STR   H097 8721  20.569  15.047  45.512
    1STR   H098 8722  20.552  14.872  45.515
    1STR   O099 8723  20.691  14.944  45.378
    1STR   C100 8724  20.808  14.939  45.459
    1STR   H101 8725  20.802  15.014  45.538
    1STR   C102 8726  20.823  14.799  45.521
    1STR   H103 8727  20.824  14.722  45.443
    1STR   H104 8728  20.742  14.775  45.590
    1STR   H105 8729  20.916  14.791  45.576
    1STR   C106 8730  20.927  14.975  45.370
    1STR   H107 8731  20.937  14.901  45.290
    1STR   H108 8732  20.908  15.071  45.322
    1STR   O109 8733  21.046  14.980  45.449
    1STR   C110 8734  21.165  15.009  45.377
    1STR   H111 8735  21.168  14.951  45.284
    1STR   C112 8736  21.174  15.159  45.346
    1STR   H113 8737  21.166  15.218  45.437
    1STR   H114 8738  21.095  15.192  45.279
    1STR   H115 8739  21.268  15.184  45.298
    1STR   C116 8740  21.283  14.963  45.464
    1STR   H117 8741  21.285  15.019  45.557
    1STR   H118 8742  21.269  14.858  45.490
    1STR   O119 8743  21.405  14.980  45.392
    1STR   C120 8744  21.523  14.945  45.463
    1STR   H121 8745  21.518  14.982  45.566
    1STR   C122 8746  21.540  14.792  45.463
    1STR   H123 8747  21.541  14.752  45.361
    1STR   H124 8748  21.461  14.741  45.518
    1STR   H125 8749  21.635  14.764  45.510
    1STR   C126 8750  21.641  15.014  45.394
    1STR   H127 8751  21.651  14.979  45.291
    1STR   H128 8752  21.621  15.121  45.389
    1STR   O129 8753  21.761  14.990  45.467
    1STR   C130 8754  21.879  15.046  45.411
    1STR   H131 8755  21.880  15.031  45.303
    1STR   C132 8756  21.886  15.196  45.443
    1STR   H133 8757  21.880  15.214  45.551
    1STR   H134 8758  21.806  15.252  45.395
    1STR   H135 8759  21.980  15.239  45.408
    1STR   C136 8760  21.998  14.970  45.471
    1STR   H137 8761  22.001  14.985  45.579
    1STR   H138 8762  21.985  14.863  45.454
    1STR   O139 8763  22.119  15.017  45.411
    1STR   C140 8764  22.238  14.957  45.461
    1STR   H141 8765  22.234  14.950  45.570
    1STR   C142 8766  22.257  14.817  45.400
    1STR   H143 8767  22.256  14.822  45.291
    1STR   H144 8768  22.179  14.748  45.431
    1STR   H145 8769  22.352  14.774  45.431
    1STR   C146 8770  22.355  15.050  45.424
    1STR   H147 8771  22.363  15.059  45.316
    1STR   H148 8772  22.334  15.150  45.463
    1STR   O149 8773  22.476  15.000  45.481
    1STR   C150 8774  22.593  15.075  45.450
    1STR   H151 8775  22.593  15.104  45.345
    1STR   C152 8776  22.599  15.200  45.540
    1STR   H153 8777  22.594  15.173  45.645
    1STR   H154 8778  22.518  15.270  45.519
    1STR   H155 8779  22.692  15.254  45.523
    1STR   C156 8780  22.713  14.983  45.474
    1STR   H157 8781  22.718  14.953  45.579
    1STR   H158 8782  22.701  14.892  45.416
    1STR   O159 8783  22.833  15.051  45.436
    1STR   C160 8784  22.953  14.978  45.457
    1STR   H161 8785  22.951  14.928  45.554
    1STR   C162 8786  22.972  14.874  45.345
    1STR   H163 8787  22.970  14.922  45.247
    1STR   H164 8788  22.895  14.798  45.346
    1STR   H165 8789  23.068  14.824  45.355
    1STR   C166 8790  23.069  15.080  45.459
    1STR   H167 8791  23.075  15.130  45.363
    1STR   H168 8792  23.047  15.156  45.534
    1STR   O169 8793  23.191  15.012  45.489
    1STR   C170 8794  23.307  15.095  45.490
    1STR   H171 8795  23.305  15.164  45.406
    1STR   C172 8796  23.313  15.174  45.622
    1STR   H173 8797  23.310  15.107  45.708
    1STR   H174 8798  23.231  15.245  45.632
    1STR   H175 8799  23.406  15.231  45.628
    1STR   C176 8800  23.429  15.003  45.474
    1STR   H177 8801  23.434  14.933  45.558
    1STR   H178 8802  23.416  14.943  45.384
    1STR   O179 8803  23.547  15.082  45.465
    1STR   C180 8804  23.668  15.008  45.454
    1STR   H181 8805  23.667  14.923  45.523
    1STR   C182 8806  23.686  14.958  45.309
    1STR   H183 8807  23.682  15.041  45.238
    1STR   H184 8808  23.609  14.886  45.281
    1STR   H185 8809  23.782  14.909  45.297
    1STR   C186 8810  23.783  15.102  45.495
    1STR   H187 8811  23.787  15.187  45.427
    1STR   H188 8812  23.762  15.141  45.595
    1STR   O189 8813  23.906  15.030  45.494
    1STR   C190 8814  24.021  15.106  45.527
    1STR   H191 8815  24.017  15.203  45.477
    1STR   C192 8816  24.029  15.126  45.680
    1STR   H193 8817  24.028  15.031  45.732
    1STR   H194 8818  23.946  15.187  45.718
    1STR   H195 8819  24.121  15.178  45.707
    1STR   C196 8820  24.143  15.030  45.474
    1STR   H197 8821  24.151  14.933  45.524
    1STR   H198 8822  24.130  15.011  45.368
    1STR   O199 8823  24.261  15.107  45.496
    1STR   C200 8824  24.382  15.046  45.455
    1STR   H201 8825  24.383  14.941  45.484
    1STR   C202 8826  24.398  15.059  45.303
    1STR   H203 8827  24.393  15.163  45.271
    1STR   H204 8828  24.322  15.003  45.248
    1STR   H205 8829  24.495  15.020  45.270
    1STR   C206 8830  24.497  15.117  45.529
    1STR   H207 8831  24.500  15.222  45.501
    1STR   H208 8832  24.477  15.113  45.637
    1STR   O209 8833  24.620  15.053  45.498
    1STR   C210 8834  24.736  15.111  45.558
    1STR   H211 8835  24.731  15.220  45.551
    1STR   C212 8836  24.746  15.069  45.706
    1STR   H213 8837  24.746  14.960  45.715
    1STR   H214 8838  24.663  15.108  45.765
    1STR   H215 8839  24.838  15.106  45.750
    1STR   C216 8840  24.858  15.064  45.478
    1STR   H217 8841  24.867  14.955  45.484
    1STR   H218 8842  24.843  15.089  45.373
    1STR   O219 8843  24.975  15.128  45.528
    1STR   C220 8844  25.097  15.089  45.464
    1STR   H221 8845  25.099  14.981  45.449
    1STR   C222 8846  25.110  15.162  45.329
    1STR   H223 8847  25.103  15.270  45.342
    1STR   H224 8848  25.033  15.132  45.258
    1STR   H225 8849  25.206  15.140  45.283
    1STR   C226 8850  25.212  15.126  45.559
    1STR   H227 8851  25.214  15.234  45.575
    1STR   H228 8852  25.194  15.079  45.656
    1STR   O229 8853  25.335  15.081  45.504
    1STR   C230 8854  25.451  15.113  45.580
    1STR   H231 8855  25.445  15.215  45.617
    1STR   C232 8856  25.463  15.015  45.698
    1STR   H233 8857  25.464  14.911  45.664
    1STR   H234 8858  25.382  15.026  45.770
    1STR   H235 8859  25.556  15.032  45.753
    1STR   C236 8860  25.573  15.103  45.487
    1STR   H237 8861  25.582  15.001  45.449
    1STR   H238 8862  25.556  15.167  45.400
    1STR   O239 8863  25.690  15.142  45.557
    1STR   C240 8864  25.811  15.134  45.482
    1STR   H241 8865  25.814  15.042  45.424
    1STR   C242 8866  25.822  15.255  45.387
    1STR   H243 8867  25.814  15.349  45.442
    1STR   H244 8868  25.744  15.255  45.311
    1STR   H245 8869  25.918  15.255  45.335
    1STR   C246 8870  25.928  15.132  45.582
    1STR   H247 8871  25.929  15.224  45.640
    1STR   H248 8872  25.912  15.050  45.652
    1STR   O249 8873  26.051  15.114  45.512
    1STR   C250 8874  26.168  15.114  45.594
    1STR   H251 8875  26.162  15.193  45.669
    1STR   C252 8876  26.182  14.977  45.663
    1STR   H253 8877  26.183  14.896  45.590
    1STR   H254 8878  26.101  14.958  45.733
    1STR   H255 8879  26.275  14.972  45.719
    1STR   C256 8880  26.288  15.143  45.503
    1STR   H257 8881  26.298  15.065  45.427
    1STR   H258 8882  26.270  15.237  45.450
    1STR   O259 8883  26.407  15.153  45.582
    1STR   C260 8884  26.527  15.178  45.508
    1STR   H261 8885  26.529  15.115  45.419
    1STR   C262 8886  26.534  15.326  45.470
    1STR   H263 8887  26.527  15.390  45.558
    1STR   H264 8888  26.456  15.355  45.400
    1STR   H265 8889  26.629  15.349  45.421
    1STR   C266 8890  26.645  15.137  45.598
    1STR   H267 8891  26.646  15.198  45.688
    1STR   H268 8892  26.632  15.033  45.629
    1STR   O269 8893  26.768  15.151  45.526
    1STR   C270 8894  26.886  15.119  45.599
    1STR   H271 8895  26.881  15.161  45.700
    1STR   C272 8896  26.902  14.966  45.607
    1STR   H273 8897  26.902  14.921  45.508
    1STR   H274 8898  26.822  14.919  45.665
    1STR   H275 8899  26.996  14.939  45.655
    1STR   C276 8900  27.006  15.183  45.527
    1STR   H277 8901  27.015  15.143  45.426
    1STR   H278 8902  26.987  15.290  45.516
    1STR   O279 8903  27.126  15.161  45.601
    1STR   C280 8904  27.245  15.215  45.543
    1STR   H281 8905  27.247  15.194  45.436
    1STR   C282 8906  27.250  15.367  45.567
    1STR   H283 8907  27.242  15.390  45.673
    1STR   H284 8908  27.171  15.420  45.515
    1STR   H285 8909  27.345  15.409  45.531
    1STR   C286 8910  27.366  15.145  45.607
    1STR   H287 8911  27.368  15.164  45.714
    1STR   H288 8912  27.355  15.037  45.594
    1STR   O289 8913  27.488  15.189  45.546
    1STR   C290 8914  27.608  15.131  45.598
    1STR   H291 8915  27.605  15.130  45.707
    1STR   C292 8916  27.624  14.988  45.545
    1STR   H293 8917  27.621  14.986  45.436
    1STR   H294 8918  27.546  14.921  45.581
    1STR   H295 8919  27.720  14.945  45.576
    1STR   C296 8920  27.727  15.220  45.555
    1STR   H297 8921  27.733  15.224  45.447
    1STR   H298 8922  27.708  15.322  45.590
    1STR   O299 8923  27.851  15.171  45.609
    1STR   C300 8924  27.968  15.246  45.574
    1STR   H301 8925  27.965  15.272  45.468
    1STR   C302 8926  27.974  15.374  45.659
    1STR   H303 8927  27.968  15.351  45.766
    1STR   H304 8928  27.893  15.443  45.636
    1STR   H305 8929  28.067  15.428  45.642
    1STR   C306 8930  28.092  15.158  45.598
    1STR   H307 8931  28.102  15.135  45.704
    1STR   H308 8932  28.077  15.063  45.546
    1STR   O309 8933  28.211  15.221  45.548
    1STR    H1R 8934  28.339  15.113  45.670
    1STR    H1S 8935  28.436  14.979  45.475
    1STR    H1T 8936  28.326  15.062  45.366
    1STR    H1U 8937  28.263  14.955  45.491
    1STR    H1V 8938  28.438  15.337  45.595
    1STR    H1W 8939  28.463  15.269  45.437
    1STR    H1X 8940  28.747  15.095  45.686
    1STR    H1Y 8941  28.879  14.906  45.725
    1STR    H1Z 8942  29.076  14.772  45.667
    1STR    H20 8943  29.262  14.798  45.348
    1STR    H21 8944  29.323  14.796  45.515
    1STR    H22 8945  29.195  14.686  45.464
    1STR    H23 8946  29.129  15.078  45.229
    1STR    H27 8947  28.953  15.163  45.387
    1STR    H28 8948  16.406  14.767  45.521
    1STR    H29 8949  16.183  14.757  45.602
    1STR    H2A 8950  15.909  14.953  45.486
    1STR    H2B 8951  15.961  14.833  45.603
    1STR    H2C 8952  15.890  14.781  45.449
    1STR   BCK1 8953  15.906  30.005  60.135
    1STR    O03 8954  15.852  30.100  60.079
    1STR    N04 8955  16.035  29.969  60.117
    1STR    C05 8956  16.124  30.004  60.014
    1STR    C06 8957  16.262  30.031  60.041
    1STR    C07 8958  16.358  30.055  59.937
    1STR    N08 8959  16.496  30.075  59.965
    1STR    C09 8960  16.602  30.070  59.882
    1STR    O0A 8961  16.596  30.043  59.763
    1STR    O0B 8962  16.721  30.098  59.945
    1STR    C0C 8963  16.843  30.108  59.868
    1STR    C0D 8964  16.855  30.250  59.809
    1STR    C0E 8965  16.970  30.071  59.950
    1STR    O0F 8966  17.088  30.081  59.869
    1STR    C0G 8967  17.212  30.043  59.932
    1STR    C0H 8968  17.222  29.890  59.938
    1STR    C0I 8969  17.332  30.102  59.853
    1STR    O0J 8970  17.456  30.071  59.920
    1STR    C0K 8971  28.336  29.705  59.912
    1STR    C0M 8972  28.336  29.858  59.900
    1STR    C0N 8973  28.454  29.658  60.000
    1STR    O0O 8974  28.579  29.684  59.936
    1STR    C0P 8975  28.685  29.739  60.002
    1STR    O0Q 8976  28.685  29.775  60.119
    1STR    N0R 8977  28.787  29.749  59.917
    1STR    C0S 8978  28.914  29.807  59.926
    1STR    C0T 8979  28.976  29.834  59.802
    1STR    C0U 8980  29.099  29.901  59.796
    1STR    C0V 8981  29.166  29.939  59.913
    1STR    C0W 8982  29.289  30.026  59.896
    1STR    C0X 8983  29.114  29.901  60.040
    1STR    N0Y 8984  29.186  29.927  60.159
    1STR   BCK2 8985  29.317  29.905   0.022
    1STR    O10 8986  29.392  29.849  60.103
    1STR    C13 8987  28.985  29.840  60.045
    1STR    C14 8988  16.309  30.057  59.805
    1STR    C15 8989  16.175  30.028  59.776
    1STR    C16 8990  16.083  29.999  59.878
    1STR    C17 8991  15.944  29.954  59.835
    1STR    H1B 8992  16.068  29.903   0.025
    1STR    H1C 8993  16.296  30.032  60.144
    1STR    H1D 8994  16.523  30.095  60.060
    1STR    H1E 8995  16.839  30.037  59.785
    1STR    H1F 8996  16.862  30.325  59.888
    1STR    H1G 8997  16.944  30.259  59.747
    1STR    H1H 8998  16.769  30.274  59.746
    1STR    H1I 8999  16.958  29.970  59.988
    1STR    H1J 9000  16.978  30.137  60.036
    1STR    H1K 9001  17.216  30.084  60.033
    1STR    H1M 9002  17.215  29.847  59.838
    1STR    H1N 9003  17.144  29.845  59.999
    1STR    H1O 9004  17.318  29.859  59.980
    1STR    H1P 9005  17.333  30.062  59.751
    1STR    H1Q 9006  17.320  30.210  59.845
    1STR   C010 9007  17.576  30.114  59.855
    1STR   H011 9008  17.572  30.090  59.749
    1STR   C012 9009  17.595  30.265  59.874
    1STR   H013 9010  17.595  30.291  59.980
    1STR   H014 9011  17.517  30.323  59.825
    1STR   H015 9012  17.690  30.297  59.832
    1STR   C016 9013  17.695  30.036  59.916
    1STR   H017 9014  17.702  30.056  60.023
    1STR   H018 9015  17.677  29.929  59.905
    1STR   O019 9016  17.819  30.071  59.852
    1STR   C020 9017  17.936  30.008  59.903
    1STR   H021 9018  17.934  30.008  60.013
    1STR   C022 9019  17.944  29.863  59.852
    1STR   H023 9020  17.942  29.860  59.743
    1STR   H024 9021  17.863  29.801  59.889
    1STR   H025 9022  18.037  29.816  59.884
    1STR   C026 9023  18.060  30.089  59.859
    1STR   H027 9024  18.066  30.090  59.750
    1STR   H028 9025  18.049  30.192  59.892
    1STR   O029 9026  18.179  30.032  59.914
    1STR   C030 9027  18.302  30.095  59.877
    1STR   H031 9028  18.301  30.117  59.770
    1STR   C032 9029  18.320  30.225  59.957
    1STR   H033 9030  18.316  30.206  60.065
    1STR   H034 9031  18.244  30.299  59.934
    1STR   H035 9032  18.417  30.270  59.935
    1STR   C036 9033  18.417  29.996  59.904
    1STR   H037 9034  18.422  29.973  60.011
    1STR   H038 9035  18.398  29.903  59.851
    1STR   O039 9036  18.541  30.053  59.861
    1STR   C040 9037  18.657  29.973  59.885
    1STR   H041 9038  18.654  29.931  59.985
    1STR   C042 9039  18.666  29.861  59.780
    1STR   H043 9040  18.665  29.902  59.679
    1STR   H044 9041  18.584  29.790  59.788
    1STR   H045 9042  18.759  29.805  59.792
    1STR   C046 9043  18.781  30.066  59.878
    1STR   H047 9044  18.789  30.110  59.778
    1STR   H048 9045  18.768  30.148  59.948
    1STR   O049 9046  18.899  29.991  59.909
    1STR   C050 9047  19.021  30.065  59.902
    1STR   H051 9048  19.022  30.128  59.813
    1STR   C052 9049  19.037  30.152  60.028
    1STR   H053 9050  19.031  30.092  60.118
    1STR   H054 9051  18.961  30.229  60.034
    1STR   H055 9052  19.134  30.202  60.028
    1STR   C056 9053  19.136  29.963  59.890
    1STR   H057 9054  19.139  29.899  59.978
    1STR   H058 9055  19.117  29.899  59.804
    1STR   O059 9056  19.260  30.033  59.873
    1STR   C060 9057  19.375  29.950  59.865
    1STR   H061 9058  19.370  29.870  59.940
    1STR   C062 9059  19.386  29.889  59.724
    1STR   H063 9060  19.387  29.967  59.648
    1STR   H064 9061  19.304  29.821  59.702
    1STR   H065 9062  19.479  29.832  59.714
    1STR   C066 9063  19.498  30.037  59.898
    1STR   H067 9064  19.507  30.117  59.824
    1STR   H068 9065  19.483  30.084  59.995
    1STR   O069 9066  19.615  29.956  59.899
    1STR   C070 9067  19.737  30.026  59.924
    1STR   H071 9068  19.739  30.120  59.868
    1STR   C072 9069  19.750  30.056  60.075
    1STR   H073 9070  19.743  29.964  60.133
    1STR   H074 9071  19.673  30.124  60.110
    1STR   H075 9072  19.847  30.102  60.096
    1STR   C076 9073  19.852  29.938  59.874
    1STR   H077 9074  19.854  29.844  59.930
    1STR   H078 9075  19.835  29.912  59.770
    1STR   O079 9076  19.976  30.008  59.889
    1STR   C080 9077  20.092  29.935  59.850
    1STR   H081 9078  20.086  29.832  59.886
    1STR   C082 9079  20.105  29.935  59.697
    1STR   H083 9080  20.106  30.037  59.658
    1STR   H084 9081  20.023  29.882  59.648
    1STR   H085 9082  20.198  29.887  59.666
    1STR   C086 9083  20.213  30.001  59.917
    1STR   H087 9084  20.223  30.104  59.881
    1STR   H088 9085  20.196  30.006  60.024
    1STR   O089 9086  20.331  29.926  59.888
    1STR   C090 9087  20.451  29.980  59.941
    1STR   H091 9088  20.454  30.088  59.926
    1STR   C092 9089  20.462  29.947  60.091
    1STR   H093 9090  20.455  29.840  60.108
    1STR   H094 9091  20.384  29.996  60.150
    1STR   H095 9092  20.558  29.980  60.131
    1STR   C096 9093  20.568  29.919  59.862
    1STR   H097 9094  20.569  29.810  59.875
    1STR   H098 9095  20.552  29.937  59.756
    1STR   O099 9096  20.691  29.977  59.905
    1STR   C100 9097  20.807  29.925  59.842
    1STR   H101 9098  20.802  29.817  59.834
    1STR   C102 9099  20.823  29.987  59.702
    1STR   H103 9100  20.824  30.096  59.707
    1STR   H104 9101  20.742  29.958  59.635
    1STR   H105 9102  20.916  29.956  59.656
    1STR   C106 9103  20.927  29.960  59.932
    1STR   H107 9104  20.937  30.068  59.940
    1STR   H108 9105  20.908  29.921  60.032
    1STR   O109 9106  21.046  29.902  59.877
    1STR   C110 9107  21.165  29.930  59.950
    1STR   H111 9108  21.168  30.035  59.979
    1STR   C112 9109  21.174  29.840  60.074
    1STR   H113 9110  21.167  29.734  60.046
    1STR   H114 9111  21.095  29.861  60.146
    1STR   H115 9112  21.269  29.854  60.125
    1STR   C116 9113  21.283  29.905  59.854
    1STR   H117 9114  21.285  29.801  59.823
    1STR   H118 9115  21.269  29.965  59.764
    1STR   O119 9116  21.405  29.941  59.919
    1STR   C120 9117  21.523  29.919  59.842
    1STR   H121 9118  21.518  29.822  59.792
    1STR   C122 9119  21.540  30.031  59.739
    1STR   H123 9120  21.541  30.129  59.787
    1STR   H124 9121  21.461  30.031  59.664
    1STR   H125 9122  21.635  30.020  59.686
    1STR   C126 9123  21.641  29.914  59.941
    1STR   H127 9124  21.651  30.010  59.992
    1STR   H128 9125  21.621  29.839  60.017
    1STR   O129 9126  21.761  29.883  59.870
    1STR   C130 9127  21.879  29.879  59.949
    1STR   H131 9128  21.880  29.964  60.018
    1STR   C132 9129  21.886  29.747  60.027
    1STR   H133 9130  21.879  29.661  59.960
    1STR   H134 9131  21.805  29.738  60.100
    1STR   H135 9132  21.980  29.739  60.082
    1STR   C136 9133  21.998  29.894  59.854
    1STR   H137 9134  22.001  29.810  59.784
    1STR   H138 9135  21.985  29.985  59.795
    1STR   O139 9136  22.119  29.901  59.929
    1STR   C140 9137  22.238  29.911  59.852
    1STR   H141 9138  22.234  29.842  59.767
    1STR   C142 9139  22.257  30.055  59.803
    1STR   H143 9140  22.256  30.125  59.886
    1STR   H144 9141  22.179  30.085  59.733
    1STR   H145 9142  22.352  30.066  59.751
    1STR   C146 9143  22.355  29.867  59.942
    1STR   H147 9144  22.363  29.934  60.028
    1STR   H148 9145  22.334  29.767  59.982
    1STR   O149 9146  22.476  29.866  59.867
    1STR   C150 9147  22.593  29.831  59.940
    1STR   H151 9148  22.593  29.881  60.037
    1STR   C152 9149  22.599  29.679  59.959
    1STR   H153 9150  22.594  29.627  59.863
    1STR   H154 9151  22.518  29.641  60.021
    1STR   H155 9152  22.692  29.650  60.007
    1STR   C156 9153  22.713  29.883  59.860
    1STR   H157 9154  22.718  29.834  59.763
    1STR   H158 9155  22.701  29.989  59.842
    1STR   O159 9156  22.833  29.858  59.934
    1STR   C160 9157  22.953  29.898  59.870
    1STR   H161 9158  22.951  29.870  59.764
    1STR   C162 9159  22.972  30.050  59.882
    1STR   H163 9160  22.970  30.081  59.987
    1STR   H164 9161  22.895  30.106  59.829
    1STR   H165 9162  23.068  30.081  59.841
    1STR   C166 9163  23.069  29.822  59.937
    1STR   H167 9164  23.075  29.849  60.042
    1STR   H168 9165  23.047  29.715  59.933
    1STR   O169 9166  23.191  29.851  59.869
    1STR   C170 9167  23.307  29.789  59.924
    1STR   H171 9168  23.305  29.796  60.033
    1STR   C172 9169  23.313  29.642  59.880
    1STR   H173 9170  23.310  29.633  59.771
    1STR   H174 9171  23.231  29.583  59.921
    1STR   H175 9172  23.406  29.596  59.914
    1STR   C176 9173  23.428  29.868  59.874
    1STR   H177 9174  23.434  29.863  59.765
    1STR   H178 9175  23.416  29.974  59.899
    1STR   O179 9176  23.547  29.816  59.934
    1STR   C180 9177  23.668  29.878  59.892
    1STR   H181 9178  23.668  29.894  59.784
    1STR   C182 9179  23.686  30.012  59.965
    1STR   H183 9180  23.682  29.999  60.073
    1STR   H184 9181  23.609  30.085  59.937
    1STR   H185 9182  23.782  30.057  59.941
    1STR   C186 9183  23.783  29.781  59.925
    1STR   H187 9184  23.787  29.764  60.033
    1STR   H188 9185  23.762  29.685  59.878
    1STR   O189 9186  23.906  29.835  59.877
    1STR   C190 9187  24.021  29.756  59.905
    1STR   H191 9188  24.017  29.719  60.007
    1STR   C192 9189  24.029  29.638  59.806
    1STR   H193 9190  24.028  29.674  59.703
    1STR   H194 9191  23.946  29.568  59.818
    1STR   H195 9192  24.121  29.582  59.820
    1STR   C196 9193  24.143  29.848  59.892
    1STR   H197 9194  24.151  29.886  59.790
    1STR   H198 9195  24.130  29.934  59.958
    1STR   O199 9196  24.261  29.776  59.928
    1STR   C200 9197  24.382  29.849  59.917
    1STR   H201 9198  24.384  29.907  59.824
    1STR   C202 9199  24.398  29.943  60.038
    1STR   H203 9200  24.393  29.887  60.132
    1STR   H204 9201  24.322  30.020  60.040
    1STR   H205 9202  24.495  29.993  60.035
    1STR   C206 9203  24.497  29.747  59.910
    1STR   H207 9204  24.500  29.688  60.002
    1STR   H208 9205  24.478  29.677  59.828
    1STR   O209 9206  24.620  29.815  59.889
    1STR   C210 9207  24.736  29.731  59.885
    1STR   H211 9208  24.731  29.656  59.964
    1STR   C212 9209  24.746  29.663  59.748
    1STR   H213 9210  24.746  29.737  59.667
    1STR   H214 9211  24.663  29.594  59.730
    1STR   H215 9212  24.838  29.606  59.740
    1STR   C216 9213  24.858  29.821  59.912
    1STR   H217 9214  24.867  29.896  59.834
    1STR   H218 9215  24.843  29.873  60.007
    1STR   O219 9216  24.975  29.740  59.918
    1STR   C220 9217  25.097  29.811  59.940
    1STR   H221 9218  25.099  29.901  59.878
    1STR   C222 9219  25.110  29.849  60.088
    1STR   H223 9220  25.103  29.760  60.152
    1STR   H224 9221  25.033  29.919  60.120
    1STR   H225 9222  25.206  29.896  60.108
    1STR   C226 9223  25.212  29.720  59.894
    1STR   H227 9224  25.214  29.629  59.955
    1STR   H228 9225  25.194  29.689  59.791
    1STR   O229 9226  25.336  29.791  59.905
    1STR   C230 9227  25.451  29.716  59.869
    1STR   H231 9228  25.446  29.615  59.911
    1STR   C232 9229  25.464  29.708  59.716
    1STR   H233 9230  25.465  29.808  59.672
    1STR   H234 9231  25.382  29.652  59.671
    1STR   H235 9232  25.556  29.658  59.687
    1STR   C236 9233  25.573  29.786  59.932
    1STR   H237 9234  25.583  29.887  59.891
    1STR   H238 9235  25.556  29.797  60.039
    1STR   O239 9236  25.691  29.710  59.907
    1STR   C240 9237  25.811  29.766  59.957
    1STR   H241 9238  25.814  29.873  59.937
    1STR   C242 9239  25.822  29.741  60.109
    1STR   H243 9240  25.814  29.635  60.131
    1STR   H244 9241  25.744  29.793   0.004
    1STR   H245 9242  25.918  29.776  60.147
    1STR   C246 9243  25.928  29.700  59.881
    1STR   H247 9244  25.929  29.593  59.901
    1STR   H248 9245  25.912  29.713  59.774
    1STR   O249 9246  26.051  29.760  59.921
    1STR   C250 9247  26.168  29.706  59.860
    1STR   H251 9248  26.162  29.597  59.859
    1STR   C252 9249  26.182  29.760  59.717
    1STR   H253 9250  26.183  29.869  59.717
    1STR   H254 9251  26.102  29.726  59.652
    1STR   H255 9252  26.276  29.726  59.672
    1STR   C256 9253  26.289  29.745  59.948
    1STR   H257 9254  26.299  29.854  59.951
    1STR   H258 9255  26.271  29.712  60.050
    1STR   O259 9256  26.408  29.685  59.896
    1STR   C260 9257  26.528  29.716  59.967
    1STR   H261 9258  26.530  29.823  59.991
    1STR   C262 9259  26.535  29.633  60.096
    1STR   H263 9260  26.527  29.527  60.074
    1STR   H264 9261  26.456  29.659   0.006
    1STR   H265 9262  26.630  29.649  60.147
    1STR   C266 9263  26.646  29.685  59.873
    1STR   H267 9264  26.647  29.579  59.848
    1STR   H268 9265  26.633  29.740  59.780
    1STR   O269 9266  26.769  29.723  59.936
    1STR   C270 9267  26.887  29.698  59.860
    1STR   H271 9268  26.882  29.599  59.815
    1STR   C272 9269  26.903  29.805  59.751
    1STR   H273 9270  26.903  29.905  59.794
    1STR   H274 9271  26.823  29.800  59.677
    1STR   H275 9272  26.997  29.792  59.697
    1STR   C276 9273  27.007  29.699  59.957
    1STR   H277 9274  27.016  29.797  60.004
    1STR   H278 9275  26.988  29.628  60.037
    1STR   O279 9276  27.128  29.666  59.887
    1STR   C280 9277  27.247  29.665  59.967
    1STR   H281 9278  27.249  29.753  60.031
    1STR   C282 9279  27.252  29.537  60.052
    1STR   H283 9280  27.243  29.448  59.989
    1STR   H284 9281  27.172  29.534  60.126
    1STR   H285 9282  27.346  29.531  60.106
    1STR   C286 9283  27.368  29.673  59.872
    1STR   H287 9284  27.369  29.587  59.805
    1STR   H288 9285  27.356  29.761  59.808
    1STR   O289 9286  27.490  29.681  59.946
    1STR   C290 9287  27.610  29.689  59.868
    1STR   H291 9288  27.606  29.617  59.787
    1STR   C292 9289  27.625  29.831  59.811
    1STR   H293 9290  27.623  29.906  59.891
    1STR   H294 9291  27.547  29.856  59.740
    1STR   H295 9292  27.721  29.842  59.759
    1STR   C296 9293  27.729  29.653  59.960
    1STR   H297 9294  27.735  29.723  60.043
    1STR   H298 9295  27.710  29.554  60.003
    1STR   O299 9296  27.853  29.652  59.887
    1STR   C300 9297  27.970  29.621  59.964
    1STR   H301 9298  27.966  29.674  60.059
    1STR   C302 9299  27.976  29.469  59.987
    1STR   H303 9300  27.971  29.414  59.893
    1STR   H304 9301  27.895  29.434  60.051
    1STR   H305 9302  28.069  29.442  60.037
    1STR   C306 9303  28.095  29.671  59.888
    1STR   H307 9304  28.107  29.615  59.795
    1STR   H308 9305  28.078  29.775  59.860
    1STR   O309 9306  28.212  29.660  59.970
    1STR    H1R 9307  28.347  29.660  59.813
    1STR    H1S 9308  28.432  29.894  59.864
    1STR    H1T 9309  28.318  29.905  59.997
    1STR    H1U 9310  28.260  29.895  59.831
    1STR    H1V 9311  28.448  29.550  60.017
    1STR    H1W 9312  28.449  29.704  60.099
    1STR    H1X 9313  28.761  29.711  59.828
    1STR    H1Y 9314  28.928  29.808  59.709
    1STR    H1Z 9315  29.141  29.925  59.699
    1STR    H20 9316  29.305  30.090  59.983
    1STR    H21 9317  29.378  29.964  59.881
    1STR    H22 9318  29.279  30.091  59.809
    1STR    H23 9319  29.134  29.961   0.078
    1STR    H27 9320  28.941  29.815  60.140
    1STR    H28 9321  16.373  30.078  59.721
    1STR    H29 9322  16.144  30.027  59.673
    1STR    H2A 9323  15.905  29.878  59.902
    1STR    H2B 9324  15.946  29.911  59.735
    1STR    H2C 9325  15.876  30.039  59.835
    1STR   BCK1 9326  15.900  30.051  15.177
    1STR    O03 9327  15.854  30.092  15.283
    1STR    N04 9328  16.022  30.083  15.130
    1STR    C05 9329  16.118  30.175  15.179
    1STR    C06 9330  16.257  30.143  15.177
    1STR    C07 9331  16.358  30.234  15.222
    1STR    N08 9332  16.496  30.202  15.213
    1STR    C09 9333  16.603  30.262  15.270
    1STR    O0A 9334  16.596  30.355  15.351
    1STR    O0B 9335  16.723  30.208  15.231
    1STR    C0C 9336  16.847  30.256  15.288
    1STR    C0D 9337  16.867  30.190  15.426
    1STR    C0E 9338  16.970  30.231  15.197
    1STR    O0F 9339  17.090  30.278  15.259
    1STR    C0G 9340  17.213  30.262  15.186
    1STR    C0H 9341  17.222  30.370  15.077
    1STR    C0I 9342  17.334  30.272  15.282
    1STR    O0J 9343  17.457  30.249  15.211
    1STR    C0K 9344  28.334  30.513  14.985
    1STR    C0M 9345  28.327  30.409  15.098
    1STR    C0N 9346  28.459  30.484  14.897
    1STR    O0O 9347  28.579  30.513  14.969
    1STR    C0P 9348  28.679  30.423  14.984
    1STR    O0Q 9349  28.679  30.306  14.948
    1STR    N0R 9350  28.780  30.485  15.046
    1STR    C0S 9351  28.908  30.451  15.091
    1STR    C0T 9352  28.980  30.558  15.148
    1STR    C0U 9353  29.106  30.539  15.204
    1STR    C0V 9354  29.165  30.411  15.206
    1STR    C0W 9355  29.296  30.397  15.283
    1STR    C0X 9356  29.100  30.301  15.144
    1STR    N0Y 9357  29.160  30.174  15.153
    1STR   BCK2 9358  29.287  30.144  15.122
    1STR    O10 9359  29.356  30.209  15.043
    1STR    C13 9360  28.969  30.322  15.089
    1STR    C14 9361  16.315  30.359  15.270
    1STR    C15 9362  16.179  30.394  15.270
    1STR    C16 9363  16.081  30.306  15.222
    1STR    C17 9364  15.939  30.360  15.212
    1STR    H1B 9365  16.048  30.031  15.047
    1STR    H1C 9366  16.287  30.046  15.141
    1STR    H1D 9367  16.523  30.123  15.158
    1STR    H1E 9368  16.839  30.364  15.302
    1STR    H1F 9369  16.875  30.082  15.418
    1STR    H1G 9370  16.958  30.227  15.474
    1STR    H1H 9371  16.784  30.213  15.493
    1STR    H1I 9372  16.954  30.281  15.101
    1STR    H1J 9373  16.979  30.124  15.175
    1STR    H1K 9374  17.215  30.163  15.140
    1STR    H1M 9375  17.217  30.470  15.120
    1STR    H1N 9376  17.143  30.361  15.002
    1STR    H1O 9377  17.317  30.362  15.023
    1STR    H1P 9378  17.336  30.370  15.329
    1STR    H1Q 9379  17.322  30.199  15.362
    1STR   C010 9380  17.578  30.261  15.287
    1STR   H011 9381  17.574  30.351  15.350
    1STR   C012 9382  17.597  30.137  15.375
    1STR   H013 9383  17.596  30.046  15.315
    1STR   H014 9384  17.519  30.127  15.451
    1STR   H015 9385  17.692  30.141  15.428
    1STR   C016 9386  17.697  30.278  15.189
    1STR   H017 9387  17.703  30.190  15.124
    1STR   H018 9388  17.678  30.364  15.125
    1STR   O019 9389  17.820  30.295  15.261
    1STR   C020 9390  17.937  30.307  15.180
    1STR   H021 9391  17.935  30.232  15.100
    1STR   C022 9392  17.945  30.448  15.120
    1STR   H023 9393  17.943  30.524  15.198
    1STR   H024 9394  17.864  30.468  15.051
    1STR   H025 9395  18.038  30.461  15.064
    1STR   C026 9396  18.061  30.277  15.268
    1STR   H027 9397  18.067  30.350  15.349
    1STR   H028 9398  18.050  30.179  15.314
    1STR   O029 9399  18.180  30.281  15.188
    1STR   C030 9400  18.303  30.260  15.259
    1STR   H031 9401  18.302  30.316  15.352
    1STR   C032 9402  18.321  30.110  15.288
    1STR   H033 9403  18.317  30.052  15.196
    1STR   H034 9404  18.245  30.072  15.355
    1STR   H035 9405  18.418  30.092  15.334
    1STR   C036 9406  18.418  30.314  15.172
    1STR   H037 9407  18.422  30.260  15.078
    1STR   H038 9408  18.399  30.418  15.148
    1STR   O039 9409  18.542  30.302  15.242
    1STR   C040 9410  18.658  30.345  15.171
    1STR   H041 9411  18.654  30.308  15.068
    1STR   C042 9412  18.667  30.498  15.172
    1STR   H043 9413  18.666  30.536  15.274
    1STR   H044 9414  18.585  30.545  15.118
    1STR   H045 9415  18.759  30.532  15.125
    1STR   C046 9416  18.781  30.281  15.239
    1STR   H047 9417  18.789  30.316  15.342
    1STR   H048 9418  18.768  30.173  15.242
    1STR   O049 9419  18.899  30.315  15.165
    1STR   C050 9420  19.021  30.265  15.220
    1STR   H051 9421  19.022  30.280  15.328
    1STR   C052 9422  19.037  30.116  15.186
    1STR   H053 9423  19.032  30.099  15.079
    1STR   H054 9424  18.961  30.055  15.234
    1STR   H055 9425  19.134  30.079  15.221
    1STR   C056 9426  19.136  30.348  15.160
    1STR   H057 9427  19.139  30.336  15.052
    1STR   H058 9428  19.117  30.454  15.180
    1STR   O059 9429  19.260  30.308  15.219
    1STR   C060 9430  19.376  30.375  15.170
    1STR   H061 9431  19.371  30.384  15.061
    1STR   C062 9432  19.386  30.515  15.233
    1STR   H063 9433  19.387  30.509  15.342
    1STR   H064 9434  19.304  30.580  15.203
    1STR   H065 9435  19.479  30.564  15.202
    1STR   C066 9436  19.498  30.289  15.205
    1STR   H067 9437  19.507  30.280  15.313
    1STR   H068 9438  19.483  30.189  15.165
    1STR   O069 9439  19.615  30.348  15.149
    1STR   C070 9440  19.737  30.279  15.178
    1STR   H071 9441  19.739  30.249  15.282
    1STR   C072 9442  19.750  30.156  15.087
    1STR   H073 9443  19.743  30.184  14.981
    1STR   H074 9444  19.674  30.081  15.107
    1STR   H075 9445  19.847  30.107  15.102
    1STR   C076 9446  19.852  30.378  15.155
    1STR   H077 9447  19.854  30.410  15.050
    1STR   H078 9448  19.835  30.467  15.215
    1STR   O079 9449  19.976  30.317  15.191
    1STR   C080 9450  20.092  30.397  15.170
    1STR   H081 9451  20.086  30.448  15.074
    1STR   C082 9452  20.105  30.500  15.284
    1STR   H083 9453  20.106  30.451  15.381
    1STR   H084 9454  20.024  30.572  15.284
    1STR   H085 9455  20.198  30.556  15.274
    1STR   C086 9456  20.213  30.302  15.166
    1STR   H087 9457  20.223  30.251  15.262
    1STR   H088 9458  20.196  30.226  15.090
    1STR   O089 9459  20.331  30.377  15.137
    1STR   C090 9460  20.451  30.302  15.134
    1STR   H091 9461  20.454  30.232  15.218
    1STR   C092 9462  20.462  30.225  15.001
    1STR   H093 9463  20.455  30.292  14.916
    1STR   H094 9464  20.384  30.149  14.991
    1STR   H095 9465  20.558  30.173  14.994
    1STR   C096 9466  20.568  30.401  15.151
    1STR   H097 9467  20.569  30.471  15.068
    1STR   H098 9468  20.552  30.459  15.242
    1STR   O099 9469  20.691  30.329  15.158
    1STR   C100 9470  20.807  30.409  15.170
    1STR   H101 9471  20.802  30.495  15.102
    1STR   C102 9472  20.823  30.458  15.315
    1STR   H103 9473  20.824  30.374  15.385
    1STR   H104 9474  20.742  30.525  15.345
    1STR   H105 9475  20.916  30.513  15.328
    1STR   C106 9476  20.927  30.323  15.127
    1STR   H107 9477  20.937  30.237  15.194
    1STR   H108 9478  20.908  30.284  15.027
    1STR   O109 9479  21.046  30.402  15.128
    1STR   C110 9480  21.165  30.333  15.094
    1STR   H111 9481  21.168  30.235  15.143
    1STR   C112 9482  21.174  30.316  14.941
    1STR   H113 9483  21.166  30.412  14.890
    1STR   H114 9484  21.095  30.251  14.903
    1STR   H115 9485  21.269  30.270  14.913
    1STR   C116 9486  21.283  30.416  15.147
    1STR   H117 9487  21.285  30.514  15.099
    1STR   H118 9488  21.269  30.432  15.254
    1STR   O119 9489  21.405  30.345  15.124
    1STR   C120 9490  21.523  30.414  15.165
    1STR   H121 9491  21.518  30.519  15.137
    1STR   C122 9492  21.540  30.400  15.317
    1STR   H123 9493  21.541  30.295  15.348
    1STR   H124 9494  21.461  30.451  15.372
    1STR   H125 9495  21.635  30.444  15.349
    1STR   C126 9496  21.641  30.350  15.089
    1STR   H127 9497  21.651  30.245  15.116
    1STR   H128 9498  21.621  30.355  14.982
    1STR   O129 9499  21.761  30.422  15.121
    1STR   C130 9500  21.879  30.371  15.060
    1STR   H131 9501  21.880  30.262  15.066
    1STR   C132 9502  21.886  30.416  14.913
    1STR   H133 9503  21.879  30.524  14.905
    1STR   H134 9504  21.806  30.373  14.853
    1STR   H135 9505  21.980  30.384  14.867
    1STR   C136 9506  21.998  30.424  15.140
    1STR   H137 9507  22.001  30.533  15.135
    1STR   H138 9508  21.985  30.397  15.245
    1STR   O139 9509  22.119  30.368  15.089
    1STR   C140 9510  22.238  30.413  15.153
    1STR   H141 9511  22.234  30.521  15.169
    1STR   C142 9512  22.257  30.340  15.286
    1STR   H143 9513  22.256  30.231  15.273
    1STR   H144 9514  22.179  30.365  15.358
    1STR   H145 9515  22.352  30.366  15.332
    1STR   C146 9516  22.355  30.384  15.057
    1STR   H147 9517  22.363  30.277  15.039
    1STR   H148 9518  22.334  30.431  14.960
    1STR   O149 9519  22.476  30.436  15.112
    1STR   C150 9520  22.593  30.412  15.034
    1STR   H151 9521  22.593  30.310  14.996
    1STR   C152 9522  22.599  30.512  14.917
    1STR   H153 9523  22.594  30.615  14.953
    1STR   H154 9524  22.518  30.497  14.846
    1STR   H155 9525  22.692  30.501  14.862
    1STR   C156 9526  22.713  30.428  15.128
    1STR   H157 9527  22.718  30.530  15.167
    1STR   H158 9528  22.701  30.361  15.213
    1STR   O159 9529  22.833  30.396  15.057
    1STR   C160 9530  22.953  30.410  15.131
    1STR   H161 9531  22.951  30.503  15.190
    1STR   C162 9532  22.972  30.289  15.225
    1STR   H163 9533  22.970  30.196  15.169
    1STR   H164 9534  22.895  30.284  15.301
    1STR   H165 9535  23.068  30.295  15.276
    1STR   C166 9536  23.069  30.421  15.030
    1STR   H167 9537  23.075  30.330  14.971
    1STR   H168 9538  23.047  30.503  14.961
    1STR   O169 9539  23.191  30.445  15.100
    1STR   C170 9540  23.307  30.454  15.018
    1STR   H171 9541  23.305  30.375  14.942
    1STR   C172 9542  23.313  30.592  14.951
    1STR   H173 9543  23.310  30.672  15.025
    1STR   H174 9544  23.231  30.608  14.881
    1STR   H175 9545  23.406  30.603  14.894
    1STR   C176 9546  23.428  30.429  15.108
    1STR   H177 9547  23.434  30.507  15.185
    1STR   H178 9548  23.416  30.334  15.160
    1STR   O179 9549  23.547  30.427  15.029
    1STR   C180 9550  23.668  30.410  15.101
    1STR   H181 9551  23.668  30.471  15.191
    1STR   C182 9552  23.686  30.261  15.138
    1STR   H183 9553  23.682  30.198  15.049
    1STR   H184 9554  23.609  30.227  15.207
    1STR   H185 9555  23.782  30.245  15.186
    1STR   C186 9556  23.783  30.459  15.011
    1STR   H187 9557  23.787  30.399  14.920
    1STR   H188 9558  23.762  30.562  14.981
    1STR   O189 9559  23.906  30.452  15.083
    1STR   C190 9560  24.021  30.491  15.009
    1STR   H191 9561  24.017  30.450  14.909
    1STR   C192 9562  24.029  30.645  15.003
    1STR   H193 9563  24.028  30.688  15.103
    1STR   H194 9564  23.947  30.688  14.946
    1STR   H195 9565  24.121  30.676  14.954
    1STR   C196 9566  24.143  30.432  15.081
    1STR   H197 9567  24.151  30.473  15.182
    1STR   H198 9568  24.130  30.324  15.091
    1STR   O199 9569  24.261  30.461  15.006
    1STR   C200 9570  24.382  30.414  15.063
    1STR   H201 9571  24.384  30.434  15.171
    1STR   C202 9572  24.398  30.263  15.037
    1STR   H203 9573  24.393  30.241  14.931
    1STR   H204 9574  24.322  30.205  15.088
    1STR   H205 9575  24.495  30.228  15.074
    1STR   C206 9576  24.497  30.494  14.999
    1STR   H207 9577  24.500  30.476  14.892
    1STR   H208 9578  24.478  30.601  15.013
    1STR   O209 9579  24.620  30.458  15.061
    1STR   C210 9580  24.736  30.523  15.007
    1STR   H211 9581  24.731  30.525  14.898
    1STR   C212 9582  24.746  30.666  15.063
    1STR   H213 9583  24.746  30.666  15.172
    1STR   H214 9584  24.663  30.729  15.029
    1STR   H215 9585  24.838  30.714  15.029
    1STR   C216 9586  24.858  30.439  15.047
    1STR   H217 9587  24.867  30.435  15.156
    1STR   H218 9588  24.843  30.336  15.014
    1STR   O219 9589  24.975  30.494  14.989
    1STR   C220 9590  25.097  30.427  15.021
    1STR   H221 9591  25.099  30.402  15.127
    1STR   C222 9592  25.110  30.299  14.937
    1STR   H223 9593  25.103  30.321  14.830
    1STR   H224 9594  25.033  30.226  14.961
    1STR   H225 9595  25.206  30.251  14.954
    1STR   C226 9596  25.212  30.525  14.993
    1STR   H227 9597  25.214  30.551  14.887
    1STR   H228 9598  25.195  30.617  15.048
    1STR   O229 9599  25.336  30.466  15.032
    1STR   C230 9600  25.452  30.545  15.008
    1STR   H231 9601  25.446  30.591  14.909
    1STR   C232 9602  25.464  30.654  15.116
    1STR   H233 9603  25.465  30.610  15.216
    1STR   H234 9604  25.382  30.726  15.111
    1STR   H235 9605  25.557  30.710  15.104
    1STR   C236 9606  25.573  30.451  15.009
    1STR   H237 9607  25.583  30.404  15.108
    1STR   H238 9608  25.556  30.371  14.937
    1STR   O239 9609  25.691  30.524  14.976
    1STR   C240 9610  25.812  30.448  14.977
    1STR   H241 9611  25.815  30.383  15.065
    1STR   C242 9612  25.822  30.365  14.849
    1STR   H243 9613  25.814  30.428  14.760
    1STR   H244 9614  25.745  30.289  14.843
    1STR   H245 9615  25.918  30.313  14.844
    1STR   C246 9616  25.929  30.548  14.989
    1STR   H247 9617  25.930  30.614  14.902
    1STR   H248 9618  25.913  30.611  15.077
    1STR   O249 9619  26.052  30.477  15.000
    1STR   C250 9620  26.169  30.558  15.008
    1STR   H251 9621  26.163  30.640  14.936
    1STR   C252 9622  26.183  30.615  15.150
    1STR   H253 9623  26.184  30.535  15.224
    1STR   H254 9624  26.102  30.684  15.175
    1STR   H255 9625  26.276  30.670  15.160
    1STR   C256 9626  26.289  30.471  14.970
    1STR   H257 9627  26.299  30.388  15.041
    1STR   H258 9628  26.271  30.426  14.873
    1STR   O259 9629  26.408  30.550  14.968
    1STR   C260 9630  26.528  30.479  14.937
    1STR   H261 9631  26.531  30.384  14.991
    1STR   C262 9632  26.536  30.453  14.785
    1STR   H263 9633  26.527  30.546  14.729
    1STR   H264 9634  26.457  30.386  14.751
    1STR   H265 9635  26.631  30.407  14.759
    1STR   C266 9636  26.647  30.564  14.985
    1STR   H267 9637  26.648  30.660  14.932
    1STR   H268 9638  26.634  30.587  15.091
    1STR   O269 9639  26.770  30.494  14.964
    1STR   C270 9640  26.888  30.564  15.003
    1STR   H271 9641  26.883  30.668  14.969
    1STR   C272 9642  26.904  30.559  15.156
    1STR   H273 9643  26.903  30.456  15.192
    1STR   H274 9644  26.824  30.613  15.207
    1STR   H275 9645  26.998  30.604  15.187
    1STR   C276 9646  27.008  30.498  14.932
    1STR   H277 9647  27.017  30.394  14.964
    1STR   H278 9648  26.989  30.497  14.825
    1STR   O279 9649  27.129  30.569  14.961
    1STR   C280 9650  27.248  30.516  14.902
    1STR   H281 9651  27.250  30.408  14.914
    1STR   C282 9652  27.253  30.553  14.753
    1STR   H283 9653  27.244  30.661  14.739
    1STR   H284 9654  27.173  30.505  14.696
    1STR   H285 9655  27.347  30.521  14.708
    1STR   C286 9656  27.370  30.574  14.978
    1STR   H287 9657  27.371  30.683  14.968
    1STR   H288 9658  27.358  30.552  15.084
    1STR   O289 9659  27.492  30.518  14.928
    1STR   C290 9660  27.612  30.564  14.990
    1STR   H291 9661  27.609  30.673  15.001
    1STR   C292 9662  27.627  30.499  15.128
    1STR   H293 9663  27.624  30.390  15.120
    1STR   H294 9664  27.550  30.530  15.198
    1STR   H295 9665  27.723  30.526  15.173
    1STR   C296 9666  27.731  30.529  14.898
    1STR   H297 9667  27.736  30.421  14.884
    1STR   H298 9668  27.713  30.573  14.799
    1STR   O299 9669  27.855  30.578  14.952
    1STR   C300 9670  27.972  30.548  14.876
    1STR   H301 9671  27.968  30.445  14.841
    1STR   C302 9672  27.981  30.644  14.756
    1STR   H303 9673  27.976  30.748  14.788
    1STR   H304 9674  27.900  30.628  14.685
    1STR   H305 9675  28.075  30.630  14.702
    1STR   C306 9676  28.096  30.561  14.968
    1STR   H307 9677  28.110  30.665  14.997
    1STR   H308 9678  28.075  30.506  15.059
    1STR   O309 9679  28.215  30.509  14.905
    1STR    H1R 9680  28.346  30.613  15.027
    1STR    H1S 9681  28.421  30.405  15.153
    1STR    H1T 9682  28.309  30.310  15.058
    1STR    H1U 9683  28.248  30.431  15.170
    1STR    H1V 9684  28.457  30.549  14.809
    1STR    H1W 9685  28.457  30.382  14.859
    1STR    H1X 9686  28.752  30.581  15.062
    1STR    H1Y 9687  28.938  30.657  15.151
    1STR    H1Z 9688  29.157  30.622  15.249
    1STR    H20 9689  29.294  30.307  15.345
    1STR    H21 9690  29.380  30.389  15.214
    1STR    H22 9691  29.315  30.482  15.348
    1STR    H23 9692  29.107  30.100  15.196
    1STR    H27 9693  28.916  30.239  15.044
    1STR    H28 9694  16.384  30.434  15.305
    1STR    H29 9695  16.151  30.492  15.305
    1STR    H2A 9696  15.886  30.318  15.127
    1STR    H2B 9697  15.940  30.469  15.200
    1STR    H2C 9698  15.884  30.338  15.304
    1STR   BCK1 9699  15.899  29.959  30.115
    1STR    O03 9700  15.876  29.919  30.001
    1STR    N04 9701  16.020  29.953  30.173
    1STR    C05 9702  16.124  29.866  30.136
    1STR    C06 9703  16.258  29.910  30.113
    1STR    C07 9704  16.363  29.817  30.083
    1STR    N08 9705  16.498  29.859  30.066
    1STR    C09 9706  16.611  29.785  30.068
    1STR    O0A 9707  16.614  29.664  30.089
    1STR    O0B 9708  16.725  29.857  30.043
    1STR    C0C 9709  16.851  29.788  30.024
    1STR    C0D 9710  16.863  29.746  29.877
    1STR    C0E 9711  16.974  29.871  30.069
    1STR    O0F 9712  17.093  29.792  30.053
    1STR    C0G 9713  17.216  29.852  30.097
    1STR    C0H 9714  17.226  29.843  30.250
    1STR    C0I 9715  17.336  29.778  30.031
    1STR    O0J 9716  17.459  29.841  30.068
    1STR    C0K 9717  28.328  29.788  30.440
    1STR    C0M 9718  28.334  29.797  30.286
    1STR    C0N 9719  28.448  29.863  30.503
    1STR    O0O 9720  28.569  29.790  30.480
    1STR    C0P 9721  28.678  29.848  30.427
    1STR    O0Q 9722  28.687  29.965  30.390
    1STR    N0R 9723  28.775  29.756  30.416
    1STR    C0S 9724  28.901  29.760  30.357
    1STR    C0T 9725  28.954  29.636  30.316
    1STR    C0U 9726  29.076  29.629  30.246
    1STR    C0V 9727  29.149  29.746  30.217
    1STR    C0W 9728  29.268  29.734  30.123
    1STR    C0X 9729  29.105  29.871  30.269
    1STR    N0Y 9730  29.176  29.989  30.246
    1STR   BCK2 9731  29.304  30.024  30.265
    1STR    O10 9732  29.341  30.135  30.228
    1STR    C13 9733  28.979  29.877  30.335
    1STR    C14 9734  16.327  29.681  30.070
    1STR    C15 9735  16.197  29.637  30.096
    1STR    C16 9736  16.096  29.727  30.133
    1STR    C17 9737  15.961  29.670  30.173
    1STR    H1B 9738  16.031  30.004  30.259
    1STR    H1C 9739  16.280  30.015  30.120
    1STR    H1D 9740  16.516  29.957  30.052
    1STR    H1E 9741  16.852  29.698  30.086
    1STR    H1F 9742  16.866  29.832  29.811
    1STR    H1G 9743  16.955  29.688  29.861
    1STR    H1H 9744  16.780  29.682  29.847
    1STR    H1I 9745  16.961  29.899  30.174
    1STR    H1J 9746  16.981  29.963  30.011
    1STR    H1K 9747  17.220  29.956  30.065
    1STR    H1M 9748  17.219  29.740  30.284
    1STR    H1N 9749  17.148  29.900  30.300
    1STR    H1O 9750  17.321  29.882  30.285
    1STR    H1P 9751  17.337  29.673  30.062
    1STR    H1Q 9752  17.324  29.779  29.923
    1STR   C010 9753  17.580  29.780  30.020
    1STR   H011 9754  17.575  29.672  30.034
    1STR   C012 9755  17.598  29.812  29.871
    1STR   H013 9756  17.598  29.920  29.853
    1STR   H014 9757  17.521  29.768  29.809
    1STR   H015 9758  17.694  29.773  29.835
    1STR   C016 9759  17.698  29.834  30.103
    1STR   H017 9760  17.705  29.942  30.092
    1STR   H018 9761  17.679  29.814  30.208
    1STR   O019 9762  17.821  29.772  30.062
    1STR   C020 9763  17.939  29.818  30.130
    1STR   H021 9764  17.937  29.927  30.139
    1STR   C022 9765  17.947  29.754  30.270
    1STR   H023 9766  17.944  29.645  30.263
    1STR   H024 9767  17.865  29.786  30.334
    1STR   H025 9768  18.039  29.782  30.320
    1STR   C026 9769  18.062  29.780  30.045
    1STR   H027 9770  18.068  29.672  30.035
    1STR   H028 9771  18.051  29.822  29.945
    1STR   O029 9772  18.181  29.831  30.107
    1STR   C030 9773  18.303  29.799  30.040
    1STR   H031 9774  18.303  29.695  30.009
    1STR   C032 9775  18.322  29.891  29.918
    1STR   H033 9776  18.318  29.996  29.946
    1STR   H034 9777  18.246  29.873  29.842
    1STR   H035 9778  18.418  29.873  29.871
    1STR   C036 9779  18.419  29.818  30.141
    1STR   H037 9780  18.423  29.922  30.174
    1STR   H038 9781  18.399  29.758  30.229
    1STR   O039 9782  18.543  29.780  30.081
    1STR   C040 9783  18.659  29.796  30.162
    1STR   H041 9784  18.655  29.892  30.214
    1STR   C042 9785  18.667  29.682  30.265
    1STR   H043 9786  18.666  29.585  30.216
    1STR   H044 9787  18.585  29.684  30.336
    1STR   H045 9788  18.760  29.689  30.322
    1STR   C046 9789  18.782  29.797  30.070
    1STR   H047 9790  18.789  29.702  30.017
    1STR   H048 9791  18.768  29.874  29.994
    1STR   O049 9792  18.900  29.822  30.146
    1STR   C050 9793  19.022  29.822  30.072
    1STR   H051 9794  19.023  29.738  30.002
    1STR   C052 9795  19.037  29.954  29.996
    1STR   H053 9796  19.032  30.039  30.064
    1STR   H054 9797  18.961  29.967  29.920
    1STR   H055 9798  19.134  29.959  29.946
    1STR   C056 9799  19.137  29.801  30.173
    1STR   H057 9800  19.139  29.883  30.244
    1STR   H058 9801  19.118  29.710  30.230
    1STR   O059 9802  19.260  29.790  30.102
    1STR   C060 9803  19.376  29.775  30.184
    1STR   H061 9804  19.371  29.842  30.270
    1STR   C062 9805  19.387  29.629  30.232
    1STR   H063 9806  19.387  29.560  30.147
    1STR   H064 9807  19.304  29.601  30.298
    1STR   H065 9808  19.479  29.614  30.288
    1STR   C066 9809  19.498  29.815  30.100
    1STR   H067 9810  19.507  29.749  30.014
    1STR   H068 9811  19.483  29.916  30.061
    1STR   O069 9812  19.616  29.809  30.180
    1STR   C070 9813  19.737  29.841  30.113
    1STR   H071 9814  19.740  29.792  30.015
    1STR   C072 9815  19.750  29.993  30.097
    1STR   H073 9816  19.744  30.043  30.193
    1STR   H074 9817  19.674  30.034  30.031
    1STR   H075 9818  19.847  30.019  30.053
    1STR   C076 9819  19.852  29.783  30.197
    1STR   H077 9820  19.854  29.830  30.295
    1STR   H078 9821  19.835  29.677  30.213
    1STR   O079 9822  19.976  29.804  30.129
    1STR   C080 9823  20.092  29.758  30.198
    1STR   H081 9824  20.086  29.786  30.303
    1STR   C082 9825  20.105  29.606  30.183
    1STR   H083 9826  20.106  29.576  30.079
    1STR   H084 9827  20.024  29.553  30.232
    1STR   H085 9828  20.198  29.571  30.229
    1STR   C086 9829  20.213  29.831  30.137
    1STR   H087 9830  20.223  29.805  30.032
    1STR   H088 9831  20.196  29.938  30.142
    1STR   O089 9832  20.331  29.796  30.209
    1STR   C090 9833  20.451  29.853  30.160
    1STR   H091 9834  20.454  29.848  30.051
    1STR   C092 9835  20.462  29.999  30.206
    1STR   H093 9836  20.455  30.007  30.315
    1STR   H094 9837  20.385  30.062  30.163
    1STR   H095 9838  20.558  30.042  30.177
    1STR   C096 9839  20.568  29.769  30.215
    1STR   H097 9840  20.569  29.773  30.324
    1STR   H098 9841  20.552  29.665  30.187
    1STR   O099 9842  20.691  29.817  30.161
    1STR   C100 9843  20.807  29.749  30.206
    1STR   H101 9844  20.802  29.732  30.314
    1STR   C102 9845  20.823  29.615  30.132
    1STR   H103 9846  20.824  29.630  30.024
    1STR   H104 9847  20.742  29.546  30.156
    1STR   H105 9848  20.916  29.567  30.160
    1STR   C106 9849  20.927  29.842  30.180
    1STR   H107 9850  20.937  29.860  30.073
    1STR   H108 9851  20.908  29.939  30.227
    1STR   O109 9852  21.046  29.783  30.233
    1STR   C110 9853  21.165  29.857  30.211
    1STR   H111 9854  21.168  29.896  30.109
    1STR   C112 9855  21.174  29.973  30.312
    1STR   H113 9856  21.166  29.937  30.414
    1STR   H114 9857  21.095  30.047  30.297
    1STR   H115 9858  21.269  30.026  30.302
    1STR   C116 9859  21.283  29.760  30.227
    1STR   H117 9860  21.285  29.720  30.329
    1STR   H118 9861  21.269  29.675  30.160
    1STR   O119 9862  21.405  29.828  30.198
    1STR   C120 9863  21.523  29.749  30.213
    1STR   H121 9864  21.518  29.691  30.305
    1STR   C122 9865  21.540  29.657  30.092
    1STR   H123 9866  21.541  29.713  29.998
    1STR   H124 9867  21.461  29.582  30.085
    1STR   H125 9868  21.635  29.602  30.098
    1STR   C126 9869  21.641  29.847  30.226
    1STR   H127 9870  21.651  29.907  30.135
    1STR   H128 9871  21.621  29.916  30.308
    1STR   O129 9872  21.761  29.774  30.251
    1STR   C130 9873  21.879  29.852  30.262
    1STR   H131 9874  21.880  29.929  30.184
    1STR   C132 9875  21.886  29.918  30.400
    1STR   H133 9876  21.879  29.844  30.480
    1STR   H134 9877  21.806  29.990  30.416
    1STR   H135 9878  21.980  29.972  30.413
    1STR   C136 9879  21.998  29.759  30.238
    1STR   H137 9880  22.001  29.682  30.315
    1STR   H138 9881  21.985  29.708  30.143
    1STR   O139 9882  22.119  29.835  30.238
    1STR   C140 9883  22.238  29.759  30.222
    1STR   H141 9884  22.234  29.668  30.282
    1STR   C142 9885  22.257  29.722  30.073
    1STR   H143 9886  22.256  29.811  30.011
    1STR   H144 9887  22.179  29.655  30.037
    1STR   H145 9888  22.352  29.672  30.058
    1STR   C146 9889  22.355  29.845  30.273
    1STR   H147 9890  22.363  29.936  30.214
    1STR   H148 9891  22.334  29.875  30.376
    1STR   O149 9892  22.476  29.769  30.267
    1STR   C150 9893  22.593  29.839  30.309
    1STR   H151 9894  22.593  29.940  30.268
    1STR   C152 9895  22.599  29.844  30.462
    1STR   H153 9896  22.594  29.744  30.505
    1STR   H154 9897  22.518  29.903  30.505
    1STR   H155 9898  22.692  29.890  30.495
    1STR   C156 9899  22.714  29.764  30.250
    1STR   H157 9900  22.718  29.663  30.290
    1STR   H158 9901  22.701  29.756  30.142
    1STR   O159 9902  22.833  29.836  30.281
    1STR   C160 9903  22.953  29.775  30.236
    1STR   H161 9904  22.951  29.667  30.255
    1STR   C162 9905  22.972  29.801  30.085
    1STR   H163 9906  22.970  29.908  30.064
    1STR   H164 9907  22.895  29.753  30.025
    1STR   H165 9908  23.068  29.762  30.051
    1STR   C166 9909  23.069  29.835  30.318
    1STR   H167 9910  23.075  29.942  30.300
    1STR   H168 9911  23.047  29.821  30.424
    1STR   O169 9912  23.191  29.770  30.283
    1STR   C170 9913  23.307  29.819  30.349
    1STR   H171 9914  23.305  29.929  30.352
    1STR   C172 9915  23.313  29.763  30.492
    1STR   H173 9916  23.310  29.654  30.491
    1STR   H174 9917  23.231  29.799  30.554
    1STR   H175 9918  23.406  29.793  30.541
    1STR   C176 9919  23.428  29.776  30.266
    1STR   H177 9920  23.434  29.667  30.262
    1STR   H178 9921  23.416  29.811  30.163
    1STR   O179 9922  23.547  29.832  30.323
    1STR   C180 9923  23.668  29.796  30.258
    1STR   H181 9924  23.667  29.689  30.233
    1STR   C182 9925  23.686  29.880  30.130
    1STR   H183 9926  23.682  29.986  30.153
    1STR   H184 9927  23.609  29.858  30.056
    1STR   H185 9928  23.782  29.859  30.084
    1STR   C186 9929  23.783  29.820  30.357
    1STR   H187 9930  23.787  29.926  30.383
    1STR   H188 9931  23.762  29.765  30.449
    1STR   O189 9932  23.906  29.777  30.300
    1STR   C190 9933  24.021  29.797  30.381
    1STR   H191 9934  24.017  29.896  30.427
    1STR   C192 9935  24.029  29.689  30.489
    1STR   H193 9936  24.028  29.589  30.445
    1STR   H194 9937  23.946  29.695  30.560
    1STR   H195 9938  24.121  29.698  30.546
    1STR   C196 9939  24.143  29.793  30.288
    1STR   H197 9940  24.151  29.695  30.241
    1STR   H198 9941  24.130  29.866  30.208
    1STR   O199 9942  24.261  29.822  30.363
    1STR   C200 9943  24.382  29.818  30.289
    1STR   H201 9944  24.383  29.731  30.223
    1STR   C202 9945  24.398  29.946  30.206
    1STR   H203 9946  24.393  30.035  30.269
    1STR   H204 9947  24.322  29.955  30.129
    1STR   H205 9948  24.495  29.948  30.156
    1STR   C206 9949  24.497  29.802  30.390
    1STR   H207 9950  24.500  29.888  30.457
    1STR   H208 9951  24.477  29.714  30.452
    1STR   O209 9952  24.620  29.787  30.320
    1STR   C210 9953  24.736  29.776  30.403
    1STR   H211 9954  24.731  29.848  30.485
    1STR   C212 9955  24.746  29.633  30.459
    1STR   H213 9956  24.746  29.559  30.379
    1STR   H214 9957  24.663  29.609  30.526
    1STR   H215 9958  24.838  29.620  30.516
    1STR   C216 9959  24.858  29.811  30.317
    1STR   H217 9960  24.867  29.740  30.234
    1STR   H218 9961  24.843  29.909  30.272
    1STR   O219 9962  24.975  29.810  30.398
    1STR   C220 9963  25.097  29.837  30.328
    1STR   H221 9964  25.099  29.783  30.233
    1STR   C222 9965  25.110  29.988  30.304
    1STR   H223 9966  25.103  30.044  30.397
    1STR   H224 9967  25.033  30.026  30.237
    1STR   H225 9968  25.206  30.012  30.259
    1STR   C226 9969  25.212  29.784  30.415
    1STR   H227 9970  25.214  29.837  30.511
    1STR   H228 9971  25.194  29.679  30.437
    1STR   O229 9972  25.335  29.801  30.346
    1STR   C230 9973  25.451  29.759  30.418
    1STR   H231 9974  25.445  29.792  30.522
    1STR   C232 9975  25.463  29.605  30.412
    1STR   H233 9976  25.465  29.570  30.309
    1STR   H234 9977  25.382  29.555  30.464
    1STR   H235 9978  25.556  29.572  30.459
    1STR   C236 9979  25.572  29.827  30.353
    1STR   H237 9980  25.582  29.795  30.249
    1STR   H238 9981  25.556  29.935  30.352
    1STR   O239 9982  25.690  29.796  30.427
    1STR   C240 9983  25.811  29.851  30.375
    1STR   H241 9984  25.814  29.840  30.267
    1STR   C242 9985  25.821  29.999  30.413
    1STR   H243 9986  25.814  30.013  30.521
    1STR   H244 9987  25.744  30.059  30.367
    1STR   H245 9988  25.917  30.040  30.382
    1STR   C246 9989  25.927  29.769  30.434
    1STR   H247 9990  25.929  29.779  30.543
    1STR   H248 9991  25.911  29.664  30.412
    1STR   O249 9992  26.050  29.814  30.378
    1STR   C250 9993  26.167  29.749  30.427
    1STR   H251 9994  26.161  29.738  30.535
    1STR   C252 9995  26.182  29.611  30.360
    1STR   H253 9996  26.183  29.620  30.252
    1STR   H254 9997  26.101  29.543  30.388
    1STR   H255 9998  26.275  29.563  30.390
    1STR   C256 9999  26.287  29.839  30.395
    1STR   H25710000  26.297  29.852  30.287
    1STR   H25810001  26.269  29.938  30.437
    1STR   O25910002  26.406  29.783  30.451
    1STR   C26010003  26.526  29.856  30.426
    1STR   H26110004  26.529  29.889  30.322
    1STR   C26210005  26.534  29.977  30.520
    1STR   H26310006  26.526  29.946  30.624
    1STR   H26410007  26.455  30.050  30.500
    1STR   H26510008  26.629  30.029  30.508
    1STR   C26610009  26.644  29.760  30.448
    1STR   H26710010  26.645  29.725  30.551
    1STR   H26810011  26.630  29.672  30.385
    1STR   O26910012  26.767  29.825  30.415
    1STR   C27010013  26.885  29.748  30.434
    1STR   H27110014  26.879  29.694  30.529
    1STR   C27210015  26.901  29.648  30.318
    1STR   H27310016  26.901  29.700  30.222
    1STR   H27410017  26.821  29.574  30.316
    1STR   H27510018  26.995  29.594  30.326
    1STR   C27610019  27.004  29.845  30.441
    1STR   H27710020  27.013  29.900  30.348
    1STR   H27810021  26.985  29.918  30.520
    1STR   O27910022  27.124  29.772  30.469
    1STR   C28010023  27.243  29.851  30.476
    1STR   H28110024  27.245  29.923  30.394
    1STR   C28210025  27.249  29.925  30.611
    1STR   H28310026  27.241  29.855  30.694
    1STR   H28410027  27.169  29.998  30.622
    1STR   H28510028  27.343  29.978  30.622
    1STR   C28610029  27.364  29.757  30.459
    1STR   H28710030  27.366  29.684  30.540
    1STR   H28810031  27.352  29.702  30.366
    1STR   O28910032  27.486  29.832  30.457
    1STR   C29010033  27.605  29.756  30.443
    1STR   H29110034  27.602  29.668  30.508
    1STR   C29210035  27.622  29.711  30.297
    1STR   H29310036  27.620  29.797  30.229
    1STR   H29410037  27.544  29.642  30.265
    1STR   H29510038  27.717  29.660  30.282
    1STR   C29610039  27.724  29.844  30.488
    1STR   H29710040  27.730  29.932  30.425
    1STR   H29810041  27.704  29.878  30.590
    1STR   O29910042  27.846  29.770  30.483
    1STR   C30010043  27.963  29.843  30.522
    1STR   H30110044  27.961  29.943  30.477
    1STR   C30210045  27.969  29.854  30.675
    1STR   H30310046  27.964  29.756  30.722
    1STR   H30410047  27.888  29.914  30.715
    1STR   H30510048  28.062  29.901  30.707
    1STR   C30610049  28.087  29.770  30.466
    1STR   H30710050  28.096  29.671  30.512
    1STR   H30810051  28.072  29.753  30.359
    1STR   O30910052  28.206  29.847  30.488
    1STR    H1R10053  28.333  29.684  30.472
    1STR    H1S10054  28.430  29.761  30.249
    1STR    H1T10055  28.322  29.900  30.253
    1STR    H1U10056  28.257  29.737  30.238
    1STR    H1V10057  28.434  29.871  30.611
    1STR    H1W10058  28.453  29.965  30.465
    1STR    H1X10059  28.743  29.668  30.453
    1STR    H1Y10060  28.900  29.544  30.333
    1STR    H1Z10061  29.111  29.534  30.210
    1STR    H2010062  29.285  29.826  30.068
    1STR    H2110063  29.358  29.708  30.178
    1STR    H2210064  29.250  29.656  30.049
    1STR    H2310065  29.121  30.067  30.212
    1STR    H2710066  28.941  29.972  30.368
    1STR    H2810067  16.398  29.605  30.042
    1STR    H2910068  16.176  29.531  30.090
    1STR    H2A10069  15.921  29.723  30.259
    1STR    H2B10070  15.969  29.565  30.200
    1STR    H2C10071  15.890  29.679  30.091
    1STR   BCK110072  15.904  30.072  45.118
    1STR    O0310073  15.848  30.180  45.133
    1STR    N0410074  16.032  30.057  45.074
    1STR    C0510075  16.120  30.152  45.016
    1STR    C0610076  16.259  30.152  45.048
    1STR    C0710077  16.354  30.239  44.985
    1STR    N0810078  16.493  30.233  45.014
    1STR    C0910079  16.598  30.298  44.958
    1STR    O0A10080  16.588  30.380  44.868
    1STR    O0B10081  16.719  30.262  45.013
    1STR    C0C10082  16.840  30.329  44.969
    1STR    C0D10083  16.855  30.463  45.044
    1STR    C0E10084  16.967  30.242  44.988
    1STR    O0F10085  17.086  30.311  44.945
    1STR    C0G10086  17.210  30.239  44.952
    1STR    C0H10087  17.220  30.141  44.834
    1STR    C0I10088  17.331  30.337  44.951
    1STR    O0J10089  17.454  30.265  44.966
    1STR    C0K10090  28.339  30.054  44.685
    1STR    C0M10091  28.333  30.160  44.796
    1STR    C0N10092  28.459  29.958  44.710
    1STR    O0O10093  28.584  30.027  44.696
    1STR    C0P10094  28.684  30.017  44.788
    1STR    O0Q10095  28.678  29.957  44.895
    1STR    N0R10096  28.789  30.085  44.742
    1STR    C0S10097  28.916  30.118  44.792
    1STR    C0T10098  28.985  30.214  44.715
    1STR    C0U10099  29.108  30.265  44.757
    1STR    C0V10100  29.168  30.221  44.876
    1STR    C0W10101  29.292  30.297  44.922
    1STR    C0X10102  29.109  30.115  44.950
    1STR    N0Y10103  29.175  30.063  45.064
    1STR   BCK210104  29.305  30.029  45.075
    1STR    O1010105  29.383  30.026  44.980
    1STR    C1310106  28.980  30.068  44.909
    1STR    C1410107  16.302  30.330  44.890
    1STR    C1510108  16.166  30.330  44.855
    1STR    C1610109  16.076  30.240  44.914
    1STR    C1710110  15.935  30.240  44.858
    1STR    H1B10111  16.066  29.963  45.083
    1STR    H1C10112  16.295  30.083  45.123
    1STR    H1D10113  16.523  30.171  45.087
    1STR    H1E10114  16.832  30.350  44.862
    1STR    H1F10115  16.864  30.448  45.151
    1STR    H1G10116  16.943  30.517  45.009
    1STR    H1H10117  16.769  30.527  45.026
    1STR    H1I10118  16.955  30.150  44.931
    1STR    H1J10119  16.978  30.213  45.092
    1STR    H1K10120  17.214  30.184  45.047
    1STR    H1M10121  17.213  30.194  44.739
    1STR    H1N10122  17.142  30.066  44.836
    1STR    H1O10123  17.316  30.089  44.836
    1STR    H1P10124  17.332  30.394  44.857
    1STR    H1Q10125  17.319  30.410  45.031
    1STR   C01010126  17.575  30.342  44.961
    1STR   H01110127  17.571  30.412  44.877
    1STR   C01210128  17.594  30.419  45.092
    1STR   H01310129  17.594  30.352  45.178
    1STR   H01410130  17.516  30.494  45.108
    1STR   H01510131  17.689  30.472  45.093
    1STR   C01610132  17.694  30.247  44.936
    1STR   H01710133  17.700  30.174  45.017
    1STR   H01810134  17.676  30.190  44.844
    1STR   O01910135  17.818  30.319  44.926
    1STR   C02010136  17.935  30.240  44.907
    1STR   H02110137  17.933  30.153  44.974
    1STR   C02210138  17.944  30.192  44.761
    1STR   H02310139  17.942  30.276  44.692
    1STR   H02410140  17.862  30.125  44.734
    1STR   H02510141  18.036  30.138  44.743
    1STR   C02610142  18.059  30.324  44.944
    1STR   H02710143  18.066  30.412  44.879
    1STR   H02810144  18.048  30.361  45.046
    1STR   O02910145  18.179  30.245  44.932
    1STR   C03010146  18.301  30.314  44.960
    1STR   H03110147  18.301  30.412  44.912
    1STR   C03210148  18.320  30.329  45.111
    1STR   H03310149  18.316  30.233  45.162
    1STR   H03410150  18.244  30.393  45.156
    1STR   H03510151  18.416  30.374  45.134
    1STR   C03610152  18.417  30.232  44.898
    1STR   H03710153  18.421  30.133  44.944
    1STR   H03810154  18.397  30.217  44.792
    1STR   O03910155  18.541  30.301  44.917
    1STR   C04010156  18.657  30.234  44.868
    1STR   H04110157  18.653  30.128  44.895
    1STR   C04210158  18.666  30.249  44.715
    1STR   H04310159  18.665  30.354  44.686
    1STR   H04410160  18.584  30.199  44.664
    1STR   H04510161  18.758  30.205  44.677
    1STR   C04610162  18.780  30.295  44.937
    1STR   H04710163  18.788  30.401  44.911
    1STR   H04810164  18.767  30.289  45.045
    1STR   O04910165  18.898  30.225  44.897
    1STR   C05010166  19.021  30.276  44.951
    1STR   H05110167  19.022  30.385  44.946
    1STR   C05210168  19.036  30.229  45.097
    1STR   H05310169  19.031  30.120  45.104
    1STR   H05410170  18.960  30.271  45.162
    1STR   H05510171  19.133  30.260  45.136
    1STR   C05610172  19.136  30.224  44.863
    1STR   H05710173  19.139  30.115  44.866
    1STR   H05810174  19.117  30.252  44.759
    1STR   O05910175  19.260  30.279  44.908
    1STR   C06010176  19.375  30.235  44.837
    1STR   H06110177  19.370  30.127  44.819
    1STR   C06210178  19.386  30.310  44.703
    1STR   H06310179  19.387  30.418  44.719
    1STR   H06410180  19.304  30.286  44.636
    1STR   H06510181  19.478  30.284  44.652
    1STR   C06610182  19.498  30.262  44.926
    1STR   H06710183  19.507  30.369  44.945
    1STR   H06810184  19.483  30.214  45.023
    1STR   O06910185  19.615  30.212  44.863
    1STR   C07010186  19.737  30.234  44.934
    1STR   H07110187  19.739  30.336  44.973
    1STR   C07210188  19.750  30.133  45.049
    1STR   H07310189  19.743  30.031  45.012
    1STR   H07410190  19.673  30.147  45.125
    1STR   H07510191  19.847  30.144  45.099
    1STR   C07610192  19.852  30.220  44.833
    1STR   H07710193  19.854  30.119  44.793
    1STR   H07810194  19.835  30.288  44.750
    1STR   O07910195  19.976  30.251  44.897
    1STR   C08010196  20.092  30.238  44.816
    1STR   H08110197  20.086  30.146  44.757
    1STR   C08210198  20.105  30.360  44.723
    1STR   H08310199  20.106  30.452  44.780
    1STR   H08410200  20.023  30.366  44.651
    1STR   H08510201  20.198  30.355  44.666
    1STR   C08610202  20.213  30.225  44.910
    1STR   H08710203  20.223  30.316  44.970
    1STR   H08810204  20.196  30.143  44.979
    1STR   O08910205  20.331  30.202  44.833
    1STR   C09010206  20.451  30.193  44.908
    1STR   H09110207  20.454  30.271  44.984
    1STR   C09210208  20.462  30.054  44.973
    1STR   H09310209  20.455  29.975  44.898
    1STR   H09410210  20.384  30.037  45.047
    1STR   H09510211  20.558  30.043  45.023
    1STR   C09610212  20.568  30.218  44.811
    1STR   H09710213  20.569  30.142  44.733
    1STR   H09810214  20.552  30.314  44.761
    1STR   O09910215  20.691  30.220  44.883
    1STR   C10010216  20.807  30.239  44.804
    1STR   H10110217  20.802  30.178  44.713
    1STR   C10210218  20.823  30.387  44.768
    1STR   H10310219  20.824  30.449  44.857
    1STR   H10410220  20.742  30.423  44.704
    1STR   H10510221  20.916  30.404  44.714
    1STR   C10610222  20.927  30.188  44.886
    1STR   H10710223  20.937  30.247  44.977
    1STR   H10810224  20.909  30.085  44.916
    1STR   O10910225  21.046  30.196  44.807
    1STR   C11010226  21.165  30.156  44.873
    1STR   H11110227  21.168  30.196  44.974
    1STR   C11210228  21.174  30.002  44.877
    1STR   H11310229  21.167  29.960  44.776
    1STR   H11410230  21.095  29.958  44.937
    1STR   H11510231  21.269  29.970  44.919
    1STR   C11610232  21.283  30.216  44.795
    1STR   H11710233  21.285  30.177  44.693
    1STR   H11810234  21.269  30.324  44.788
    1STR   O11910235  21.405  30.187  44.863
    1STR   C12010236  21.523  30.234  44.799
    1STR   H12110237  21.518  30.215  44.691
    1STR   C12210238  21.540  30.384  44.825
    1STR   H12310239  21.541  30.405  44.932
    1STR   H12410240  21.461  30.444  44.780
    1STR   H12510241  21.635  30.420  44.784
    1STR   C12610242  21.641  30.153  44.855
    1STR   H12710243  21.651  30.171  44.962
    1STR   H12810244  21.621  30.047  44.841
    1STR   O12910245  21.761  30.190  44.787
    1STR   C13010246  21.879  30.125  44.832
    1STR   H13110247  21.880  30.121  44.941
    1STR   C13210248  21.886  29.983  44.774
    1STR   H13310249  21.879  29.984  44.666
    1STR   H13410250  21.805  29.919  44.812
    1STR   H13510251  21.980  29.935  44.801
    1STR   C13610252  21.998  30.210  44.786
    1STR   H13710253  22.001  30.214  44.677
    1STR   H13810254  21.985  30.312  44.822
    1STR   O13910255  22.119  30.154  44.837
    1STR   C14010256  22.238  30.221  44.798
    1STR   H14110257  22.234  30.247  44.692
    1STR   C14210258  22.257  30.348  44.883
    1STR   H14310259  22.256  30.325  44.990
    1STR   H14410260  22.179  30.422  44.865
    1STR   H14510261  22.352  30.396  44.860
    1STR   C14610262  22.355  30.123  44.818
    1STR   H14710263  22.363  30.096  44.924
    1STR   H14810264  22.334  30.031  44.763
    1STR   O14910265  22.476  30.182  44.772
    1STR   C15010266  22.593  30.103  44.789
    1STR   H15110267  22.593  30.056  44.887
    1STR   C15210268  22.599  29.995  44.679
    1STR   H15310269  22.594  30.040  44.580
    1STR   H15410270  22.518  29.923  44.687
    1STR   H15510271  22.692  29.939  44.685
    1STR   C15610272  22.714  30.198  44.781
    1STR   H15710273  22.718  30.245  44.683
    1STR   H15810274  22.701  30.277  44.855
    1STR   O15910275  22.833  30.124  44.807
    1STR   C16010276  22.953  30.200  44.799
    1STR   H16110277  22.951  30.266  44.712
    1STR   C16210278  22.972  30.282  44.928
    1STR   H16310279  22.970  30.218  45.016
    1STR   H16410280  22.895  30.358  44.940
    1STR   H16510281  23.068  30.334  44.927
    1STR   C16610282  23.069  30.100  44.779
    1STR   H16710283  23.075  30.033  44.865
    1STR   H16810284  23.047  30.038  44.692
    1STR   O16910285  23.191  30.172  44.761
    1STR   C17010286  23.307  30.091  44.746
    1STR   H17110287  23.305  30.008  44.817
    1STR   C17210288  23.313  30.036  44.602
    1STR   H17310289  23.310  30.117  44.529
    1STR   H17410290  23.231  29.968  44.580
    1STR   H17510291  23.406  29.981  44.586
    1STR   C17610292  23.429  30.178  44.778
    1STR   H17710293  23.435  30.261  44.707
    1STR   H17810294  23.416  30.222  44.877
    1STR   O17910295  23.547  30.099  44.773
    1STR   C18010296  23.668  30.170  44.797
    1STR   H18110297  23.668  30.265  44.744
    1STR   C18210298  23.686  30.193  44.948
    1STR   H18310299  23.682  30.099  45.003
    1STR   H18410300  23.609  30.259  44.989
    1STR   H18510301  23.782  30.240  44.969
    1STR   C18610302  23.783  30.085  44.740
    1STR   H18710303  23.787  29.989  44.792
    1STR   H18810304  23.762  30.063  44.635
    1STR   O18910305  23.906  30.156  44.753
    1STR   C19010306  24.021  30.086  44.707
    1STR   H19110307  24.018  29.982  44.740
    1STR   C19210308  24.029  30.092  44.554
    1STR   H19310309  24.028  30.196  44.519
    1STR   H19410310  23.946  30.040  44.506
    1STR   H19510311  24.121  30.047  44.518
    1STR   C19610312  24.143  30.152  44.773
    1STR   H19710313  24.151  30.256  44.741
    1STR   H19810314  24.130  30.152  44.881
    1STR   O19910315  24.261  30.079  44.738
    1STR   C20010316  24.383  30.133  44.789
    1STR   H20110317  24.384  30.241  44.779
    1STR   C20210318  24.398  30.093  44.937
    1STR   H20310319  24.393  29.985  44.950
    1STR   H20410320  24.322  30.139  45.000
    1STR   H20510321  24.495  30.126  44.975
    1STR   C20610322  24.497  30.076  44.704
    1STR   H20710323  24.500  29.967  44.713
    1STR   H20810324  24.478  30.099  44.599
    1STR   O20910325  24.621  30.134  44.745
    1STR   C21010326  24.736  30.086  44.676
    1STR   H21110327  24.731  29.978  44.665
    1STR   C21210328  24.746  30.154  44.539
    1STR   H21310329  24.746  30.262  44.548
    1STR   H21410330  24.664  30.126  44.473
    1STR   H21510331  24.838  30.125  44.488
    1STR   C21610332  24.858  30.119  44.764
    1STR   H21710333  24.867  30.227  44.776
    1STR   H21810334  24.843  30.076  44.863
    1STR   O21910335  24.975  30.065  44.703
    1STR   C22010336  25.097  30.091  44.773
    1STR   H22110337  25.099  30.195  44.807
    1STR   C22210338  25.110  29.996  44.893
    1STR   H22310339  25.103  29.892  44.862
    1STR   H22410340  25.033  30.014  44.968
    1STR   H22510341  25.207  30.010  44.942
    1STR   C22610342  25.212  30.072  44.673
    1STR   H22710343  25.214  29.968  44.638
    1STR   H22810344  25.195  30.135  44.586
    1STR   O22910345  25.336  30.106  44.735
    1STR   C23010346  25.452  30.089  44.654
    1STR   H23110347  25.446  29.994  44.600
    1STR   C23210348  25.464  30.206  44.555
    1STR   H23310349  25.465  30.302  44.607
    1STR   H23410350  25.382  30.208  44.483
    1STR   H23510351  25.556  30.198  44.498
    1STR   C23610352  25.573  30.082  44.748
    1STR   H23710353  25.583  30.176  44.803
    1STR   H23810354  25.557  30.003  44.821
    1STR   O23910355  25.691  30.056  44.672
    1STR   C24010356  25.812  30.050  44.747
    1STR   H24110357  25.815  30.132  44.820
    1STR   C24210358  25.822  29.915  44.820
    1STR   H24310359  25.815  29.832  44.749
    1STR   H24410360  25.745  29.902  44.895
    1STR   H24510361  25.918  29.906  44.871
    1STR   C24610362  25.929  30.070  44.649
    1STR   H24710363  25.930  29.989  44.576
    1STR   H24810364  25.913  30.163  44.594
    1STR   O24910365  26.052  30.075  44.721
    1STR   C25010366  26.169  30.090  44.640
    1STR   H25110367  26.163  30.025  44.553
    1STR   C25210368  26.183  30.237  44.597
    1STR   H25310369  26.184  30.303  44.683
    1STR   H25410370  26.102  30.268  44.531
    1STR   H25510371  26.276  30.252  44.542
    1STR   C25610372  26.290  30.045  44.725
    1STR   H25710373  26.299  30.108  44.813
    1STR   H25810374  26.272  29.943  44.760
    1STR   O25910375  26.409  30.050  44.646
    1STR   C26010376  26.529  30.012  44.714
    1STR   H26110377  26.531  30.058  44.813
    1STR   C26210378  26.536  29.859  44.726
    1STR   H26310379  26.528  29.811  44.628
    1STR   H26410380  26.457  29.819  44.790
    1STR   H26510381  26.631  29.829  44.770
    1STR   C26610382  26.648  30.067  44.633
    1STR   H26710383  26.649  30.023  44.533
    1STR   H26810384  26.634  30.175  44.619
    1STR   O26910385  26.771  30.040  44.701
    1STR   C27010386  26.889  30.086  44.634
    1STR   H27110387  26.884  30.061  44.528
    1STR   C27210388  26.904  30.237  44.653
    1STR   H27310389  26.903  30.264  44.759
    1STR   H27410390  26.824  30.293  44.604
    1STR   H27510391  26.998  30.272  44.610
    1STR   C27610392  27.009  30.010  44.694
    1STR   H27710393  27.018  30.032  44.801
    1STR   H27810394  26.990  29.903  44.686
    1STR   O27910395  27.130  30.045  44.626
    1STR   C28010396  27.249  29.981  44.673
    1STR   H28110397  27.251  29.983  44.782
    1STR   C28210398  27.253  29.836  44.623
    1STR   H28310399  27.244  29.831  44.514
    1STR   H28410400  27.174  29.775  44.666
    1STR   H28510401  27.347  29.788  44.651
    1STR   C28610402  27.371  30.061  44.622
    1STR   H28710403  27.372  30.061  44.513
    1STR   H28810404  27.359  30.165  44.653
    1STR   O28910405  27.493  30.007  44.673
    1STR   C29010406  27.613  30.073  44.633
    1STR   H29110407  27.610  30.093  44.525
    1STR   C29210408  27.628  30.205  44.710
    1STR   H29310409  27.624  30.188  44.818
    1STR   H29410410  27.550  30.277  44.685
    1STR   H29510411  27.723  30.253  44.687
    1STR   C29610412  27.733  29.979  44.660
    1STR   H29710413  27.737  29.956  44.766
    1STR   H29810414  27.715  29.885  44.608
    1STR   O29910415  27.857  30.037  44.617
    1STR   C30010416  27.974  29.958  44.639
    1STR   H30110417  27.969  29.914  44.739
    1STR   C30210418  27.982  29.847  44.533
    1STR   H30310419  27.977  29.889  44.432
    1STR   H30410420  27.901  29.775  44.543
    1STR   H30510421  28.075  29.792  44.542
    1STR   C30610422  28.099  30.049  44.635
    1STR   H30710423  28.114  30.087  44.534
    1STR   H30810424  28.080  30.135  44.699
    1STR   O30910425  28.216  29.979  44.681
    1STR    H1R10426  28.354  30.103  44.588
    1STR    H1S10427  28.429  30.212  44.805
    1STR    H1T10428  28.312  30.114  44.892
    1STR    H1U10429  28.258  30.236  44.778
    1STR    H1V10430  28.457  29.878  44.636
    1STR    H1W10431  28.449  29.910  44.807
    1STR    H1X10432  28.766  30.123  44.652
    1STR    H1Y10433  28.942  30.252  44.623
    1STR    H1Z10434  29.156  30.342  44.698
    1STR    H2010435  29.300  30.296  45.030
    1STR    H2110436  29.381  30.252  44.878
    1STR    H2210437  29.287  30.401  44.891
    1STR    H2310438  29.120  30.047  45.147
    1STR    H2710439  28.930  29.991  44.967
    1STR    H2810440  16.364  30.402  44.839
    1STR    H2910441  16.133  30.399  44.779
    1STR    H2A10442  15.891  30.140  44.860
    1STR    H2B10443  15.934  30.273  44.754
    1STR    H2C10444  15.871  30.307  44.915
    1STR   BCK110445  15.889  44.997   0.122
    1STR    O0310446  15.853  44.935   0.221
    1STR    N0410447  16.010  45.056   0.106
    1STR    C0510448  16.114  45.073   0.200
    1STR    C0610449  16.251  45.053   0.164
    1STR    C0710450  16.360  45.074   0.255
    1STR    N0810451  16.496  45.059   0.216
    1STR    C0910452  16.606  45.046   0.293
    1STR    O0A10453  16.604  45.033   0.415
    1STR    O0B10454  16.723  45.047   0.222
    1STR    C0C10455  16.849  45.029   0.290
    1STR    C0D10456  16.870  44.879   0.319
    1STR    C0E10457  16.971  45.087   0.213
    1STR    O0F10458  17.092  45.066   0.289
    1STR    C0G10459  17.214  45.115   0.231
    1STR    C0H10460  17.223  45.268   0.251
    1STR    C0I10461  17.335  45.045   0.298
    1STR    O0J10462  17.458  45.088   0.237
    1STR    C0K10463  28.332  45.443   0.307
    1STR    C0M10464  28.332  45.289   0.297
    1STR    C0N10465  28.451  45.502   0.229
    1STR    O0O10466  28.573  45.479   0.301
    1STR    C0P10467  28.677  45.410   0.250
    1STR    O0Q10468  28.686  45.361   0.138
    1STR    N0R10469  28.769  45.402   0.346
    1STR    C0S10470  28.891  45.336   0.361
    1STR    C0T10471  28.933  45.322   0.494
    1STR    C0U10472  29.052  45.255   0.524
    1STR    C0V10473  29.135  45.204   0.423
    1STR    C0W10474  29.257  45.132   0.474
    1STR    C0X10475  29.101  45.223   0.285
    1STR    N0Y10476  29.184  45.196   0.173
    1STR   BCK210477  29.302  45.142   0.136
    1STR    O1010478  29.343  45.168   0.023
    1STR    C1310479  28.976  45.287   0.257
    1STR    C1410480  16.326  45.115   0.386
    1STR    C1510481  16.193  45.138   0.423
    1STR    C1610482  16.088  45.122   0.331
    1STR    C1710483  15.949  45.166   0.377
    1STR    H1B10484  16.026  45.092   0.014
    1STR    H1C10485  16.274  45.021   0.063
    1STR    H1D10486  16.517  45.058   0.118
    1STR    H1E10487  16.845  45.082   0.386
    1STR    H1F10488  16.876  44.821   0.227
    1STR    H1G10489  16.962  44.863   0.375
    1STR    H1H10490  16.789  44.839   0.379
    1STR    H1I10491  16.955  45.193   0.196
    1STR    H1J10492  16.980  45.040   0.115
    1STR    H1K10493  17.217  45.092   0.125
    1STR    H1M10494  17.217  45.294   0.357
    1STR    H1N10495  17.144  45.321   0.199
    1STR    H1O10496  17.318  45.306   0.214
    1STR    H1P10497  17.337  45.067   0.405
    1STR    H1Q10498  17.324  44.937   0.288
    1STR   C01010499  17.579  45.035   0.293
    1STR   H01110500  17.575  45.039   0.402
    1STR   C01210501  17.598  44.889   0.248
    1STR   H01310502  17.598  44.881   0.140
    1STR   H01410503  17.520  44.823   0.287
    1STR   H01510504  17.693  44.850   0.284
    1STR   C01610505  17.698  45.122   0.247
    1STR   H01710506  17.704  45.120   0.138
    1STR   H01810507  17.679  45.225   0.276
    1STR   O01910508  17.821  45.076   0.305
    1STR   C02010509  17.938  45.147   0.265
    1STR   H02110510  17.936  45.166   0.158
    1STR   C02210511  17.946  45.281   0.341
    1STR   H02310512  17.944  45.265   0.449
    1STR   H02410513  17.865  45.348   0.315
    1STR   H02510514  18.039  45.333   0.317
    1STR   C02610515  18.062  45.060   0.295
    1STR   H02710516  18.068  45.039   0.402
    1STR   H02810517  18.050  44.963   0.245
    1STR   O02910518  18.181  45.125   0.250
    1STR   C03010519  18.303  45.056   0.276
    1STR   H03110520  18.303  45.016   0.378
    1STR   C03210521  18.322  44.942   0.175
    1STR   H03310522  18.318  44.979   0.072
    1STR   H03410523  18.245  44.865   0.185
    1STR   H03510524  18.418  44.893   0.188
    1STR   C03610525  18.419  45.158   0.266
    1STR   H03710526  18.423  45.199   0.165
    1STR   H03810527  18.399  45.241   0.334
    1STR   O03910528  18.543  45.094   0.299
    1STR   C04010529  18.659  45.177   0.290
    1STR   H04110530  18.655  45.237   0.198
    1STR   C04210531  18.667  45.269   0.412
    1STR   H04310532  18.666  45.212   0.505
    1STR   H04410533  18.585  45.341   0.416
    1STR   H04510534  18.760  45.327   0.411
    1STR   C04610535  18.782  45.085   0.281
    1STR   H04710536  18.789  45.024   0.371
    1STR   H04810537  18.768  45.016   0.197
    1STR   O04910538  18.900  45.163   0.263
    1STR   C05010539  19.022  45.090   0.257
    1STR   H05110540  19.023  45.013   0.334
    1STR   C05210541  19.037  45.026   0.118
    1STR   H05310542  19.032  45.101   0.039
    1STR   H05410543  18.961  44.951   0.098
    1STR   H05510544  19.134  44.976   0.109
    1STR   C05610545  19.137  45.188   0.286
    1STR   H05710546  19.140  45.266   0.210
    1STR   H05810547  19.118  45.237   0.382
    1STR   O05910548  19.260  45.117   0.290
    1STR   C06010549  19.376  45.197   0.313
    1STR   H06110550  19.371  45.288   0.254
    1STR   C06210551  19.387  45.232   0.463
    1STR   H06310552  19.387  45.142   0.524
    1STR   H06410553  19.305  45.295   0.496
    1STR   H06510554  19.479  45.286   0.483
    1STR   C06610555  19.498  45.116   0.266
    1STR   H06710556  19.507  45.025   0.324
    1STR   H06810557  19.483  45.087   0.162
    1STR   O06910558  19.616  45.196   0.278
    1STR   C07010559  19.737  45.132   0.241
    1STR   H07110560  19.740  45.030   0.281
    1STR   C07210561  19.750  45.129   0.088
    1STR   H07310562  19.744  45.229   0.046
    1STR   H07410563  19.674  45.068   0.041
    1STR   H07510564  19.847  45.088   0.059
    1STR   C07610565  19.853  45.210   0.306
    1STR   H07710566  19.854  45.312   0.267
    1STR   H07810567  19.835  45.217   0.413
    1STR   O07910568  19.976  45.144   0.279
    1STR   C08010569  20.092  45.209   0.331
    1STR   H08110570  20.086  45.317   0.313
    1STR   C08210571  20.105  45.182   0.481
    1STR   H08310572  20.106  45.075   0.502
    1STR   H08410573  20.024  45.226   0.539
    1STR   H08510574  20.198  45.224   0.520
    1STR   C08610575  20.213  45.155   0.253
    1STR   H08710576  20.223  45.048   0.270
    1STR   H08810577  20.196  45.169   0.146
    1STR   O08910578  20.331  45.224   0.294
    1STR   C09010579  20.451  45.180   0.233
    1STR   H09110580  20.454  45.071   0.229
    1STR   C09210581  20.462  45.239   0.091
    1STR   H09310582  20.455  45.348   0.093
    1STR   H09410583  20.384  45.201   0.025
    1STR   H09510584  20.558  45.213   0.046
    1STR   C09610585  20.568  45.227   0.322
    1STR   H09710586  20.569  45.336   0.327
    1STR   H09810587  20.552  45.190   0.423
    1STR   O09910588  20.691  45.177   0.269
    1STR   C10010589  20.808  45.217   0.340
    1STR   H10110590  20.802  45.323   0.367
    1STR   C10210591  20.823  45.132   0.467
    1STR   H10310592  20.824  45.025   0.443
    1STR   H10410593  20.742  45.149   0.539
    1STR   H10510594  20.916  45.155   0.518
    1STR   C10610595  20.927  45.199   0.246
    1STR   H10710596  20.937  45.094   0.218
    1STR   H10810597  20.909  45.254   0.154
    1STR   O10910598  21.046  45.246   0.309
    1STR   C11010599  21.165  45.231   0.233
    1STR   H11110600  21.168  45.133   0.186
    1STR   C11210601  21.174  45.342   0.127
    1STR   H11310602  21.167  45.441   0.172
    1STR   H11410603  21.095  45.333   0.052
    1STR   H11510604  21.269  45.337   0.073
    1STR   C11610605  21.283  45.239   0.332
    1STR   H11710606  21.285  45.337   0.380
    1STR   H11810607  21.269  45.165   0.410
    1STR   O11910608  21.405  45.215   0.262
    1STR   C12010609  21.523  45.223   0.341
    1STR   H12110610  21.518  45.310   0.407
    1STR   C12210611  21.540  45.094   0.423
    1STR   H12310612  21.541  45.007   0.358
    1STR   H12410613  21.461  45.081   0.496
    1STR   H12510614  21.635  45.096   0.477
    1STR   C12610615  21.641  45.245   0.245
    1STR   H12710616  21.651  45.160   0.178
    1STR   H12810617  21.621  45.333   0.183
    1STR   O12910618  21.761  45.264   0.320
    1STR   C13010619  21.879  45.281   0.243
    1STR   H13110620  21.880  45.210   0.160
    1STR   C13210621  21.886  45.425   0.189
    1STR   H13310622  21.879  45.498   0.271
    1STR   H13410623  21.805  45.447   0.119
    1STR   H13510624  21.980  45.443   0.137
    1STR   C13610625  21.998  45.250   0.334
    1STR   H13710626  22.001  45.320   0.418
    1STR   H13810627  21.985  45.150   0.376
    1STR   O13910628  22.119  45.256   0.258
    1STR   C14010629  22.238  45.233   0.332
    1STR   H14110630  22.234  45.285   0.428
    1STR   C14210631  22.257  45.082   0.356
    1STR   H14310632  22.256  45.028   0.261
    1STR   H14410633  22.179  45.040   0.419
    1STR   H14510634  22.352  45.062   0.405
    1STR   C14610635  22.355  45.292   0.251
    1STR   H14710636  22.363  45.241   0.155
    1STR   H14810637  22.334  45.397   0.230
    1STR   O14910638  22.476  45.279   0.326
    1STR   C15010639  22.593  45.327   0.260
    1STR   H15110640  22.593  45.295   0.156
    1STR   C15210641  22.599  45.480   0.268
    1STR   H15310642  22.594  45.514   0.372
    1STR   H15410643  22.518  45.528   0.213
    1STR   H15510644  22.692  45.517   0.226
    1STR   C15610645  22.714  45.262   0.329
    1STR   H15710646  22.718  45.293   0.434
    1STR   H15810647  22.701  45.154   0.329
    1STR   O15910648  22.833  45.299   0.261
    1STR   C16010649  22.953  45.248   0.318
    1STR   H16110650  22.951  45.258   0.426
    1STR   C16210651  22.972  45.101   0.278
    1STR   H16310652  22.970  45.088   0.170
    1STR   H16410653  22.895  45.037   0.321
    1STR   H16510654  23.068  45.063   0.314
    1STR   C16610655  23.069  45.335   0.265
    1STR   H16710656  23.075  45.327   0.156
    1STR   H16810657  23.047  45.440   0.288
    1STR   O16910658  23.191  45.295   0.326
    1STR   C17010659  23.307  45.365   0.283
    1STR   H17110660  23.305  45.377   0.175
    1STR   C17210661  23.313  45.502   0.352
    1STR   H17310662  23.310  45.492   0.460
    1STR   H17410663  23.231  45.568   0.322
    1STR   H17510664  23.406  45.554   0.326
    1STR   C17610665  23.428  45.279   0.319
    1STR   H17710666  23.434  45.265   0.427
    1STR   H17810667  23.416  45.180   0.275
    1STR   O17910668  23.547  45.340   0.269
    1STR   C18010669  23.668  45.272   0.299
    1STR   H18110670  23.667  45.238   0.403
    1STR   C18210671  23.686  45.152   0.204
    1STR   H18310672  23.682  45.184   0.100
    1STR   H18410673  23.609  45.076   0.218
    1STR   H18510674  23.782  45.104   0.220
    1STR   C18610675  23.783  45.373   0.283
    1STR   H18710676  23.787  45.409   0.180
    1STR   H18810677  23.762  45.460   0.346
    1STR   O18910678  23.906  45.312   0.322
    1STR   C19010679  24.021  45.395   0.308
    1STR   H19110680  24.017  45.449   0.213
    1STR   C19210681  24.029  45.493   0.426
    1STR   H19310682  24.028  45.441   0.521
    1STR   H19410683  23.946  45.564   0.425
    1STR   H19510684  24.121  45.551   0.421
    1STR   C19610685  24.143  45.302   0.304
    1STR   H19710686  24.151  45.247   0.398
    1STR   H19810687  24.130  45.228   0.225
    1STR   O19910688  24.261  45.379   0.281
    1STR   C20010689  24.382  45.305   0.279
    1STR   H20110690  24.384  45.232   0.361
    1STR   C20210691  24.398  45.234   0.144
    1STR   H20310692  24.393  45.305   0.061
    1STR   H20410693  24.322  45.158   0.128
    1STR   H20510694  24.495  45.183   0.138
    1STR   C20610695  24.497  45.404   0.304
    1STR   H20710696  24.500  45.478   0.224
    1STR   H20810697  24.478  45.459   0.397
    1STR   O20910698  24.620  45.334   0.312
    1STR   C21010699  24.736  45.415   0.331
    1STR   H21110700  24.731  45.503   0.267
    1STR   C21210701  24.746  45.458   0.478
    1STR   H21310702  24.746  45.372   0.545
    1STR   H21410703  24.663  45.523   0.508
    1STR   H21510704  24.838  45.514   0.496
    1STR   C21610705  24.858  45.332   0.289
    1STR   H21710706  24.867  45.244   0.352
    1STR   H21810707  24.843  45.297   0.187
    1STR   O21910708  24.975  45.413   0.297
    1STR   C22010709  25.097  45.346   0.263
    1STR   H22110710  25.099  45.247   0.309
    1STR   C22210711  25.110  45.335   0.111
    1STR   H22310712  25.103  45.433   0.064
    1STR   H22410713  25.033  45.272   0.067
    1STR   H22510714  25.206  45.292   0.083
    1STR   C22610715  25.212  45.428   0.324
    1STR   H22710716  25.214  45.528   0.280
    1STR   H22810717  25.194  45.440   0.431
    1STR   O22910718  25.335  45.361   0.301
    1STR   C23010719  25.451  45.428   0.350
    1STR   H23110720  25.445  45.535   0.326
    1STR   C23210721  25.464  45.409   0.502
    1STR   H23310722  25.465  45.303   0.528
    1STR   H23410723  25.382  45.456   0.556
    1STR   H23510724  25.556  45.453   0.539
    1STR   C23610725  25.573  45.370   0.276
    1STR   H23710726  25.583  45.264   0.298
    1STR   H23810727  25.556  45.378   0.168
    1STR   O23910728  25.690  45.441   0.313
    1STR   C24010729  25.811  45.394   0.254
    1STR   H24110730  25.814  45.285   0.256
    1STR   C24210731  25.822  45.445   0.110
    1STR   H24310732  25.814  45.553   0.106
    1STR   H24410733  25.744  45.403   0.046
    1STR   H24510734  25.918  45.417   0.066
    1STR   C24610735  25.928  45.445   0.341
    1STR   H24710736  25.929  45.555   0.340
    1STR   H24810737  25.912  45.414   0.444
    1STR   O24910738  26.051  45.393   0.291
    1STR   C25010739  26.168  45.437   0.360
    1STR   H25110740  26.162  45.544   0.381
    1STR   C25210741  26.182  45.358   0.492
    1STR   H25310742  26.183  45.251   0.474
    1STR   H25410743  26.102  45.380   0.562
    1STR   H25510744  26.275  45.384   0.542
    1STR   C25610745  26.288  45.413   0.268
    1STR   H25710746  26.298  45.307   0.246
    1STR   H25810747  26.270  45.463   0.173
    1STR   O25910748  26.407  45.463   0.329
    1STR   C26010749  26.527  45.445   0.254
    1STR   H26110750  26.530  45.344   0.211
    1STR   C26210751  26.535  45.549   0.141
    1STR   H26310752  26.527  45.651   0.181
    1STR   H26410753  26.456  45.536   0.067
    1STR   H26510754  26.630  45.542   0.088
    1STR   C26610755  26.646  45.459   0.351
    1STR   H26710756  26.647  45.559   0.394
    1STR   H26810757  26.632  45.388   0.433
    1STR   O26910758  26.768  45.432   0.283
    1STR   C27010759  26.886  45.444   0.362
    1STR   H27110760  26.881  45.534   0.424
    1STR   C27210761  26.902  45.319   0.451
    1STR   H27310762  26.902  45.228   0.391
    1STR   H27410763  26.822  45.311   0.525
    1STR   H27510764  26.996  45.323   0.506
    1STR   C27610765  27.006  45.460   0.266
    1STR   H27710766  27.015  45.371   0.203
    1STR   H27810767  26.987  45.544   0.200
    1STR   O27910768  27.126  45.481   0.341
    1STR   C28010769  27.245  45.495   0.263
    1STR   H28110770  27.247  45.420   0.184
    1STR   C28210771  27.251  45.636   0.201
    1STR   H28310772  27.242  45.713   0.278
    1STR   H28410773  27.171  45.652   0.129
    1STR   H28510774  27.345  45.652   0.149
    1STR   C28610775  27.366  45.470   0.355
    1STR   H28710776  27.368  45.544   0.435
    1STR   H28810777  27.355  45.372   0.402
    1STR   O28910778  27.488  45.475   0.280
    1STR   C29010779  27.608  45.454   0.355
    1STR   H29110780  27.605  45.511   0.447
    1STR   C29210781  27.625  45.304   0.387
    1STR   H29310782  27.622  45.244   0.296
    1STR   H29410783  27.547  45.268   0.453
    1STR   H29510784  27.720  45.285   0.436
    1STR   C29610785  27.727  45.506   0.270
    1STR   H29710786  27.732  45.451   0.176
    1STR   H29810787  27.708  45.610   0.245
    1STR   O29910788  27.850  45.493   0.342
    1STR   C30010789  27.967  45.537   0.271
    1STR   H30110790  27.962  45.503   0.167
    1STR   C30210791  27.974  45.691   0.275
    1STR   H30310792  27.970  45.728   0.377
    1STR   H30410793  27.893  45.737   0.219
    1STR   H30510794  28.068  45.726   0.230
    1STR   C30610795  28.092  45.473   0.336
    1STR   H30710796  28.106  45.512   0.437
    1STR   H30810797  28.073  45.366   0.346
    1STR   O30910798  28.209  45.496   0.256
    1STR    H1R10799  28.342  45.473   0.412
    1STR    H1S10800  28.429  45.249   0.328
    1STR    H1T10801  28.315  45.257   0.194
    1STR    H1U10802  28.257  45.243   0.360
    1STR    H1V10803  28.439  45.610   0.220
    1STR    H1W10804  28.456  45.463   0.127
    1STR    H1X10805  28.735  45.452   0.426
    1STR    H1Y10806  28.873  45.360   0.575
    1STR    H1Z10807  29.079  45.244   0.628
    1STR    H2010808  29.254  45.028   0.440
    1STR    H2110809  29.348  45.183   0.443
    1STR    H2210810  29.260  45.126   0.583
    1STR    H2310811  29.146  45.236   0.088
    1STR    H2710812  28.944  45.301   0.155
    1STR    H2810813  16.401  45.134   0.461
    1STR    H2910814  16.173  45.173   0.523
    1STR    H2A10815  15.894  45.211   0.295
    1STR    H2B10816  15.956  45.240   0.456
    1STR    H2C10817  15.893  45.081   0.416
    1STR   BCK110818  15.909  45.020  15.036
    1STR    O0310819  15.864  45.082  14.940
    1STR    N0410820  16.036  44.977  15.046
    1STR    C0510821  16.129  44.958  14.942
    1STR    C0610822  16.265  44.998  14.955
    1STR    C0710823  16.363  44.968  14.854
    1STR    N0810824  16.499  45.003  14.870
    1STR    C0910825  16.608  44.955  14.806
    1STR    O0A10826  16.604  44.867  14.720
    1STR    O0B10827  16.724  45.015  14.845
    1STR    C0C10828  16.848  44.985  14.776
    1STR    C0D10829  16.859  45.075  14.652
    1STR    C0E10830  16.972  44.999  14.867
    1STR    O0F10831  17.092  44.964  14.794
    1STR    C0G10832  17.215  44.966  14.868
    1STR    C0H10833  17.225  44.840  14.955
    1STR    C0I10834  17.335  44.974  14.770
    1STR    O0J10835  17.458  44.983  14.843
    1STR    C0K10836  28.333  44.663  15.028
    1STR    C0M10837  28.335  44.788  14.939
    1STR    C0N10838  28.454  44.664  15.125
    1STR    O0O10839  28.577  44.648  15.053
    1STR    C0P10840  28.685  44.725  15.080
    1STR    O0Q10841  28.689  44.818  15.159
    1STR    N0R10842  28.787  44.684  15.003
    1STR    C0S10843  28.917  44.733  14.983
    1STR    C0T10844  28.986  44.682  14.871
    1STR    C0U10845  29.112  44.732  14.836
    1STR    C0V10846  29.175  44.833  14.912
    1STR    C0W10847  29.301  44.896  14.855
    1STR    C0X10848  29.113  44.880  15.030
    1STR    N0Y10849  29.167  44.986  15.105
    1STR   BCK210850  29.287  45.015  15.157
    1STR    O1010851  29.302  45.126  15.208
    1STR    C1310852  28.983  44.831  15.063
    1STR    C1410853  16.317  44.903  14.738
    1STR    C1510854  16.184  44.860  14.724
    1STR    C1610855  16.091  44.884  14.826
    1STR    C1710856  15.953  44.821  14.810
    1STR    H1B10857  16.064  44.948  15.138
    1STR    H1C10858  16.296  45.051  15.044
    1STR    H1D10859  16.523  45.071  14.940
    1STR    H1E10860  16.846  44.881  14.743
    1STR    H1F10861  16.864  45.180  14.679
    1STR    H1G10862  16.949  45.051  14.595
    1STR    H1H10863  16.774  45.061  14.585
    1STR    H1I10864  16.960  44.934  14.953
    1STR    H1J10865  16.980  45.101  14.904
    1STR    H1K10866  17.218  45.055  14.931
    1STR    H1M10867  17.218  44.750  14.894
    1STR    H1N10868  17.147  44.835  15.030
    1STR    H1O10869  17.320  44.836  15.007
    1STR    H1P10870  17.336  44.886  14.705
    1STR    H1Q10871  17.322  45.060  14.705
    1STR   C01010872  17.578  44.985  14.765
    1STR   H01110873  17.574  44.908  14.688
    1STR   C01210874  17.597  45.123  14.700
    1STR   H01310875  17.597  45.202  14.775
    1STR   H01410876  17.519  45.145  14.627
    1STR   H01510877  17.692  45.128  14.647
    1STR   C01610878  17.697  44.952  14.858
    1STR   H01710879  17.703  45.026  14.938
    1STR   H01810880  17.678  44.856  14.906
    1STR   O01910881  17.820  44.947  14.785
    1STR   C02010882  17.937  44.921  14.863
    1STR   H02110883  17.935  44.980  14.954
    1STR   C02210884  17.945  44.772  14.897
    1STR   H02310885  17.943  44.710  14.807
    1STR   H02410886  17.864  44.740  14.962
    1STR   H02510887  18.038  44.749  14.950
    1STR   C02610888  18.061  44.965  14.781
    1STR   H02710889  18.067  44.908  14.689
    1STR   H02810890  18.050  45.070  14.753
    1STR   O02910891  18.180  44.947  14.859
    1STR   C03010892  18.303  44.981  14.793
    1STR   H03110893  18.302  44.942  14.691
    1STR   C03210894  18.321  45.133  14.791
    1STR   H03310895  18.317  45.175  14.892
    1STR   H03410896  18.245  45.183  14.731
    1STR   H03510897  18.418  45.160  14.748
    1STR   C03610898  18.418  44.912  14.869
    1STR   H03710899  18.422  44.950  14.972
    1STR   H03810900  18.398  44.805  14.875
    1STR   O03910901  18.542  44.937  14.802
    1STR   C04010902  18.658  44.882  14.865
    1STR   H04110903  18.654  44.900  14.972
    1STR   C04210904  18.667  44.731  14.837
    1STR   H04310905  18.666  44.711  14.730
    1STR   H04410906  18.584  44.676  14.882
    1STR   H04510907  18.759  44.690  14.877
    1STR   C04610908  18.781  44.956  14.809
    1STR   H04710909  18.789  44.940  14.702
    1STR   H04810910  18.768  45.063  14.824
    1STR   O04910911  18.899  44.911  14.876
    1STR   C05010912  19.021  44.969  14.830
    1STR   H05110913  19.022  44.974  14.721
    1STR   C05210914  19.037  45.110  14.889
    1STR   H05310915  19.032  45.108  14.998
    1STR   H05410916  18.961  45.179  14.853
    1STR   H05510917  19.134  45.152  14.862
    1STR   C05610918  19.136  44.877  14.874
    1STR   H05710919  19.139  44.870  14.983
    1STR   H05810920  19.117  44.776  14.837
    1STR   O05910921  19.260  44.926  14.824
    1STR   C06010922  19.376  44.852  14.861
    1STR   H06110923  19.370  44.825  14.967
    1STR   C06210924  19.386  44.725  14.775
    1STR   H06310925  19.387  44.750  14.668
    1STR   H06410926  19.304  44.656  14.792
    1STR   H06510927  19.479  44.671  14.796
    1STR   C06610928  19.498  44.943  14.842
    1STR   H06710929  19.507  44.971  14.737
    1STR   H06810930  19.483  45.035  14.898
    1STR   O06910931  19.615  44.876  14.886
    1STR   C07010932  19.737  44.948  14.870
    1STR   H07110933  19.739  44.996  14.772
    1STR   C07210934  19.750  45.054  14.981
    1STR   H07310935  19.743  45.008  15.080
    1STR   H07410936  19.673  45.131  14.974
    1STR   H07510937  19.847  45.104  14.975
    1STR   C07610938  19.852  44.847  14.875
    1STR   H07710939  19.854  44.797  14.973
    1STR   H07810940  19.835  44.769  14.801
    1STR   O07910941  19.976  44.913  14.850
    1STR   C08010942  20.092  44.831  14.856
    1STR   H08110943  20.086  44.764  14.942
    1STR   C08210944  20.105  44.749  14.726
    1STR   H08310945  20.106  44.815  14.639
    1STR   H08410946  20.023  44.678  14.714
    1STR   H08510947  20.198  44.692  14.726
    1STR   C08610948  20.213  44.923  14.877
    1STR   H08710949  20.223  44.991  14.792
    1STR   H08810950  20.196  44.985  14.965
    1STR   O08910951  20.331  44.844  14.893
    1STR   C09010952  20.451  44.918  14.909
    1STR   H09110953  20.454  45.002  14.838
    1STR   C09210954  20.462  44.971  15.053
    1STR   H09310955  20.455  44.889  15.125
    1STR   H09410956  20.384  45.044  15.076
    1STR   H09510957  20.558  45.020  15.069
    1STR   C09610958  20.568  44.824  14.875
    1STR   H09710959  20.569  44.740  14.945
    1STR   H09810960  20.552  44.783  14.775
    1STR   O09910961  20.691  44.896  14.880
    1STR   C10010962  20.807  44.819  14.854
    1STR   H10110963  20.802  44.723  14.906
    1STR   C10210964  20.823  44.796  14.703
    1STR   H10310965  20.824  44.891  14.649
    1STR   H10410966  20.742  44.735  14.662
    1STR   H10510967  20.916  44.744  14.681
    1STR   C10610968  20.927  44.896  14.912
    1STR   H10710969  20.937  44.992  14.861
    1STR   H10810970  20.908  44.917  15.017
    1STR   O10910971  21.046  44.818  14.897
    1STR   C11010972  21.165  44.880  14.943
    1STR   H11110973  21.168  44.985  14.912
    1STR   C11210974  21.174  44.871  15.096
    1STR   H11310975  21.167  44.767  15.130
    1STR   H11410976  21.095  44.928  15.146
    1STR   H11510977  21.269  44.911  15.132
    1STR   C11610978  21.283  44.808  14.876
    1STR   H11710979  21.285  44.703  14.906
    1STR   H11810980  21.269  44.810  14.768
    1STR   O11910981  21.405  44.873  14.911
    1STR   C12010982  21.523  44.813  14.859
    1STR   H12110983  21.518  44.705  14.868
    1STR   C12210984  21.540  44.853  14.711
    1STR   H12310985  21.541  44.962  14.699
    1STR   H12410986  21.461  44.813  14.648
    1STR   H12510987  21.635  44.815  14.672
    1STR   C12610988  21.641  44.862  14.944
    1STR   H12710989  21.651  44.971  14.936
    1STR   H12810990  21.621  44.840  15.049
    1STR   O12910991  21.761  44.798  14.901
    1STR   C13010992  21.879  44.837  14.970
    1STR   H13110993  21.880  44.946  14.983
    1STR   C13210994  21.886  44.767  15.107
    1STR   H13310995  21.879  44.659  15.096
    1STR   H13410996  21.806  44.799  15.173
    1STR   H13510997  21.980  44.790  15.157
    1STR   C13610998  21.998  44.799  14.881
    1STR   H13710999  22.001  44.691  14.867
    1STR   H13811000  21.985  44.844  14.783
    1STR   O13911001  22.119  44.845  14.942
    1STR   C14011002  22.238  44.812  14.871
    1STR   H14111003  22.234  44.709  14.836
    1STR   C14211004  22.257  44.908  14.752
    1STR   H14311005  22.256  45.012  14.785
    1STR   H14411006  22.179  44.896  14.677
    1STR   H14511007  22.352  44.889  14.702
    1STR   C14611008  22.355  44.823  14.971
    1STR   H14711009  22.363  44.926  15.007
    1STR   H14811010  22.334  44.760  15.057
    1STR   O14911011  22.476  44.782  14.907
    1STR   C15011012  22.593  44.792  14.988
    1STR   H15111013  22.593  44.886  15.043
    1STR   C15211014  22.599  44.673  15.085
    1STR   H15311015  22.594  44.578  15.032
    1STR   H15411016  22.518  44.675  15.158
    1STR   H15511017  22.692  44.674  15.142
    1STR   C15611018  22.713  44.793  14.893
    1STR   H15711019  22.718  44.699  14.837
    1STR   H15811020  22.701  44.873  14.820
    1STR   O15911021  22.833  44.812  14.968
    1STR   C16011022  22.953  44.811  14.892
    1STR   H16111023  22.951  44.730  14.819
    1STR   C16211024  22.972  44.946  14.822
    1STR   H16311025  22.970  45.028  14.893
    1STR   H16411026  22.895  44.965  14.747
    1STR   H16511027  23.068  44.950  14.770
    1STR   C16611028  23.069  44.782  14.990
    1STR   H16711029  23.075  44.862  15.064
    1STR   H16811030  23.047  44.690  15.044
    1STR   O16911031  23.191  44.771  14.917
    1STR   C17011032  23.307  44.748  14.997
    1STR   H17111033  23.305  44.812  15.085
    1STR   C17211034  23.313  44.600  15.039
    1STR   H17311035  23.310  44.535  14.952
    1STR   H17411036  23.231  44.572  15.105
    1STR   H17511037  23.406  44.580  15.092
    1STR   C17611038  23.429  44.788  14.912
    1STR   H17711039  23.435  44.724  14.823
    1STR   H17811040  23.416  44.890  14.877
    1STR   O17911041  23.547  44.776  14.991
    1STR   C18011042  23.668  44.806  14.922
    1STR   H18111043  23.668  44.761  14.823
    1STR   C18211044  23.686  44.959  14.912
    1STR   H18311045  23.682  45.006  15.010
    1STR   H18411046  23.609  45.005  14.849
    1STR   H18511047  23.782  44.983  14.867
    1STR   C18611048  23.783  44.742  15.002
    1STR   H18711049  23.787  44.786  15.102
    1STR   H18811050  23.762  44.636  15.015
    1STR   O18911051  23.906  44.761  14.933
    1STR   C19011052  24.021  44.710  14.998
    1STR   H19111053  24.017  44.733  15.105
    1STR   C19211054  24.029  44.557  14.978
    1STR   H19311055  24.027  44.532  14.872
    1STR   H19411056  23.946  44.505  15.026
    1STR   H19511057  24.121  44.518  15.021
    1STR   C19611058  24.143  44.781  14.938
    1STR   H19711059  24.151  44.758  14.832
    1STR   H19811060  24.130  44.888  14.947
    1STR   O19911061  24.261  44.739  15.007
    1STR   C20011062  24.382  44.795  14.959
    1STR   H20111063  24.383  44.794  14.850
    1STR   C20211064  24.398  44.939  15.011
    1STR   H20311065  24.393  44.942  15.119
    1STR   H20411066  24.322  45.006  14.971
    1STR   H20511067  24.495  44.980  14.981
    1STR   C20611068  24.497  44.705  15.008
    1STR   H20711069  24.500  44.705  15.117
    1STR   H20811070  24.477  44.602  14.976
    1STR   O20911071  24.620  44.751  14.954
    1STR   C21011072  24.736  44.678  14.995
    1STR   H21111073  24.731  44.657  15.102
    1STR   C21211074  24.746  44.547  14.916
    1STR   H21311075  24.746  44.566  14.808
    1STR   H21411076  24.663  44.479  14.938
    1STR   H21511077  24.838  44.494  14.940
    1STR   C21611078  24.858  44.768  14.970
    1STR   H21711079  24.867  44.790  14.864
    1STR   H21811080  24.843  44.863  15.021
    1STR   O21911081  24.975  44.704  15.019
    1STR   C22011082  25.097  44.775  14.998
    1STR   H22111083  25.099  44.818  14.898
    1STR   C22211084  25.110  44.886  15.103
    1STR   H22311085  25.103  44.846  15.204
    1STR   H22411086  25.033  44.963  15.092
    1STR   H22511087  25.206  44.937  15.094
    1STR   C22611088  25.212  44.674  15.009
    1STR   H22711089  25.214  44.630  15.109
    1STR   H22811090  25.194  44.592  14.939
    1STR   O22911091  25.335  44.739  14.980
    1STR   C23011092  25.451  44.656  14.990
    1STR   H23111093  25.445  44.594  15.080
    1STR   C23211094  25.464  44.568  14.865
    1STR   H23311095  25.465  44.628  14.775
    1STR   H23411096  25.382  44.496  14.857
    1STR   H23511097  25.556  44.510  14.868
    1STR   C23611098  25.572  44.750  15.006
    1STR   H23711099  25.582  44.812  14.917
    1STR   H23811100  25.556  44.816  15.090
    1STR   O23911101  25.690  44.672  15.026
    1STR   C24011102  25.811  44.746  15.038
    1STR   H24111103  25.814  44.826  14.963
    1STR   C24211104  25.822  44.806  15.179
    1STR   H24311105  25.814  44.729  15.255
    1STR   H24411106  25.744  44.880  15.198
    1STR   H24511107  25.918  44.857  15.192
    1STR   C24611108  25.928  44.650  15.009
    1STR   H24711109  25.929  44.570  15.083
    1STR   H24811110  25.912  44.604  14.911
    1STR   O24911111  26.051  44.722  15.010
    1STR   C25011112  26.168  44.643  14.988
    1STR   H25111113  26.162  44.550  15.045
    1STR   C25211114  26.182  44.612  14.838
    1STR   H25311115  26.183  44.704  14.779
    1STR   H25411116  26.101  44.549  14.801
    1STR   H25511117  26.275  44.559  14.819
    1STR   C25611118  26.288  44.723  15.041
    1STR   H25711119  26.298  44.817  14.985
    1STR   H25811120  26.270  44.750  15.145
    1STR   O25911121  26.407  44.645  15.029
    1STR   C26011122  26.527  44.709  15.072
    1STR   H26111123  26.529  44.812  15.035
    1STR   C26211124  26.534  44.708  15.226
    1STR   H26311125  26.526  44.607  15.265
    1STR   H26411126  26.455  44.768  15.271
    1STR   H26511127  26.629  44.749  15.260
    1STR   C26611128  26.645  44.633  15.010
    1STR   H26711129  26.646  44.530  15.045
    1STR   H26811130  26.631  44.630  14.902
    1STR   O26911131  26.768  44.699  15.042
    1STR   C27011132  26.886  44.637  14.992
    1STR   H27111133  26.881  44.529  15.007
    1STR   C27211134  26.902  44.669  14.842
    1STR   H27311135  26.902  44.776  14.825
    1STR   H27411136  26.822  44.625  14.782
    1STR   H27511137  26.996  44.629  14.804
    1STR   C27611138  27.006  44.690  15.073
    1STR   H27711139  27.015  44.798  15.060
    1STR   H27811140  26.986  44.672  15.179
    1STR   O27911141  27.126  44.624  15.033
    1STR   C28011142  27.245  44.666  15.100
    1STR   H28111143  27.247  44.775  15.107
    1STR   C28211144  27.250  44.604  15.240
    1STR   H28311145  27.242  44.495  15.235
    1STR   H28411146  27.170  44.640  15.305
    1STR   H28511147  27.344  44.628  15.289
    1STR   C28611148  27.366  44.623  15.015
    1STR   H28711149  27.367  44.514  15.005
    1STR   H28811150  27.354  44.663  14.914
    1STR   O28911151  27.488  44.669  15.073
    1STR   C29011152  27.608  44.634  15.003
    1STR   H29111153  27.604  44.529  14.974
    1STR   C29211154  27.623  44.723  14.879
    1STR   H29311155  27.621  44.829  14.906
    1STR   H29411156  27.545  44.706  14.806
    1STR   H29511157  27.719  44.704  14.830
    1STR   C29611158  27.727  44.652  15.100
    1STR   H29711159  27.733  44.756  15.133
    1STR   H29811160  27.708  44.593  15.190
    1STR   O29911161  27.850  44.612  15.039
    1STR   C30011162  27.967  44.626  15.120
    1STR   H30111163  27.964  44.722  15.172
    1STR   C30211164  27.973  44.511  15.222
    1STR   H30311165  27.967  44.414  15.173
    1STR   H30411166  27.891  44.516  15.295
    1STR   H30511167  28.066  44.514  15.279
    1STR   C30611168  28.092  44.626  15.029
    1STR   H30711169  28.102  44.529  14.979
    1STR   H30811170  28.075  44.700  14.950
    1STR   O30911171  28.211  44.658  15.103
    1STR    H1R11172  28.340  44.573  14.966
    1STR    H1S11173  28.431  44.798  14.888
    1STR    H1T11174  28.320  44.878  14.999
    1STR    H1U11175  28.258  44.787  14.862
    1STR    H1V11176  28.445  44.582  15.196
    1STR    H1W11177  28.453  44.756  15.185
    1STR    H1X11178  28.759  44.606  14.948
    1STR    H1Y11179  28.941  44.607  14.808
    1STR    H1Z11180  29.160  44.695  14.746
    1STR    H2011181  29.306  45.002  14.879
    1STR    H2111182  29.390  44.846  14.894
    1STR    H2211183  29.304  44.887  14.746
    1STR    H2311184  29.101  45.058  15.129
    1STR    H2711185  28.932  44.871  15.150
    1STR    H2811186  16.383  44.881  14.655
    1STR    H2911187  16.155  44.806  14.636
    1STR    H2A11188  15.915  44.785  14.906
    1STR    H2B11189  15.956  44.736  14.743
    1STR    H2C11190  15.883  44.895  14.770
    1STR   BCK111191  15.901  45.132  30.170
    1STR    O0311192  15.848  45.214  30.244
    1STR    N0411193  16.026  45.143  30.119
    1STR    C0511194  16.118  45.250  30.125
    1STR    C0611195  16.258  45.225  30.143
    1STR    C0711196  16.357  45.329  30.144
    1STR    N0811197  16.496  45.301  30.156
    1STR    C0911198  16.601  45.384  30.175
    1STR    O0A11199  16.590  45.505  30.194
    1STR    O0B11200  16.722  45.321  30.170
    1STR    C0C11201  16.844  45.395  30.193
    1STR    C0D11202  16.863  45.416  30.345
    1STR    C0E11203  16.969  45.327  30.131
    1STR    O0F11204  17.089  45.403  30.158
    1STR    C0G11205  17.212  45.351  30.105
    1STR    C0H11206  17.221  45.385  29.955
    1STR    C0I11207  17.333  45.412  30.181
    1STR    O0J11208  17.456  45.355  30.133
    1STR    C0K11209  28.340  45.451  29.802
    1STR    C0M11210  28.331  45.428  29.954
    1STR    C0N11211  28.463  45.374  29.746
    1STR    O0O11212  28.586  45.432  29.794
    1STR    C0P11213  28.685  45.359  29.851
    1STR    O0Q11214  28.680  45.240  29.880
    1STR    N0R11215  28.788  45.440  29.872
    1STR    C0S11216  28.916  45.430  29.929
    1STR    C0T11217  28.991  45.549  29.922
    1STR    C0U11218  29.117  45.560  29.983
    1STR    C0V11219  29.172  45.451  30.052
    1STR    C0W11220  29.301  45.476  30.129
    1STR    C0X11221  29.106  45.325  30.053
    1STR    N0Y11222  29.165  45.217  30.122
    1STR   BCK211223  29.292  45.173  30.106
    1STR    O1011224  29.363  45.201  30.010
    1STR    C1311225  28.975  45.317  29.993
    1STR    C1411226  16.310  45.461  30.128
    1STR    C1511227  16.174  45.488  30.108
    1STR    C1611228  16.079  45.385  30.103
    1STR    C1711229  15.937  45.425  30.065
    1STR    H1B11230  16.056  45.060  30.071
    1STR    H1C11231  16.291  45.123  30.157
    1STR    H1D11232  16.525  45.205  30.149
    1STR    H1E11233  16.834  45.493  30.146
    1STR    H1F11234  16.874  45.321  30.397
    1STR    H1G11235  16.953  45.475  30.364
    1STR    H1H11236  16.779  45.470  30.388
    1STR    H1I11237  16.954  45.318  30.023
    1STR    H1J11238  16.980  45.226  30.170
    1STR    H1K11239  17.215  45.243  30.119
    1STR    H1M11240  17.215  45.492  29.939
    1STR    H1N11241  17.142  45.337  29.897
    1STR    H1O11242  17.316  45.351  29.914
    1STR    H1P11243  17.334  45.520  30.169
    1STR    H1Q11244  17.321  45.393  30.288
    1STR   C01011245  17.576  45.406  30.191
    1STR   H01111246  17.573  45.515  30.196
    1STR   C01211247  17.595  45.348  30.332
    1STR   H01311248  17.595  45.239  30.331
    1STR   H01411249  17.517  45.381  30.401
    1STR   H01511250  17.691  45.380  30.375
    1STR   C01611251  17.695  45.367  30.100
    1STR   H01711252  17.702  45.259  30.092
    1STR   H01811253  17.677  45.405  30.000
    1STR   O01911254  17.819  45.420  30.151
    1STR   C02011255  17.936  45.386  30.077
    1STR   H02111256  17.934  45.281  30.049
    1STR   C02211257  17.944  45.473  29.950
    1STR   H02311258  17.942  45.579  29.975
    1STR   H02411259  17.863  45.453  29.881
    1STR   H02511260  18.037  45.454  29.896
    1STR   C02611261  18.060  45.409  30.166
    1STR   H02711262  18.066  45.513  30.196
    1STR   H02811263  18.049  45.350  30.258
    1STR   O02911264  18.179  45.370  30.097
    1STR   C03011265  18.302  45.389  30.168
    1STR   H03111266  18.301  45.487  30.217
    1STR   C03211267  18.320  45.278  30.273
    1STR   H03311268  18.317  45.180  30.226
    1STR   H03411269  18.244  45.282  30.350
    1STR   H03511270  18.417  45.288  30.322
    1STR   C03611271  18.418  45.389  30.066
    1STR   H03711272  18.422  45.292  30.015
    1STR   H03811273  18.398  45.464  29.989
    1STR   O03911274  18.541  45.416  30.132
    1STR   C04011275  18.658  45.414  30.049
    1STR   H04111276  18.654  45.328  29.981
    1STR   C04211277  18.666  45.544  29.968
    1STR   H04311278  18.666  45.631  30.033
    1STR   H04411279  18.584  45.554  29.897
    1STR   H04511280  18.759  45.547  29.910
    1STR   C04611281  18.781  45.396  30.140
    1STR   H04711282  18.789  45.481  30.208
    1STR   H04811283  18.768  45.307  30.201
    1STR   O04911284  18.899  45.385  30.060
    1STR   C05011285  19.021  45.373  30.132
    1STR   H05111286  19.022  45.443  30.216
    1STR   C05211287  19.037  45.229  30.184
    1STR   H05311288  19.031  45.157  30.102
    1STR   H05411289  18.961  45.203  30.257
    1STR   H05511290  19.134  45.216  30.233
    1STR   C05611291  19.136  45.411  30.038
    1STR   H05711292  19.139  45.343  29.953
    1STR   H05811293  19.117  45.511  29.997
    1STR   O05911294  19.260  45.409  30.109
    1STR   C06011295  19.375  45.439  30.031
    1STR   H06111296  19.370  45.388  29.935
    1STR   C06211297  19.386  45.591  30.009
    1STR   H06311298  19.387  45.644  30.104
    1STR   H06411299  19.304  45.630  29.949
    1STR   H06511300  19.478  45.616  29.957
    1STR   C06611301  19.498  45.385  30.107
    1STR   H06711302  19.507  45.435  30.203
    1STR   H06811303  19.483  45.279  30.127
    1STR   O06911304  19.615  45.404  30.028
    1STR   C07011305  19.737  45.362  30.089
    1STR   H07111306  19.739  45.392  30.194
    1STR   C07211307  19.750  45.209  30.079
    1STR   H07311308  19.743  45.176  29.975
    1STR   H07411309  19.673  45.157  30.135
    1STR   H07511310  19.847  45.176  30.117
    1STR   C07611311  19.852  45.433  30.017
    1STR   H07711312  19.854  45.404  29.912
    1STR   H07811313  19.835  45.541  30.020
    1STR   O07911314  19.976  45.401  30.080
    1STR   C08011315  20.092  45.457  30.020
    1STR   H08111316  20.086  45.449  29.911
    1STR   C08211317  20.105  45.605  30.061
    1STR   H08311318  20.106  45.616  30.169
    1STR   H08411319  20.024  45.666  30.022
    1STR   H08511320  20.198  45.648  30.022
    1STR   C08611321  20.213  45.375  30.067
    1STR   H08711322  20.223  45.383  30.176
    1STR   H08811323  20.196  45.270  30.044
    1STR   O08911324  20.331  45.423  30.002
    1STR   C09011325  20.451  45.357  30.041
    1STR   H09111326  20.454  45.344  30.149
    1STR   C09211327  20.462  45.221  29.970
    1STR   H09311328  20.455  45.232  29.862
    1STR   H09411329  20.384  45.152  30.002
    1STR   H09511330  20.558  45.174  29.992
    1STR   C09611331  20.568  45.450  30.002
    1STR   H09711332  20.569  45.465  29.894
    1STR   H09811333  20.552  45.548  30.047
    1STR   O09911334  20.691  45.393  30.047
    1STR   C10011335  20.807  45.468  30.013
    1STR   H10111336  20.802  45.503  29.910
    1STR   C10211337  20.823  45.587  30.109
    1STR   H10311338  20.824  45.554  30.213
    1STR   H10411339  20.742  45.659  30.098
    1STR   H10511340  20.916  45.640  30.090
    1STR   C10611341  20.927  45.372  30.023
    1STR   H10711342  20.937  45.335  30.126
    1STR   H10811343  20.909  45.285  29.960
    1STR   O10911344  21.046  45.439  29.982
    1STR   C11011345  21.165  45.362  29.990
    1STR   H11111346  21.168  45.306  30.084
    1STR   C11211347  21.174  45.266  29.871
    1STR   H11311348  21.167  45.319  29.776
    1STR   H11411349  21.095  45.191  29.872
    1STR   H11511350  21.269  45.212  29.871
    1STR   C11611351  21.283  45.461  29.991
    1STR   H11711352  21.285  45.517  29.898
    1STR   H11811353  21.269  45.532  30.072
    1STR   O11911354  21.405  45.389  30.008
    1STR   C12011355  21.523  45.469  30.007
    1STR   H12111356  21.518  45.542  29.927
    1STR   C12211357  21.540  45.539  30.142
    1STR   H12311358  21.541  45.467  30.224
    1STR   H12411359  21.461  45.611  30.162
    1STR   H12511360  21.635  45.594  30.146
    1STR   C12611361  21.641  45.375  29.977
    1STR   H12711362  21.651  45.300  30.056
    1STR   H12811363  21.621  45.321  29.884
    1STR   O12911364  21.761  45.451  29.965
    1STR   C13011365  21.879  45.376  29.941
    1STR   H13111366  21.880  45.287  30.004
    1STR   C13211367  21.886  45.335  29.793
    1STR   H13311368  21.879  45.422  29.728
    1STR   H13411369  21.805  45.267  29.765
    1STR   H13511370  21.980  45.284  29.771
    1STR   C13611371  21.998  45.464  29.980
    1STR   H13711372  22.001  45.553  29.917
    1STR   H13811373  21.985  45.498  30.083
    1STR   O13911374  22.119  45.389  29.967
    1STR   C14011375  22.238  45.461  29.997
    1STR   H14111376  22.234  45.561  29.953
    1STR   C14211377  22.257  45.471  30.149
    1STR   H14311378  22.256  45.372  30.195
    1STR   H14411379  22.179  45.531  30.196
    1STR   H14511380  22.352  45.519  30.173
    1STR   C14611381  22.355  45.386  29.931
    1STR   H14711382  22.363  45.285  29.973
    1STR   H14811383  22.334  45.373  29.824
    1STR   O14911384  22.476  45.459  29.950
    1STR   C15011385  22.593  45.397  29.897
    1STR   H15111386  22.593  45.290  29.920
    1STR   C15211387  22.599  45.419  29.745
    1STR   H15311388  22.594  45.525  29.720
    1STR   H15411389  22.518  45.368  29.693
    1STR   H15511390  22.692  45.379  29.704
    1STR   C15611391  22.714  45.461  29.967
    1STR   H15711392  22.718  45.567  29.945
    1STR   H15811393  22.701  45.450  30.075
    1STR   O15911394  22.833  45.395  29.925
    1STR   C16011395  22.953  45.448  29.980
    1STR   H16111396  22.951  45.557  29.980
    1STR   C16211397  22.972  45.396  30.123
    1STR   H16311398  22.970  45.287  30.126
    1STR   H16411399  22.895  45.433  30.191
    1STR   H16511400  23.068  45.428  30.164
    1STR   C16611401  23.069  45.403  29.889
    1STR   H16711402  23.075  45.294  29.888
    1STR   H16811403  23.047  45.434  29.787
    1STR   O16911404  23.191  45.460  29.934
    1STR   C17011405  23.307  45.423  29.861
    1STR   H17111406  23.305  45.316  29.839
    1STR   C17211407  23.313  45.504  29.730
    1STR   H17311408  23.310  45.611  29.749
    1STR   H17411409  23.231  45.480  29.662
    1STR   H17511410  23.406  45.483  29.676
    1STR   C17611411  23.428  45.451  29.950
    1STR   H17711412  23.434  45.558  29.972
    1STR   H17811413  23.416  45.399  30.045
    1STR   O17911414  23.547  45.407  29.884
    1STR   C18011415  23.668  45.431  29.955
    1STR   H18111416  23.667  45.531  29.998
    1STR   C18211417  23.686  45.326  30.065
    1STR   H18311418  23.682  45.225  30.024
    1STR   H18411419  23.609  45.334  30.142
    1STR   H18511420  23.782  45.338  30.115
    1STR   C18611421  23.783  45.424  29.852
    1STR   H18711422  23.787  45.325  29.808
    1STR   H18811423  23.762  45.495  29.772
    1STR   O18911424  23.906  45.457  29.917
    1STR   C19011425  24.021  45.451  29.833
    1STR   H19111426  24.017  45.361  29.771
    1STR   C19211427  24.029  45.577  29.745
    1STR   H19311428  24.028  45.667  29.806
    1STR   H19411429  23.947  45.583  29.675
    1STR   H19511430  24.121  45.577  29.687
    1STR   C19611431  24.143  45.439  29.926
    1STR   H19711432  24.151  45.528  29.989
    1STR   H19811433  24.130  45.353  29.992
    1STR   O19911434  24.261  45.423  29.847
    1STR   C20011435  24.383  45.415  29.920
    1STR   H20111436  24.384  45.489  30.000
    1STR   C20211437  24.398  45.273  29.979
    1STR   H20311438  24.393  45.197  29.901
    1STR   H20411439  24.322  45.251  30.053
    1STR   H20511440  24.495  45.263  30.029
    1STR   C20611441  24.497  45.448  29.823
    1STR   H20711442  24.500  45.375  29.743
    1STR   H20811443  24.478  45.545  29.778
    1STR   O20911444  24.621  45.450  29.894
    1STR   C21011445  24.736  45.476  29.815
    1STR   H21111446  24.731  45.420  29.722
    1STR   C21211447  24.746  45.627  29.785
    1STR   H21311448  24.746  45.685  29.877
    1STR   H21411449  24.664  45.662  29.723
    1STR   H21511450  24.838  45.649  29.731
    1STR   C21611451  24.858  45.427  29.894
    1STR   H21711452  24.867  45.482  29.987
    1STR   H21811453  24.843  45.322  29.920
    1STR   O21911454  24.975  45.442  29.814
    1STR   C22011455  25.097  45.403  29.878
    1STR   H22111456  25.099  45.439  29.981
    1STR   C22211457  25.110  45.249  29.875
    1STR   H22311458  25.103  45.211  29.773
    1STR   H22411459  25.033  45.200  29.935
    1STR   H22511460  25.207  45.218  29.916
    1STR   C22611461  25.212  45.470  29.801
    1STR   H22711462  25.214  45.435  29.698
    1STR   H22811463  25.195  45.577  29.798
    1STR   O22911464  25.336  45.441  29.866
    1STR   C23011465  25.452  45.495  29.803
    1STR   H23111466  25.446  45.481  29.695
    1STR   C23211467  25.464  45.645  29.836
    1STR   H23311468  25.465  45.662  29.943
    1STR   H23411469  25.382  45.703  29.793
    1STR   H23511470  25.557  45.686  29.795
    1STR   C23611471  25.573  45.417  29.855
    1STR   H23711472  25.583  45.430  29.963
    1STR   H23811473  25.557  45.310  29.837
    1STR   O23911474  25.691  45.461  29.788
    1STR   C24011475  25.812  45.397  29.829
    1STR   H24111476  25.815  45.389  29.938
    1STR   C24211477  25.822  45.258  29.766
    1STR   H24311478  25.815  45.263  29.657
    1STR   H24411479  25.745  45.190  29.802
    1STR   H24511480  25.918  45.212  29.790
    1STR   C24611481  25.929  45.488  29.785
    1STR   H24711482  25.930  45.497  29.677
    1STR   H24811483  25.913  45.588  29.826
    1STR   O24911484  26.052  45.433  29.833
    1STR   C25011485  26.169  45.506  29.796
    1STR   H25111486  26.163  45.536  29.691
    1STR   C25211487  26.183  45.631  29.885
    1STR   H25311488  26.184  45.603  29.991
    1STR   H25411489  26.102  45.702  29.870
    1STR   H25511490  26.276  45.683  29.864
    1STR   C25611491  26.290  45.412  29.812
    1STR   H25711492  26.300  45.381  29.916
    1STR   H25811493  26.272  45.322  29.753
    1STR   O25911494  26.409  45.478  29.767
    1STR   C26011495  26.529  45.401  29.779
    1STR   H26111496  26.532  45.350  29.875
    1STR   C26211497  26.536  45.298  29.665
    1STR   H26311498  26.528  45.347  29.567
    1STR   H26411499  26.457  45.224  29.672
    1STR   H26511500  26.631  45.245  29.667
    1STR   C26611501  26.648  45.499  29.773
    1STR   H26711502  26.649  45.551  29.678
    1STR   H26811503  26.635  45.575  29.851
    1STR   O26911504  26.771  45.429  29.793
    1STR   C27011505  26.889  45.509  29.789
    1STR   H27111506  26.884  45.578  29.705
    1STR   C27211507  26.904  45.586  29.921
    1STR   H27311508  26.904  45.519  30.006
    1STR   H27411509  26.825  45.659  29.935
    1STR   H27511510  26.999  45.641  29.923
    1STR   C27611511  27.010  45.415  29.765
    1STR   H27711512  27.018  45.344  29.848
    1STR   H27811513  26.991  45.357  29.675
    1STR   O27911514  27.131  45.491  29.751
    1STR   C28011515  27.250  45.414  29.730
    1STR   H28111516  27.252  45.329  29.798
    1STR   C28211517  27.254  45.366  29.584
    1STR   H28311518  27.245  45.449  29.514
    1STR   H28411519  27.174  45.295  29.562
    1STR   H28511520  27.348  45.315  29.563
    1STR   C28611521  27.372  45.503  29.762
    1STR   H28711522  27.373  45.590  29.696
    1STR   H28811523  27.361  45.541  29.864
    1STR   O28911524  27.494  45.430  29.750
    1STR   C29011525  27.615  45.502  29.778
    1STR   H29111526  27.612  45.599  29.728
    1STR   C29211527  27.629  45.521  29.930
    1STR   H29311528  27.626  45.425  29.982
    1STR   H29411529  27.552  45.585  29.971
    1STR   H29511530  27.725  45.567  29.954
    1STR   C29611531  27.735  45.423  29.720
    1STR   H29711532  27.739  45.324  29.766
    1STR   H29811533  27.717  45.407  29.613
    1STR   O29911534  27.859  45.493  29.740
    1STR   C30011535  27.976  45.426  29.691
    1STR   H30111536  27.971  45.320  29.717
    1STR   C30211537  27.985  45.443  29.539
    1STR   H30311538  27.980  45.548  29.510
    1STR   H30411539  27.904  45.391  29.487
    1STR   H30511540  28.078  45.403  29.500
    1STR   C30611541  28.101  45.486  29.762
    1STR   H30711542  28.116  45.589  29.730
    1STR   H30811543  28.080  45.489  29.869
    1STR   O30911544  28.219  45.407  29.737
    1STR    H1R11545  28.354  45.557  29.782
    1STR    H1S11546  28.425  45.453  30.003
    1STR    H1T11547  28.309  45.323  29.976
    1STR    H1U11548  28.254  45.488  30.001
    1STR    H1V11549  28.464  45.381  29.637
    1STR    H1W11550  28.457  45.268  29.769
    1STR    H1X11551  28.764  45.530  29.836
    1STR    H1Y11552  28.952  45.636  29.872
    1STR    H1Z11553  29.169  45.654  29.979
    1STR    H2011554  29.301  45.421  30.223
    1STR    H2111555  29.387  45.444  30.070
    1STR    H2211556  29.313  45.581  30.153
    1STR    H2311557  29.111  45.173  30.194
    1STR    H2711558  28.920  45.224  29.997
    1STR    H2811559  16.376  45.546  30.127
    1STR    H2911560  16.143  45.590  30.093
    1STR    H2A11561  15.888  45.347  30.007
    1STR    H2B11562  15.937  45.515  30.003
    1STR    H2C11563  15.879  45.446  30.154
    1STR   BCK111564  15.892  44.990  45.180
    1STR    O0311565  15.878  44.887  45.115
    1STR    N0411566  16.009  45.029  45.234
    1STR    C0511567  16.118  44.945  45.265
    1STR    C0611568  16.252  44.971  45.223
    1STR    C0711569  16.362  44.887  45.264
    1STR    N0811570  16.496  44.914  45.226
    1STR    C0911571  16.611  44.852  45.261
    1STR    O0A11572  16.617  44.754  45.335
    1STR    O0B11573  16.724  44.907  45.206
    1STR    C0C11574  16.852  44.841  45.227
    1STR    C0D11575  16.867  44.728  45.124
    1STR    C0E11576  16.974  44.937  45.222
    1STR    O0F11577  17.094  44.863  45.251
    1STR    C0G11578  17.217  44.937  45.256
    1STR    C0H11579  17.226  45.012  45.390
    1STR    C0I11580  17.337  44.840  45.241
    1STR    O0J11581  17.460  44.913  45.238
    1STR    C0K11582  28.330  45.068  45.579
    1STR    C0M11583  28.336  44.991  45.446
    1STR    C0N11584  28.450  45.164  45.591
    1STR    O0O11585  28.571  45.092  45.617
    1STR    C0P11586  28.680  45.102  45.538
    1STR    O0Q11587  28.689  45.171  45.438
    1STR    N0R11588  28.774  45.020  45.585
    1STR    C0S11589  28.897  44.980  45.532
    1STR    C0T11590  28.940  44.850  45.565
    1STR    C0U11591  29.056  44.796  45.508
    1STR    C0V11592  29.135  44.872  45.420
    1STR    C0W11593  29.246  44.800  45.345
    1STR    C0X11594  29.102  45.008  45.397
    1STR    N0Y11595  29.180  45.090  45.314
    1STR   BCK211596  29.312  45.115  45.309
    1STR    O1011597  29.356  45.184  45.218
    1STR    C1311598  28.980  45.059  45.449
    1STR    C1411599  16.330  44.775  45.345
    1STR    C1511600  16.199  44.751  45.389
    1STR    C1611601  16.094  44.837  45.354
    1STR    C1711602  15.958  44.812  45.417
    1STR    H1B11603  16.012  45.123  45.269
    1STR    H1C11604  16.271  45.056  45.160
    1STR    H1D11605  16.513  44.992  45.164
    1STR    H1E11606  16.853  44.798  45.327
    1STR    H1F11607  16.870  44.765  45.022
    1STR    H1G11608  16.960  44.672  45.142
    1STR    H1H11609  16.785  44.656  45.132
    1STR    H1I11610  16.960  45.017  45.295
    1STR    H1J11611  16.982  44.984  45.124
    1STR    H1K11612  17.221  45.008  45.173
    1STR    H1M11613  17.219  44.943  45.474
    1STR    H1N11614  17.147  45.086  45.401
    1STR    H1O11615  17.321  45.064  45.398
    1STR    H1P11616  17.337  44.768  45.323
    1STR    H1Q11617  17.325  44.783  45.149
    1STR   C01011618  17.580  44.835  45.230
    1STR   H01111619  17.575  44.752  45.301
    1STR   C01211620  17.599  44.782  45.087
    1STR   H01311621  17.599  44.863  45.015
    1STR   H01411622  17.521  44.711  45.059
    1STR   H01511623  17.694  44.730  45.078
    1STR   C01611624  17.699  44.925  45.271
    1STR   H01711625  17.706  45.011  45.204
    1STR   H01811626  17.680  44.965  45.371
    1STR   O01911627  17.822  44.851  45.270
    1STR   C02011628  17.939  44.926  45.303
    1STR   H02111629  17.937  45.023  45.252
    1STR   C02211630  17.947  44.947  45.455
    1STR   H02311631  17.945  44.852  45.508
    1STR   H02411632  17.866  45.009  45.493
    1STR   H02511633  18.040  44.998  45.482
    1STR   C02611634  18.063  44.849  45.252
    1STR   H02711635  18.069  44.752  45.301
    1STR   H02811636  18.051  44.830  45.145
    1STR   O02911637  18.181  44.925  45.276
    1STR   C03011638  18.304  44.862  45.237
    1STR   H03111639  18.303  44.757  45.267
    1STR   C03211640  18.322  44.874  45.085
    1STR   H03311641  18.318  44.978  45.052
    1STR   H03411642  18.246  44.818  45.030
    1STR   H03511643  18.419  44.833  45.054
    1STR   C03611644  18.419  44.932  45.312
    1STR   H03711645  18.424  45.037  45.284
    1STR   H03811646  18.399  44.928  45.419
    1STR   O03911647  18.543  44.867  45.282
    1STR   C04011648  18.659  44.925  45.342
    1STR   H04111649  18.655  45.033  45.334
    1STR   C04211650  18.667  44.883  45.490
    1STR   H04311651  18.667  44.774  45.500
    1STR   H04411652  18.585  44.923  45.549
    1STR   H04511653  18.760  44.920  45.534
    1STR   C04611654  18.782  44.876  45.263
    1STR   H04711655  18.790  44.767  45.270
    1STR   H04811656  18.769  44.900  45.158
    1STR   O04911657  18.900  44.938  45.314
    1STR   C05011658  19.022  44.898  45.252
    1STR   H05111659  19.023  44.790  45.238
    1STR   C05211660  19.038  44.969  45.117
    1STR   H05311661  19.032  45.078  45.129
    1STR   H05411662  18.961  44.939  45.045
    1STR   H05511663  19.134  44.946  45.072
    1STR   C05611664  19.137  44.934  45.348
    1STR   H05711665  19.140  45.042  45.364
    1STR   H05811666  19.118  44.888  45.445
    1STR   O05911667  19.260  44.888  45.294
    1STR   C06011668  19.376  44.918  45.372
    1STR   H06111669  19.371  45.021  45.408
    1STR   C06211670  19.386  44.821  45.490
    1STR   H06311671  19.387  44.717  45.456
    1STR   H06411672  19.304  44.833  45.561
    1STR   H06511673  19.479  44.838  45.546
    1STR   C06611674  19.498  44.907  45.279
    1STR   H06711675  19.508  44.805  45.242
    1STR   H06811676  19.483  44.971  45.192
    1STR   O06911677  19.616  44.946  45.350
    1STR   C07011678  19.737  44.936  45.276
    1STR   H07111679  19.740  44.842  45.220
    1STR   C07211680  19.750  45.056  45.181
    1STR   H07311681  19.744  45.150  45.235
    1STR   H07411682  19.674  45.056  45.104
    1STR   H07511683  19.847  45.054  45.130
    1STR   C07611684  19.853  44.932  45.378
    1STR   H07711685  19.854  45.025  45.436
    1STR   H07811686  19.835  44.851  45.449
    1STR   O07911687  19.976  44.913  45.309
    1STR   C08011688  20.092  44.912  45.392
    1STR   H08111689  20.086  44.991  45.466
    1STR   C08211690  20.105  44.775  45.462
    1STR   H08311691  20.106  44.694  45.389
    1STR   H08411692  20.024  44.757  45.532
    1STR   H08511693  20.198  44.770  45.519
    1STR   C08611694  20.213  44.940  45.302
    1STR   H08711695  20.223  44.862  45.227
    1STR   H08811696  20.196  45.034  45.248
    1STR   O08911697  20.331  44.950  45.382
    1STR   C09011698  20.452  44.972  45.310
    1STR   H09111699  20.454  44.909  45.220
    1STR   C09211700  20.462  45.120  45.270
    1STR   H09311701  20.455  45.185  45.358
    1STR   H09411702  20.385  45.150  45.200
    1STR   H09511703  20.558  45.140  45.222
    1STR   C09611704  20.568  44.930  45.401
    1STR   H09711705  20.569  44.992  45.491
    1STR   H09811706  20.552  44.827  45.433
    1STR   O09911707  20.691  44.941  45.329
    1STR   C10011708  20.807  44.909  45.404
    1STR   H10111709  20.802  44.952  45.504
    1STR   C10211710  20.823  44.756  45.413
    1STR   H10311711  20.824  44.711  45.314
    1STR   H10411712  20.742  44.710  45.470
    1STR   H10511713  20.916  44.730  45.463
    1STR   C10611714  20.927  44.973  45.332
    1STR   H10711715  20.937  44.931  45.232
    1STR   H10811716  20.908  45.079  45.320
    1STR   O10911717  21.046  44.951  45.408
    1STR   C11011718  21.165  45.002  45.350
    1STR   H11111719  21.168  44.981  45.243
    1STR   C11211720  21.174  45.154  45.374
    1STR   H11311721  21.166  45.178  45.480
    1STR   H11411722  21.095  45.208  45.321
    1STR   H11511723  21.268  45.194  45.337
    1STR   C11611724  21.283  44.929  45.416
    1STR   H11711725  21.285  44.950  45.523
    1STR   H11811726  21.269  44.822  45.405
    1STR   O11911727  21.405  44.970  45.355
    1STR   C12011728  21.523  44.912  45.410
    1STR   H12111729  21.518  44.912  45.519
    1STR   C12211730  21.540  44.769  45.357
    1STR   H12311731  21.541  44.767  45.248
    1STR   H12411732  21.461  44.703  45.392
    1STR   H12511733  21.635  44.726  45.392
    1STR   C12611734  21.641  45.002  45.368
    1STR   H12711735  21.651  45.003  45.260
    1STR   H12811736  21.621  45.104  45.400
    1STR   O12911737  21.761  44.953  45.429
    1STR   C13011738  21.879  45.026  45.395
    1STR   H13111739  21.880  45.048  45.289
    1STR   C13211740  21.886  45.156  45.477
    1STR   H13311741  21.880  45.135  45.584
    1STR   H13411742  21.805  45.225  45.451
    1STR   H13511743  21.980  45.208  45.459
    1STR   C13611744  21.998  44.934  45.426
    1STR   H13711745  22.001  44.910  45.532
    1STR   H13811746  21.985  44.840  45.373
    1STR   O13911747  22.119  44.998  45.385
    1STR   C14011748  22.238  44.925  45.412
    1STR   H14111749  22.234  44.881  45.512
    1STR   C14211750  22.257  44.815  45.306
    1STR   H14311751  22.256  44.856  45.206
    1STR   H14411752  22.179  44.739  45.312
    1STR   H14511753  22.352  44.763  45.320
    1STR   C14611754  22.355  45.025  45.409
    1STR   H14711755  22.363  45.070  45.310
    1STR   H14811756  22.334  45.106  45.479
    1STR   O14911757  22.476  44.958  45.445
    1STR   C15011758  22.593  45.040  45.442
    1STR   H15111759  22.593  45.103  45.353
    1STR   C15211760  22.599  45.126  45.569
    1STR   H15311761  22.594  45.065  45.659
    1STR   H15411762  22.518  45.199  45.573
    1STR   H15511763  22.692  45.183  45.573
    1STR   C15611764  22.713  44.945  45.433
    1STR   H15711765  22.718  44.881  45.521
    1STR   H15811766  22.701  44.880  45.347
    1STR   O15911767  22.833  45.022  45.421
    1STR   C16011768  22.953  44.946  45.415
    1STR   H16111769  22.951  44.866  45.489
    1STR   C16211770  22.972  44.888  45.274
    1STR   H16311771  22.970  44.966  45.199
    1STR   H16411772  22.895  44.815  45.249
    1STR   H16511773  23.068  44.836  45.266
    1STR   C16611774  23.069  45.041  45.452
    1STR   H16711775  23.075  45.122  45.379
    1STR   H16811776  23.047  45.086  45.549
    1STR   O16911777  23.191  44.967  45.457
    1STR   C17011778  23.307  45.044  45.487
    1STR   H17111779  23.305  45.138  45.431
    1STR   C17211780  23.313  45.073  45.638
    1STR   H17311781  23.310  44.981  45.696
    1STR   H17411782  23.231  45.137  45.671
    1STR   H17511783  23.406  45.125  45.663
    1STR   C17611784  23.429  44.963  45.440
    1STR   H17711785  23.434  44.870  45.495
    1STR   H17811786  23.416  44.938  45.335
    1STR   O17911787  23.547  45.041  45.459
    1STR   C18011788  23.668  44.975  45.422
    1STR   H18111789  23.667  44.872  45.458
    1STR   C18211790  23.686  44.978  45.270
    1STR   H18311791  23.682  45.081  45.232
    1STR   H18411792  23.609  44.921  45.218
    1STR   H18511793  23.782  44.936  45.241
    1STR   C18611794  23.782  45.049  45.494
    1STR   H18711795  23.787  45.153  45.459
    1STR   H18811796  23.762  45.052  45.601
    1STR   O18911797  23.905  44.982  45.468
    1STR   C19011798  24.021  45.043  45.525
    1STR   H19111799  24.017  45.151  45.511
    1STR   C19211800  24.029  45.009  45.675
    1STR   H19311801  24.028  44.901  45.691
    1STR   H19411802  23.946  45.053  45.732
    1STR   H19511803  24.121  45.048  45.718
    1STR   C19611804  24.143  44.989  45.449
    1STR   H19711805  24.151  44.881  45.463
    1STR   H19811806  24.130  45.007  45.343
    1STR   O19911807  24.261  45.054  45.497
    1STR   C20011808  24.382  45.011  45.437
    1STR   H20111809  24.383  44.902  45.428
    1STR   C20211810  24.398  45.075  45.298
    1STR   H20311811  24.393  45.183  45.304
    1STR   H20411812  24.322  45.041  45.228
    1STR   H20511813  24.495  45.049  45.254
    1STR   C20611814  24.497  45.052  45.531
    1STR   H20711815  24.500  45.160  45.540
    1STR   H20811816  24.477  45.011  45.630
    1STR   O20911817  24.620  45.002  45.480
    1STR   C21011818  24.736  45.037  45.556
    1STR   H21111819  24.731  45.141  45.587
    1STR   C21211820  24.746  44.946  45.680
    1STR   H21311821  24.746  44.841  45.651
    1STR   H21411822  24.663  44.962  45.749
    1STR   H21511823  24.838  44.966  45.734
    1STR   C21611824  24.858  45.020  45.464
    1STR   H21711825  24.867  44.916  45.433
    1STR   H21811826  24.843  45.079  45.374
    1STR   O21911827  24.975  45.062  45.533
    1STR   C22011828  25.097  45.048  45.460
    1STR   H22111829  25.099  44.952  45.408
    1STR   C22211830  25.110  45.163  45.358
    1STR   H22311831  25.103  45.260  45.407
    1STR   H22411832  25.033  45.159  45.281
    1STR   H22511833  25.206  45.158  45.307
    1STR   C22611834  25.212  45.050  45.562
    1STR   H22711835  25.214  45.146  45.614
    1STR   H22811836  25.194  44.973  45.637
    1STR   O22911837  25.335  45.027  45.494
    1STR   C23011838  25.451  45.030  45.577
    1STR   H23111839  25.445  45.114  45.647
    1STR   C23211840  25.463  44.898  45.655
    1STR   H23311841  25.465  44.812  45.587
    1STR   H23411842  25.382  44.883  45.725
    1STR   H23511843  25.556  44.895  45.712
    1STR   C23611844  25.572  45.053  45.486
    1STR   H23711845  25.582  44.970  45.416
    1STR   H23811846  25.556  45.143  45.427
    1STR   O23911847  25.690  45.066  45.565
    1STR   C24011848  25.811  45.085  45.492
    1STR   H24111849  25.814  45.017  45.406
    1STR   C24211850  25.822  45.231  45.445
    1STR   H24311851  25.814  45.300  45.529
    1STR   H24411852  25.744  45.257  45.373
    1STR   H24511853  25.917  45.249  45.396
    1STR   C24611854  25.927  45.048  45.585
    1STR   H24711855  25.929  45.114  45.672
    1STR   H24811856  25.912  44.947  45.623
    1STR   O24911857  26.051  45.056  45.514
    1STR   C25011858  26.167  45.027  45.590
    1STR   H25111859  26.161  45.075  45.688
    1STR   C25211860  26.182  44.875  45.608
    1STR   H25311861  26.183  44.824  45.512
    1STR   H25411862  26.101  44.832  45.668
    1STR   H25511863  26.275  44.851  45.659
    1STR   C25611864  26.288  45.086  45.515
    1STR   H25711865  26.298  45.039  45.417
    1STR   H25811866  26.269  45.192  45.498
    1STR   O25911867  26.406  45.068  45.592
    1STR   C26011868  26.526  45.116  45.532
    1STR   H26111869  26.529  45.088  45.426
    1STR   C26211870  26.534  45.269  45.547
    1STR   H26311871  26.526  45.299  45.651
    1STR   H26411872  26.455  45.320  45.491
    1STR   H26511873  26.629  45.307  45.508
    1STR   C26611874  26.645  45.047  45.602
    1STR   H26711875  26.646  45.074  45.708
    1STR   H26811876  26.631  44.939  45.596
    1STR   O26911877  26.767  45.085  45.539
    1STR   C27011878  26.885  45.029  45.597
    1STR   H27111879  26.880  45.035  45.706
    1STR   C27211880  26.901  44.883  45.552
    1STR   H27311881  26.901  44.875  45.443
    1STR   H27411882  26.822  44.820  45.591
    1STR   H27511883  26.995  44.842  45.588
    1STR   C27611884  27.005  45.115  45.551
    1STR   H27711885  27.014  45.111  45.442
    1STR   H27811886  26.986  45.219  45.578
    1STR   O27911887  27.125  45.069  45.613
    1STR   C28011888  27.244  45.140  45.577
    1STR   H28111889  27.246  45.157  45.469
    1STR   C28211890  27.249  45.274  45.651
    1STR   H28311891  27.241  45.260  45.759
    1STR   H28411892  27.170  45.342  45.621
    1STR   H28511893  27.344  45.325  45.632
    1STR   C28611894  27.365  45.051  45.613
    1STR   H28711895  27.367  45.032  45.721
    1STR   H28811896  27.353  44.954  45.564
    1STR   O28911897  27.487  45.113  45.571
    1STR   C29011898  27.607  45.041  45.600
    1STR   H29111899  27.603  45.003  45.703
    1STR   C29211900  27.623  44.925  45.501
    1STR   H29311901  27.621  44.961  45.398
    1STR   H29411902  27.545  44.850  45.512
    1STR   H29511903  27.718  44.874  45.516
    1STR   C29611904  27.725  45.140  45.591
    1STR   H29711905  27.731  45.181  45.490
    1STR   H29811906  27.706  45.224  45.658
    1STR   O29911907  27.848  45.075  45.626
    1STR   C30011908  27.965  45.157  45.619
    1STR   H30111909  27.962  45.218  45.528
    1STR   C30211910  27.971  45.249  45.742
    1STR   H30311911  27.966  45.191  45.834
    1STR   H30411912  27.890  45.322  45.743
    1STR   H30511913  28.065  45.305  45.744
    1STR   C30611914  28.089  45.066  45.611
    1STR   H30711915  28.098  45.008  45.703
    1STR   H30811916  28.073  44.994  45.530
    1STR   O30911917  28.208  45.142  45.587
    1STR    H1R11918  28.335  44.998  45.663
    1STR    H1S11919  28.433  44.941  45.434
    1STR    H1T11920  28.324  45.059  45.361
    1STR    H1U11921  28.260  44.914  45.438
    1STR    H1V11922  28.434  45.232  45.675
    1STR    H1W11923  28.459  45.228  45.502
    1STR    H1X11924  28.742  44.973  45.668
    1STR    H1Y11925  28.881  44.787  45.631
    1STR    H1Z11926  29.083  44.694  45.530
    1STR    H2011927  29.270  44.850  45.251
    1STR    H2111928  29.336  44.793  45.406
    1STR    H2211929  29.215  44.698  45.320
    1STR    H2311930  29.130  45.143  45.245
    1STR    H2711931  28.950  45.160  45.426
    1STR    H2811932  16.403  44.704  45.378
    1STR    H2911933  16.181  44.667  45.454
    1STR    H2A11934  15.914  44.906  45.450
    1STR    H2B11935  15.965  44.747  45.504
    1STR    H2C11936  15.890  44.766  45.345
    1STR   BCK111937  30.942  60.111  60.128
    1STR    O0311938  30.885   0.055  60.097
    1STR    N0411939  31.071  60.082  60.099
    1STR    C0511940  31.160  60.145  60.009
    1STR    C0611941  31.299   0.001  60.042
    1STR    C0711942  31.395   0.054  59.948
    1STR    N0811943  31.533   0.064  59.980
    1STR    C0911944  31.639   0.089  59.900
    1STR    O0A11945  31.632   0.107  59.778
    1STR    O0B11946  31.759   0.091  59.967
    1STR    C0C11947  31.881   0.127  59.896
    1STR    C0D11948  31.893   0.280  59.889
    1STR    C0E11949  32.008   0.064  59.960
    1STR    O0F11950  32.127   0.101  59.887
    1STR    C0G11951  32.251   0.044  59.933
    1STR    C0H11952  32.261  60.058  59.886
    1STR    C0I11953  32.371   0.126  59.879
    1STR    O0J11954  32.494   0.074  59.931
    1STR    C0K11955  43.378  59.896  59.802
    1STR    C0M11956  43.376  60.045  59.842
    1STR    C0N11957  43.496  59.825  59.872
    1STR    O0O11958  43.622  59.873  59.823
    1STR    C0P11959  43.725  59.905  59.906
    1STR    O0Q11960  43.722  59.904  60.028
    1STR    N0R11961  43.829  59.941  59.831
    1STR    C0S11962  43.956  59.994  59.858
    1STR    C0T11963  44.020  60.053  59.748
    1STR    C0U11964  44.143  60.118  59.762
    1STR    C0V11965  44.208  60.124  59.887
    1STR    C0W11966  44.332   0.051  59.896
    1STR    C0X11967  44.153  60.054  59.999
    1STR    N0Y11968  44.222  60.049  60.122
    1STR   BCK211969  44.352  60.021  60.141
    1STR    O1011970  44.428  59.984  60.052
    1STR    C1311971  44.024  59.994  59.984
    1STR    C1411972  31.345   0.094  59.822
    1STR    C1511973  31.210   0.076  59.788
    1STR    C1611974  31.119   0.019  59.878
    1STR    C1711975  30.980  60.150  59.824
    1STR    H1B11976  31.105  60.000  60.147
    1STR    H1C11977  31.333  60.132  60.140
    1STR    H1D11978  31.561   0.050  60.075
    1STR    H1E11979  31.875   0.088  59.794
    1STR    H1F11980  31.901   0.324  59.989
    1STR    H1G11981  31.982   0.309  59.833
    1STR    H1H11982  31.807   0.324  59.839
    1STR    H1I11983  31.996  60.115  59.961
    1STR    H1J11984  32.017   0.096  60.064
    1STR    H1K11985  32.254   0.048  60.042
    1STR    H1M11986  32.254  60.052  59.777
    1STR    H1N11987  32.183  59.995  59.928
    1STR    H1O11988  32.356  60.015  59.915
    1STR    H1P11989  32.372   0.124  59.770
    1STR    H1Q11990  32.359   0.230  59.908
    1STR   C01011991  32.615   0.136  59.885
    1STR   H01111992  32.611   0.150  59.777
    1STR   C01211993  32.634   0.271  59.955
    1STR   H01311994  32.634   0.260  60.063
    1STR   H01411995  32.556   0.343  59.928
    1STR   H01511996  32.729   0.316  59.927
    1STR   C01611997  32.734   0.042  59.915
    1STR   H01711998  32.741   0.024  60.023
    1STR   H01811999  32.716  60.105  59.868
    1STR   O01912000  32.858   0.097  59.868
    1STR   C02012001  32.976   0.020  59.894
    1STR   H02112002  32.973  60.143  59.997
    1STR   C02212003  32.984  60.062  59.797
    1STR   H02312004  32.982  60.096  59.693
    1STR   H02412005  32.902  59.991  59.810
    1STR   H02512006  33.077  60.006  59.811
    1STR   C02612007  33.100   0.111  59.880
    1STR   H02712008  33.106   0.150  59.778
    1STR   H02812009  33.088   0.197  59.946
    1STR   O02912010  33.219   0.039  59.913
    1STR   C03012011  33.341   0.111  59.899
    1STR   H03112012  33.341   0.168  59.806
    1STR   C03212013  33.360   0.206  60.019
    1STR   H03312014  33.356   0.151  60.113
    1STR   H03412015  33.284   0.284  60.022
    1STR   H03512016  33.456   0.256  60.014
    1STR   C03612017  33.457   0.009  59.891
    1STR   H03712018  33.461  60.111  59.983
    1STR   H03812019  33.438  60.100  59.810
    1STR   O03912020  33.581   0.077  59.870
    1STR   C04012021  33.697  60.154  59.865
    1STR   H04112022  33.693  60.080  59.944
    1STR   C04212023  33.706  60.085  59.728
    1STR   H04312024  33.705  60.158  59.647
    1STR   H04412025  33.624  60.016  59.711
    1STR   H04512026  33.798  60.028  59.720
    1STR   C04612027  33.820   0.083  59.890
    1STR   H04712028  33.828   0.159  59.812
    1STR   H04812029  33.807   0.136  59.984
    1STR   O04912030  33.938   0.003  59.894
    1STR   C05012031  34.061   0.074  59.912
    1STR   H05112032  34.062   0.164  59.850
    1STR   C05212033  34.077   0.113  60.060
    1STR   H05312034  34.071   0.025  60.125
    1STR   H05412035  34.001   0.184  60.093
    1STR   H05512036  34.173   0.160  60.078
    1STR   C05612037  34.176  60.143  59.866
    1STR   H05712038  34.179  60.053  59.927
    1STR   H05812039  34.157  60.112  59.763
    1STR   O05912040  34.300   0.054  59.875
    1STR   C06012041  34.415  60.139  59.838
    1STR   H06112042  34.410  60.039  59.881
    1STR   C06212043  34.426  60.131  59.685
    1STR   H06312044  34.427   0.070  59.640
    1STR   H06412045  34.344  60.074  59.641
    1STR   H06512046  34.518  60.081  59.656
    1STR   C06612047  34.538   0.050  59.899
    1STR   H06712048  34.547   0.150  59.857
    1STR   H06812049  34.523   0.061  60.006
    1STR   O06912050  34.655  60.133  59.873
    1STR   C07012051  34.777   0.030  59.920
    1STR   H07112052  34.779   0.137  59.899
    1STR   C07212053  34.790   0.007  60.071
    1STR   H07312054  34.783  60.060  60.095
    1STR   H07412055  34.713   0.059  60.128
    1STR   H07512056  34.887   0.042  60.108
    1STR   C07612057  34.892  60.124  59.843
    1STR   H07712058  34.894  60.017  59.863
    1STR   H07812059  34.875  60.136  59.736
    1STR   O07912060  35.016   0.025  59.881
    1STR   C08012061  35.132  60.130  59.819
    1STR   H08112062  35.126  60.021  59.818
    1STR   C08212063  35.145   0.023  59.675
    1STR   H08312064  35.146   0.132  59.674
    1STR   H08412065  35.063  60.150  59.611
    1STR   H08512066  35.238  60.149  59.629
    1STR   C08612067  35.253   0.010  59.904
    1STR   H08712068  35.263   0.118  59.907
    1STR   H08812069  35.236  60.137  60.007
    1STR   O08912070  35.371  60.109  59.852
    1STR   C09012071  35.491  60.141  59.920
    1STR   H09112072  35.494   0.088  59.943
    1STR   C09212073  35.502  60.059  60.049
    1STR   H09312074  35.495  59.952  60.029
    1STR   H09412075  35.424  60.085  60.121
    1STR   H09512076  35.598  60.076  60.098
    1STR   C09612077  35.608  60.111  59.824
    1STR   H09712078  35.609  60.004  59.800
    1STR   H09812079  35.592   0.005  59.731
    1STR   O09912080  35.731  60.150  59.885
    1STR   C10012081  35.847  60.124  59.808
    1STR   H10112082  35.842  60.024  59.763
    1STR   C10212083  35.863   0.070  59.698
    1STR   H10312084  35.864   0.170  59.740
    1STR   H10412085  35.783   0.065  59.625
    1STR   H10512086  35.956   0.055  59.643
    1STR   C10612087  35.967  60.125  59.904
    1STR   H10712088  35.977   0.064  59.950
    1STR   H10812089  35.948  60.055  59.985
    1STR   O10912090  36.086  60.089  59.833
    1STR   C11012091  36.205  60.091  59.911
    1STR   H11112092  36.208   0.019  59.975
    1STR   C11212093  36.214  59.963  59.997
    1STR   H11312094  36.207  59.874  59.935
    1STR   H11412095  36.135  59.959  60.071
    1STR   H11512096  36.308  59.959  60.050
    1STR   C11612097  36.323  60.100  59.813
    1STR   H11712098  36.325  60.012  59.748
    1STR   H11812099  36.309   0.027  59.749
    1STR   O11912100  36.445  60.112  59.886
    1STR   C12012101  36.563  60.117  59.806
    1STR   H12112102  36.558  60.044  59.726
    1STR   C12212103  36.580   0.098  59.748
    1STR   H12312104  36.581   0.174  59.827
    1STR   H12412105  36.501   0.124  59.678
    1STR   H12512106  36.675   0.107  59.694
    1STR   C12612107  36.681  60.079  59.897
    1STR   H12712108  36.691  60.152  59.978
    1STR   H12812109  36.661  59.982  59.943
    1STR   O12912110  36.801  60.074  59.820
    1STR   C13012111  36.919  60.043  59.893
    1STR   H13112112  36.920  60.099  59.987
    1STR   C13212113  36.926  59.892  59.921
    1STR   H13312114  36.920  59.835  59.828
    1STR   H13412115  36.846  59.859  59.987
    1STR   H13512116  37.020  59.866  59.970
    1STR   C13612117  37.038  60.090  59.809
    1STR   H13712118  37.041  60.036  59.714
    1STR   H13812119  37.025   0.036  59.784
    1STR   O13912120  37.159  60.071  59.882
    1STR   C14012121  37.278  60.107  59.813
    1STR   H14112122  37.274  60.072  59.710
    1STR   C14212123  37.297   0.099  59.816
    1STR   H14312124  37.296   0.137  59.919
    1STR   H14412125  37.219   0.151  59.761
    1STR   H14512126  37.392   0.127  59.771
    1STR   C14612127  37.395  60.035  59.883
    1STR   H14712128  37.403  60.068  59.986
    1STR   H14812129  37.374  59.928  59.885
    1STR   O14912130  37.516  60.060  59.811
    1STR   C15012131  37.633  60.002  59.868
    1STR   H15112132  37.633  60.015  59.976
    1STR   C15212133  37.639  59.852  59.833
    1STR   H15312134  37.634  59.836  59.726
    1STR   H15412135  37.558  59.796  59.879
    1STR   H15512136  37.732  59.808  59.869
    1STR   C15612137  37.754  60.077  59.811
    1STR   H15712138  37.758  60.065  59.702
    1STR   H15812139  37.741   0.024  59.830
    1STR   O15912140  37.873  60.029  59.872
    1STR   C16012141  37.993  60.089  59.825
    1STR   H16112142  37.991  60.098  59.716
    1STR   C16212143  38.012   0.067  59.889
    1STR   H16312144  38.010   0.061  59.998
    1STR   H16412145  37.935   0.138  59.858
    1STR   H16512146  38.108   0.110  59.860
    1STR   C16612147  38.109  59.994  59.862
    1STR   H16712148  38.115  59.984  59.970
    1STR   H16812149  38.087  59.895  59.821
    1STR   O16912150  38.231  60.045  59.808
    1STR   C17012151  38.347  59.968  59.838
    1STR   H17112152  38.345  59.937  59.943
    1STR   C17212153  38.353  59.844  59.747
    1STR   H17312154  38.350  59.873  59.642
    1STR   H17412155  38.271  59.775  59.765
    1STR   H17512156  38.446  59.789  59.763
    1STR   C17612157  38.469  60.059  59.818
    1STR   H17712158  38.474  60.091  59.714
    1STR   H17812159  38.456  60.149  59.878
    1STR   O17912160  38.587  59.990  59.857
    1STR   C18012161  38.708  60.062  59.839
    1STR   H18112162  38.707  60.114  59.743
    1STR   C18212163  38.726   0.003  59.954
    1STR   H18312164  38.722  60.114  60.051
    1STR   H18412165  38.649   0.081  59.952
    1STR   H18512166  38.822   0.054  59.946
    1STR   C18612167  38.823  59.960  59.837
    1STR   H18712168  38.827  59.907  59.932
    1STR   H18812169  38.802  59.885  59.760
    1STR   O18912170  38.945  60.027  59.810
    1STR   C19012171  39.061  59.943  59.809
    1STR   H19112172  39.057  59.873  59.892
    1STR   C19212173  39.069  59.867  59.676
    1STR   H19312174  39.068  59.935  59.591
    1STR   H19412175  38.986  59.797  59.663
    1STR   H19512176  39.161  59.809  59.670
    1STR   C19612177  39.183  60.034  59.829
    1STR   H19712178  39.191  60.105  59.746
    1STR   H19812179  39.170  60.093  59.920
    1STR   O19912180  39.301  59.954  59.838
    1STR   C20012181  39.422  60.027  59.853
    1STR   H20112182  39.423  60.113  59.786
    1STR   C20212183  39.438  60.073  59.998
    1STR   H20312184  39.433  59.989  60.067
    1STR   H20412185  39.362  60.145  60.027
    1STR   H20512186  39.535  60.122  60.013
    1STR   C20612187  39.537  59.933  59.811
    1STR   H20712188  39.540  59.846  59.877
    1STR   H20812189  39.517  59.896  59.711
    1STR   O20912190  39.660  60.004  59.815
    1STR   C21012191  39.776  59.927  59.782
    1STR   H21112192  39.771  59.829  59.831
    1STR   C21212193  39.786  59.910  59.630
    1STR   H21312194  39.786  60.007  59.579
    1STR   H21412195  39.703  59.851  59.589
    1STR   H21512196  39.878  59.859  59.603
    1STR   C21612197  39.898  60.001  59.839
    1STR   H21712198  39.907  60.099  59.791
    1STR   H21812199  39.883  60.019  59.945
    1STR   O21912200  40.015  59.924  59.817
    1STR   C22012201  40.137  59.983  59.861
    1STR   H22112202  40.139  60.089  59.834
    1STR   C22212203  40.150  59.967  60.013
    1STR   H22312204  40.143  59.863  60.043
    1STR   H22412205  40.073  60.023  60.067
    1STR   H22512206  40.246  60.005  60.048
    1STR   C22612207  40.252  59.913  59.787
    1STR   H22712208  40.254  59.807  59.813
    1STR   H22812209  40.234  59.919  59.680
    1STR   O22912210  40.376  59.976  59.821
    1STR   C23012211  40.491  59.917  59.762
    1STR   H23112212  40.486  59.808  59.767
    1STR   C23212213  40.504  59.963  59.616
    1STR   H23312214  40.505  60.071  59.608
    1STR   H23412215  40.422  59.925  59.554
    1STR   H23512216  40.596  59.926  59.572
    1STR   C23612217  40.613  59.962  59.845
    1STR   H23712218  40.623  60.071  59.841
    1STR   H23812219  40.596  59.935  59.949
    1STR   O23912220  40.731  59.899  59.795
    1STR   C24012221  40.852  59.935  59.862
    1STR   H24112222  40.855  60.042  59.879
    1STR   C24212223  40.862  59.859  59.996
    1STR   H24312224  40.854  59.752  59.981
    1STR   H24412225  40.784  59.889  60.066
    1STR   H24512226  40.958  59.879  60.044
    1STR   C24612227  40.968  59.899  59.768
    1STR   H24712228  40.970  59.791  59.750
    1STR   H24812229  40.953  59.948  59.672
    1STR   O24912230  41.092  59.941  59.826
    1STR   C25012231  41.209  59.911  59.750
    1STR   H25112232  41.203  59.809  59.711
    1STR   C25212233  41.223  60.011  59.634
    1STR   H25312234  41.223  60.114  59.671
    1STR   H25412235  41.142  60.002  59.562
    1STR   H25512236  41.316  59.994  59.580
    1STR   C25612237  41.329  59.918  59.846
    1STR   H25712238  41.339  60.019  59.886
    1STR   H25812239  41.311  59.852  59.930
    1STR   O25912240  41.448  59.880  59.776
    1STR   C26012241  41.568  59.885  59.854
    1STR   H26112242  41.571  59.976  59.913
    1STR   C26212243  41.575  59.762  59.946
    1STR   H26312244  41.567  59.669  59.890
    1STR   H26412245  41.497  59.762  60.021
    1STR   H26512246  41.670  59.760  60.000
    1STR   C26612247  41.687  59.888  59.756
    1STR   H26712248  41.688  59.797  59.695
    1STR   H26812249  41.673  59.971  59.687
    1STR   O26912250  41.810  59.902  59.827
    1STR   C27012251  41.928  59.904  59.747
    1STR   H27112252  41.923  59.826  59.671
    1STR   C27212253  41.943  60.042  59.681
    1STR   H27312254  41.943  60.121  59.756
    1STR   H27412255  41.864  60.063  59.610
    1STR   H27512256  42.037  60.048  59.627
    1STR   C27612257  42.048  59.872  59.839
    1STR   H27712258  42.057  59.948  59.916
    1STR   H27812259  42.029  59.777  59.889
    1STR   O27912260  42.169  59.865  59.762
    1STR   C28012261  42.288  59.836  59.836
    1STR   H28112262  42.290  59.897  59.927
    1STR   C28212263  42.292  59.687  59.872
    1STR   H28312264  42.284  59.625  59.783
    1STR   H28412265  42.213  59.659  59.941
    1STR   H28512266  42.387  59.662  59.921
    1STR   C28612267  42.409  59.877  59.750
    1STR   H28712268  42.411  59.818  59.658
    1STR   H28812269  42.397  59.981  59.721
    1STR   O28912270  42.531  59.859  59.822
    1STR   C29012271  42.651  59.893  59.752
    1STR   H29112272  42.648  59.853  59.651
    1STR   C29212273  42.666  60.046  59.747
    1STR   H29312274  42.664  60.089  59.847
    1STR   H29412275  42.588  60.093  59.688
    1STR   H29512276  42.762  60.074  59.702
    1STR   C29612277  42.771  59.828  59.826
    1STR   H29712278  42.776  59.865  59.928
    1STR   H29812279  42.753  59.720  59.832
    1STR   O29912280  42.895  59.853  59.757
    1STR   C30012281  43.012  59.797  59.819
    1STR   H30112282  43.007  59.814  59.927
    1STR   C30212283  43.018  59.647  59.789
    1STR   H30312284  43.013  59.627  59.682
    1STR   H30412285  42.937  59.592  59.837
    1STR   H30512286  43.112  59.604  59.826
    1STR   C30612287  43.137  59.871  59.766
    1STR   H30712288  43.151  59.850  59.660
    1STR   H30812289  43.119  59.978  59.774
    1STR   O30912290  43.254  59.833  59.840
    1STR    H1R12291  43.391  59.887  59.694
    1STR    H1S12292  43.472  60.092  59.821
    1STR    H1T12293  43.356  60.057  59.948
    1STR    H1U12294  43.301  60.102  59.787
    1STR    H1V12295  43.492  59.718  59.852
    1STR    H1W12296  43.488  59.835  59.981
    1STR    H1X12297  43.805  59.932  59.734
    1STR    H1Y12298  43.975  60.052  59.650
    1STR    H1Z12299  44.188   0.006  59.676
    1STR    H2012300  44.345   0.091  59.996
    1STR    H2112301  44.421  60.154  59.869
    1STR    H2212302  44.324   0.136  59.828
    1STR    H2312303  44.168  60.065   0.045
    1STR    H2712304  43.977  59.946  60.068
    1STR    H2812305  31.408   0.139  59.747
    1STR    H2912306  31.178   0.105  59.689
    1STR    H2A12307  30.939  60.059  59.868
    1STR    H2B12308  30.981  60.136  59.717
    1STR    H2C12309  30.913   0.073  59.847
    1STR   BCK112310  30.948  60.092  15.187
    1STR    O0312311  30.928  60.077  15.307
    1STR    N0412312  31.059  60.150  15.137
    1STR    C0512313  31.160   0.057  15.210
    1STR    C0612314  31.298   0.025  15.193
    1STR    C0712315  31.402   0.092  15.266
    1STR    N0812316  31.539   0.062  15.246
    1STR    C0912317  31.647   0.095  15.320
    1STR    O0A12318  31.641   0.153  15.428
    1STR    O0B12319  31.765   0.056  15.263
    1STR    C0C12320  31.889   0.079  15.333
    1STR    C0D12321  31.909  60.130  15.439
    1STR    C0E12322  32.012   0.087  15.238
    1STR    O0F12323  32.132   0.110  15.313
    1STR    C0G12324  32.254   0.121  15.238
    1STR    C0H12325  32.263   0.260  15.174
    1STR    C0I12326  32.375   0.097  15.332
    1STR    O0J12327  32.498   0.100  15.258
    1STR    C0K12328  43.374   0.429  15.134
    1STR    C0M12329  43.368   0.293  15.206
    1STR    C0N12330  43.498   0.433  15.042
    1STR    O0O12331  43.617   0.440  15.122
    1STR    C0P12332  43.721   0.355  15.109
    1STR    O0Q12333  43.730   0.261  15.030
    1STR    N0R12334  43.814   0.391  15.197
    1STR    C0S12335  43.940   0.344  15.236
    1STR    C0T12336  43.998   0.414  15.343
    1STR    C0U12337  44.124   0.379  15.392
    1STR    C0V12338  44.199   0.275  15.335
    1STR    C0W12339  44.336   0.254  15.394
    1STR    C0X12340  44.146   0.201  15.225
    1STR    N0Y12341  44.217   0.106  15.148
    1STR   BCK212342  44.327   0.026  15.147
    1STR    O1012343  44.358  60.138  15.039
    1STR    C1312344  44.015   0.237  15.178
    1STR    C1412345  31.361   0.193  15.357
    1STR    C1512346  31.226   0.228  15.372
    1STR    C1612347  31.126   0.164  15.297
    1STR    C1712348  30.984   0.217  15.310
    1STR    H1B12349  31.068  60.147  15.037
    1STR    H1C12350  31.325  60.107  15.124
    1STR    H1D12351  31.564   0.007  15.165
    1STR    H1E12352  31.884   0.176  15.384
    1STR    H1F12353  31.916  60.031  15.394
    1STR    H1G12354  32.000  60.147  15.497
    1STR    H1H12355  31.826  60.128  15.511
    1STR    H1I12356  31.996   0.167  15.166
    1STR    H1J12357  32.021  60.154  15.182
    1STR    H1K12358  32.257   0.043  15.161
    1STR    H1M12359  32.257   0.339  15.249
    1STR    H1N12360  32.184   0.277  15.101
    1STR    H1O12361  32.358   0.272  15.121
    1STR    H1P12362  32.377   0.173  15.411
    1STR    H1Q12363  32.363   0.001  15.382
    1STR   C01012364  32.619   0.085  15.334
    1STR   H01112365  32.614   0.148  15.423
    1STR   C01212366  32.637  60.098  15.374
    1STR   H01312367  32.637  60.033  15.287
    1STR   H01412368  32.560  60.064  15.442
    1STR   H01512369  32.733  60.084  15.425
    1STR   C01612370  32.737   0.134  15.248
    1STR   H01712371  32.744   0.075  15.157
    1STR   H01812372  32.718   0.237  15.217
    1STR   O01912373  32.860   0.126  15.321
    1STR   C02012374  32.978   0.165  15.249
    1STR   H02112375  32.976   0.123  15.149
    1STR   C02212376  32.986   0.318  15.241
    1STR   H02312377  32.984   0.363  15.341
    1STR   H02412378  32.904   0.361  15.183
    1STR   H02512379  33.079   0.350  15.193
    1STR   C02612380  33.101   0.107  15.322
    1STR   H02712381  33.107   0.148  15.423
    1STR   H02812382  33.090  60.159  15.331
    1STR   O02912383  33.220   0.138  15.248
    1STR   C03012384  33.343   0.094  15.307
    1STR   H03112385  33.342   0.115  15.415
    1STR   C03212386  33.361  60.103  15.283
    1STR   H03312387  33.357  60.080  15.176
    1STR   H03412388  33.285  60.044  15.333
    1STR   H03512389  33.458  60.070  15.320
    1STR   C03612390  33.458   0.175  15.245
    1STR   H03712391  33.463   0.156  15.137
    1STR   H03812392  33.439   0.281  15.258
    1STR   O03912393  33.582   0.139  15.306
    1STR   C04012394  33.698   0.204  15.254
    1STR   H04112395  33.694   0.205  15.145
    1STR   C04212396  33.707   0.347  15.308
    1STR   H04312397  33.706   0.348  15.417
    1STR   H04412398  33.625   0.410  15.273
    1STR   H04512399  33.799   0.395  15.275
    1STR   C04612400  33.821   0.121  15.296
    1STR   H04712401  33.829   0.118  15.405
    1STR   H04812402  33.808   0.018  15.262
    1STR   O04912403  33.939   0.178  15.238
    1STR   C05012404  34.061   0.112  15.273
    1STR   H05112405  34.063   0.089  15.380
    1STR   C05212406  34.077  60.144  15.190
    1STR   H05312407  34.072   0.005  15.083
    1STR   H05412408  34.001  60.070  15.214
    1STR   H05512409  34.174  60.097  15.209
    1STR   C05612410  34.176   0.211  15.245
    1STR   H05712411  34.179   0.236  15.139
    1STR   H05812412  34.158   0.303  15.300
    1STR   O05912413  34.300   0.153  15.287
    1STR   C06012414  34.416   0.233  15.263
    1STR   H06112415  34.411   0.278  15.164
    1STR   C06212416  34.426   0.343  15.370
    1STR   H06312417  34.427   0.300  15.470
    1STR   H06412418  34.344   0.414  15.365
    1STR   H06512419  34.519   0.399  15.358
    1STR   C06612420  34.538   0.140  15.266
    1STR   H06712421  34.547   0.094  15.365
    1STR   H06812422  34.523   0.059  15.194
    1STR   O06912423  34.656   0.214  15.234
    1STR   C07012424  34.777   0.140  15.237
    1STR   H07112425  34.779   0.075  15.325
    1STR   C07212426  34.790   0.055  15.110
    1STR   H07312427  34.784   0.117  15.020
    1STR   H07412428  34.714  60.138  15.103
    1STR   H07512429  34.887   0.004  15.107
    1STR   C07612430  34.892   0.241  15.250
    1STR   H07712431  34.894   0.306  15.163
    1STR   H07812432  34.875   0.304  15.337
    1STR   O07912433  35.016   0.171  15.263
    1STR   C08012434  35.132   0.253  15.271
    1STR   H08112435  35.126   0.334  15.198
    1STR   C08212436  35.145   0.310  15.413
    1STR   H08312437  35.146   0.231  15.488
    1STR   H08412438  35.064   0.378  15.438
    1STR   H08512439  35.238   0.367  15.423
    1STR   C08612440  35.253   0.165  15.235
    1STR   H08712441  35.263   0.084  15.307
    1STR   H08812442  35.236   0.120  15.137
    1STR   O08912443  35.371   0.246  15.233
    1STR   C09012444  35.492   0.176  15.204
    1STR   H09112445  35.494   0.082  15.259
    1STR   C09212446  35.502   0.149  15.053
    1STR   H09312447  35.495   0.242  14.996
    1STR   H09412448  35.425   0.081  15.018
    1STR   H09512449  35.598   0.103  15.029
    1STR   C09612450  35.608   0.263  15.254
    1STR   H09712451  35.609   0.358  15.200
    1STR   H09812452  35.592   0.286  15.359
    1STR   O09912453  35.731   0.193  15.237
    1STR   C10012454  35.848   0.265  15.275
    1STR   H10112455  35.842   0.368  15.241
    1STR   C10212456  35.863   0.261  15.428
    1STR   H10312457  35.864   0.158  15.465
    1STR   H10412458  35.782   0.314  15.479
    1STR   H10512459  35.956   0.308  15.459
    1STR   C10612460  35.967   0.198  15.205
    1STR   H10712461  35.977   0.095  15.239
    1STR   H10812462  35.948   0.196  15.098
    1STR   O10912463  36.086   0.272  15.233
    1STR   C11012464  36.205   0.219  15.177
    1STR   H11112465  36.208   0.111  15.190
    1STR   C11212466  36.214   0.255  15.028
    1STR   H11312467  36.206   0.363  15.013
    1STR   H11412468  36.135   0.208  14.970
    1STR   H11512469  36.308   0.222  14.986
    1STR   C11612470  36.323   0.278  15.256
    1STR   H11712471  36.325   0.387  15.244
    1STR   H11812472  36.309   0.258  15.362
    1STR   O11912473  36.445   0.221  15.210
    1STR   C12012474  36.563   0.270  15.272
    1STR   H12112475  36.558   0.379  15.282
    1STR   C12212476  36.580   0.205  15.410
    1STR   H12312477  36.581   0.097  15.403
    1STR   H12412478  36.501   0.234  15.479
    1STR   H12512479  36.675   0.236  15.456
    1STR   C12612480  36.681   0.237  15.179
    1STR   H12712481  36.691   0.129  15.168
    1STR   H12812482  36.661   0.278  15.080
    1STR   O12912483  36.801   0.293  15.233
    1STR   C13012484  36.919   0.266  15.158
    1STR   H13112485  36.920   0.162  15.126
    1STR   C13212486  36.926   0.359  15.036
    1STR   H13312487  36.919   0.464  15.065
    1STR   H13412488  36.846   0.339  14.965
    1STR   H13512489  37.020   0.345  14.982
    1STR   C13612490  37.038   0.289  15.252
    1STR   H13712491  37.041   0.393  15.285
    1STR   H13812492  37.025   0.227  15.341
    1STR   O13912493  37.159   0.254  15.185
    1STR   C14012494  37.278   0.274  15.260
    1STR   H14112495  37.274   0.370  15.312
    1STR   C14212496  37.297   0.159  15.361
    1STR   H14312497  37.296   0.063  15.310
    1STR   H14412498  37.219   0.158  15.437
    1STR   H14512499  37.392   0.169  15.413
    1STR   C14612500  37.395   0.280  15.160
    1STR   H14712501  37.403   0.185  15.106
    1STR   H14812502  37.374   0.357  15.086
    1STR   O14912503  37.516   0.310  15.230
    1STR   C15012504  37.633   0.314  15.148
    1STR   H15112505  37.633   0.231  15.078
    1STR   C15212506  37.639   0.448  15.073
    1STR   H15312507  37.634   0.532  15.142
    1STR   H15412508  37.558   0.459  15.001
    1STR   H15512509  37.732   0.456  15.017
    1STR   C15612510  37.753   0.297  15.242
    1STR   H15712511  37.758   0.379  15.313
    1STR   H15812512  37.741   0.205  15.299
    1STR   O15912513  37.873   0.291  15.164
    1STR   C16012514  37.993   0.279  15.239
    1STR   H16112515  37.991   0.346  15.326
    1STR   C16212516  38.012   0.133  15.285
    1STR   H16312517  38.010   0.065  15.200
    1STR   H16412518  37.935   0.102  15.355
    1STR   H16512519  38.108   0.121  15.335
    1STR   C16612520  38.109   0.324  15.148
    1STR   H16712521  38.115   0.258  15.061
    1STR   H16812522  38.087   0.424  15.111
    1STR   O16912523  38.231   0.323  15.222
    1STR   C17012524  38.347   0.359  15.147
    1STR   H17112525  38.345   0.311  15.049
    1STR   C17212526  38.353   0.511  15.132
    1STR   H17312527  38.350   0.561  15.229
    1STR   H17412528  38.271   0.550  15.071
    1STR   H17512529  38.446   0.541  15.082
    1STR   C17612530  38.468   0.305  15.224
    1STR   H17712531  38.474   0.352  15.322
    1STR   H17812532  38.456   0.198  15.240
    1STR   O17912533  38.587   0.330  15.149
    1STR   C18012534  38.708   0.289  15.211
    1STR   H18112535  38.707   0.315  15.317
    1STR   C18212536  38.726   0.137  15.195
    1STR   H18312537  38.722   0.108  15.090
    1STR   H18412538  38.649   0.081  15.248
    1STR   H18512539  38.822   0.105  15.234
    1STR   C18612540  38.822   0.366  15.143
    1STR   H18712541  38.827   0.341  15.037
    1STR   H18812542  38.802   0.473  15.150
    1STR   O18912543  38.945   0.335  15.208
    1STR   C19012544  39.061   0.397  15.152
    1STR   H19112545  39.057   0.392  15.043
    1STR   C19212546  39.069   0.543  15.199
    1STR   H19312547  39.068   0.550  15.308
    1STR   H19412548  38.986   0.603  15.160
    1STR   H19512549  39.161   0.590  15.164
    1STR   C19612550  39.183   0.317  15.199
    1STR   H19712551  39.191   0.321  15.308
    1STR   H19812552  39.170   0.212  15.172
    1STR   O19912553  39.301   0.370  15.138
    1STR   C20012554  39.422   0.306  15.177
    1STR   H20112555  39.423   0.288  15.284
    1STR   C20212556  39.438   0.173  15.101
    1STR   H20312557  39.433   0.189  14.993
    1STR   H20412558  39.362   0.101  15.128
    1STR   H20512559  39.535   0.128  15.122
    1STR   C20612560  39.537   0.403  15.144
    1STR   H20712561  39.540   0.423  15.037
    1STR   H20812562  39.517   0.499  15.193
    1STR   O20912563  39.660   0.348  15.189
    1STR   C21012564  39.776   0.427  15.161
    1STR   H21112565  39.771   0.467  15.060
    1STR   C21212566  39.786   0.542  15.262
    1STR   H21312567  39.786   0.505  15.365
    1STR   H21412568  39.703   0.613  15.253
    1STR   H21512569  39.878   0.599  15.248
    1STR   C21612570  39.898   0.334  15.170
    1STR   H21712571  39.907   0.294  15.271
    1STR   H21812572  39.883   0.250  15.103
    1STR   O21912573  40.015   0.406  15.134
    1STR   C22012574  40.137   0.332  15.141
    1STR   H22112575  40.139   0.273  15.232
    1STR   C22212576  40.150   0.241  15.018
    1STR   H22312577  40.143   0.299  14.926
    1STR   H22412578  40.073   0.164  15.015
    1STR   H22512579  40.246   0.190  15.018
    1STR   C22612580  40.252   0.434  15.148
    1STR   H22712581  40.254   0.495  15.057
    1STR   H22812582  40.234   0.502  15.232
    1STR   O22912583  40.375   0.365  15.165
    1STR   C23012584  40.491   0.448  15.169
    1STR   H23112585  40.485   0.525  15.092
    1STR   C23212586  40.504   0.513  15.308
    1STR   H23312587  40.505   0.438  15.387
    1STR   H23412588  40.422   0.582  15.329
    1STR   H23512589  40.596   0.570  15.316
    1STR   C23612590  40.613   0.359  15.138
    1STR   H23712591  40.623   0.281  15.215
    1STR   H23812592  40.596   0.308  15.043
    1STR   O23912593  40.731   0.439  15.133
    1STR   C24012594  40.852   0.368  15.108
    1STR   H24112595  40.854   0.277  15.168
    1STR   C24212596  40.862   0.333  14.958
    1STR   H24312597  40.854   0.423  14.897
    1STR   H24412598  40.784   0.264  14.927
    1STR   H24512599  40.958   0.286  14.936
    1STR   C24612600  40.968   0.457  15.153
    1STR   H24712601  40.969   0.549  15.094
    1STR   H24812602  40.952   0.486  15.257
    1STR   O24912603  41.091   0.387  15.138
    1STR   C25012604  41.208   0.461  15.174
    1STR   H25112605  41.202   0.562  15.134
    1STR   C25212606  41.223   0.465  15.327
    1STR   H25312607  41.223   0.365  15.369
    1STR   H25412608  41.142   0.521  15.374
    1STR   H25512609  41.316   0.514  15.356
    1STR   C25612610  41.329   0.391  15.109
    1STR   H25712611  41.339   0.289  15.147
    1STR   H25812612  41.311   0.383  15.001
    1STR   O25912613  41.448   0.466  15.133
    1STR   C26012614  41.568   0.410  15.080
    1STR   H26112615  41.571   0.303  15.098
    1STR   C26212616  41.575   0.438  14.929
    1STR   H26312617  41.567   0.545  14.908
    1STR   H26412618  41.496   0.387  14.874
    1STR   H26512619  41.670   0.403  14.888
    1STR   C26612620  41.687   0.474  15.154
    1STR   H26712621  41.688   0.582  15.137
    1STR   H26812622  41.673   0.459  15.261
    1STR   O26912623  41.809   0.415  15.111
    1STR   C27012624  41.928   0.468  15.171
    1STR   H27112625  41.922   0.577  15.175
    1STR   C27212626  41.943   0.410  15.313
    1STR   H27312627  41.942   0.301  15.312
    1STR   H27412628  41.863   0.443  15.380
    1STR   H27512629  42.037   0.443  15.358
    1STR   C27612630  42.048   0.429  15.082
    1STR   H27712631  42.056   0.321  15.077
    1STR   H27812632  42.029   0.465  14.981
    1STR   O27912633  42.168   0.487  15.134
    1STR   C28012634  42.287   0.457  15.060
    1STR   H28112635  42.289   0.351  15.034
    1STR   C28212636  42.292   0.543  14.933
    1STR   H28312637  42.283   0.649  14.957
    1STR   H28412638  42.212   0.518  14.863
    1STR   H28512639  42.386   0.529  14.880
    1STR   C28612640  42.409   0.486  15.151
    1STR   H28712641  42.410   0.591  15.180
    1STR   H28812642  42.397   0.428  15.243
    1STR   O28912643  42.531   0.450  15.085
    1STR   C29012644  42.651   0.472  15.159
    1STR   H29112645  42.648   0.570  15.207
    1STR   C29212646  42.666   0.363  15.266
    1STR   H29312647  42.663   0.263  15.222
    1STR   H29412648  42.589   0.368  15.342
    1STR   H29512649  42.762   0.373  15.318
    1STR   C29612650  42.770   0.471  15.061
    1STR   H29712651  42.775   0.374  15.011
    1STR   H29812652  42.751   0.545  14.983
    1STR   O29912653  42.894   0.498  15.128
    1STR   C30012654  43.011   0.496  15.045
    1STR   H30112655  43.006   0.411  14.977
    1STR   C30212656  43.019   0.628  14.966
    1STR   H30312657  43.015   0.714  15.032
    1STR   H30412658  42.938   0.637  14.894
    1STR   H30512659  43.113   0.633  14.910
    1STR   C30612660  43.135   0.477  15.136
    1STR   H30712661  43.149   0.564  15.199
    1STR   H30812662  43.114   0.393  15.202
    1STR   O30912663  43.254   0.451  15.059
    1STR    H1R12664  43.384   0.509  15.208
    1STR    H1S12665  43.462   0.271  15.257
    1STR    H1T12666  43.350   0.212  15.135
    1STR    H1U12667  43.290   0.289  15.282
    1STR    H1V12668  43.495   0.522  14.979
    1STR    H1W12669  43.500   0.347  14.974
    1STR    H1X12670  43.780   0.471  15.246
    1STR    H1Y12671  43.946   0.496  15.390
    1STR    H1Z12672  44.164   0.436  15.475
    1STR    H2012673  44.336   0.161  15.452
    1STR    H2112674  44.411   0.251  15.315
    1STR    H2212675  44.365   0.333  15.462
    1STR    H2312676  44.175   0.092  15.058
    1STR    H2712677  43.971   0.185  15.094
    1STR    H2812678  31.432   0.248  15.416
    1STR    H2912679  31.201   0.307  15.441
    1STR    H2A12680  30.934   0.216  15.213
    1STR    H2B12681  30.983   0.319  15.346
    1STR    H2C12682  30.927   0.156  15.380
    1STR   BCK112683  30.945  60.043  30.103
    1STR    O0312684  30.914  60.048  29.984
    1STR    N0412685  31.070  60.015  30.146
    1STR    C0512686  31.169  59.947  30.073
    1STR    C0612687  31.304  59.993  30.066
    1STR    C0712688  31.406  59.918  29.999
    1STR    N0812689  31.541  59.961  29.997
    1STR    C0912690  31.652  59.889  29.970
    1STR    O0A12691  31.652  59.768  29.947
    1STR    O0B12692  31.766  59.963  29.971
    1STR    C0C12693  31.891  59.903  29.928
    1STR    C0D12694  31.903  59.914  29.775
    1STR    C0E12695  32.014  59.965  29.998
    1STR    O0F12696  32.134  59.897  29.956
    1STR    C0G12697  32.257  59.939  30.017
    1STR    C0H12698  32.266  59.879  30.159
    1STR    C0I12699  32.376  59.892  29.931
    1STR    O0J12700  32.499  59.939  29.987
    1STR    C0K12701  43.367  59.764  30.317
    1STR    C0M12702  43.372  59.824  30.176
    1STR    C0N12703  43.487  59.814  30.401
    1STR    O0O12704  43.608  59.756  30.352
    1STR    C0P12705  43.718  59.831  30.329
    1STR    O0Q12706  43.727  59.952  30.343
    1STR    N0R12707  43.816  59.751  30.285
    1STR    C0S12708  43.945  59.777  30.237
    1STR    C0T12709  44.005  59.674  30.161
    1STR    C0U12710  44.129  59.694  30.099
    1STR    C0V12711  44.198  59.816  30.112
    1STR    C0W12712  44.320  59.838  30.024
    1STR    C0X12713  44.146  59.917  30.197
    1STR    N0Y12714  44.210  60.041  30.213
    1STR   BCK212715  44.335  60.077  30.245
    1STR    O1012716  44.364   0.036  30.243
    1STR    C1312717  44.018  59.897  30.256
    1STR    C1412718  31.366  59.799  29.934
    1STR    C1512719  31.235  59.751  29.943
    1STR    C1612720  31.137  59.821  30.015
    1STR    C1712721  31.001  59.755  30.032
    1STR    H1B12722  31.088  60.034  30.243
    1STR    H1C12723  31.329  60.086  30.114
    1STR    H1D12724  31.561  60.057  30.019
    1STR    H1E12725  31.891  59.798  29.955
    1STR    H1F12726  31.906  60.018  29.743
    1STR    H1G12727  31.994  59.866  29.740
    1STR    H1H12728  31.819  59.866  29.726
    1STR    H1I12729  32.002  59.957  30.106
    1STR    H1J12730  32.022  60.072  29.975
    1STR    H1K12731  32.260  60.048  30.023
    1STR    H1M12732  32.259  59.770  30.155
    1STR    H1N12733  32.188  59.915  30.225
    1STR    H1O12734  32.362  59.904  30.205
    1STR    H1P12735  32.377  59.783  29.924
    1STR    H1Q12736  32.364  59.930  29.829
    1STR   C01012737  32.619  59.899  29.921
    1STR   H01112738  32.615  59.792  29.897
    1STR   C01212739  32.638  59.980  29.792
    1STR   H01312740  32.638  60.087  29.812
    1STR   H01412741  32.560  59.960  29.718
    1STR   H01512742  32.733  59.956  29.744
    1STR   C01612743  32.738  59.921  30.017
    1STR   H01712744  32.745  60.026  30.044
    1STR   H01812745  32.719  59.865  30.109
    1STR   O01912746  32.861  59.877  29.958
    1STR   C02012747  32.978  59.897  30.037
    1STR   H02112748  32.976  59.996  30.083
    1STR   C02212749  32.986  59.789  30.146
    1STR   H02312750  32.984  59.689  30.103
    1STR   H02412751  32.905  59.796  30.218
    1STR   H02512752  33.079  59.798  30.203
    1STR   C02612753  33.102  59.890  29.945
    1STR   H02712754  33.108  59.792  29.897
    1STR   H02812755  33.090  59.964  29.865
    1STR   O02912756  33.221  59.917  30.020
    1STR   C03012757  33.343  59.910  29.946
    1STR   H03112758  33.343  59.823  29.881
    1STR   C03212759  33.361  60.038  29.863
    1STR   H03312760  33.358  60.127  29.926
    1STR   H03412761  33.285  60.048  29.786
    1STR   H03512762  33.458  60.038  29.812
    1STR   C03612763  33.459  59.893  30.047
    1STR   H03712764  33.463  59.979  30.114
    1STR   H03812765  33.439  59.806  30.109
    1STR   O03912766  33.582  59.878  29.977
    1STR   C04012767  33.698  59.865  30.060
    1STR   H04112768  33.695  59.938  30.141
    1STR   C04212769  33.707  59.723  30.117
    1STR   H04312770  33.706  59.648  30.037
    1STR   H04412771  33.625  59.700  30.184
    1STR   H04512772  33.800  59.710  30.173
    1STR   C04612773  33.821  59.898  29.973
    1STR   H04712774  33.829  59.827  29.891
    1STR   H04812775  33.808  59.997  29.928
    1STR   O04912776  33.939  59.895  30.054
    1STR   C05012777  34.061  59.920  29.984
    1STR   H05112778  34.063  59.866  29.889
    1STR   C05212779  34.077  60.071  29.959
    1STR   H05312780  34.072  60.127  30.052
    1STR   H05412781  34.001  60.110  29.891
    1STR   H05512782  34.174  60.092  29.913
    1STR   C05612783  34.176  59.866  30.071
    1STR   H05712784  34.179  59.919  30.166
    1STR   H05812785  34.158  59.761  30.093
    1STR   O05912786  34.300  59.881  30.001
    1STR   C06012787  34.416  59.838  30.073
    1STR   H06112788  34.411  59.871  30.177
    1STR   C06212789  34.426  59.684  30.068
    1STR   H06312790  34.427  59.648  29.965
    1STR   H06412791  34.344  59.635  30.120
    1STR   H06512792  34.519  59.650  30.115
    1STR   C06612793  34.538  59.904  30.007
    1STR   H06712794  34.547  59.871  29.904
    1STR   H06812795  34.523  60.012  30.006
    1STR   O06912796  34.656  59.871  30.081
    1STR   C07012797  34.777  59.924  30.029
    1STR   H07112798  34.780  59.912  29.920
    1STR   C07212799  34.790  60.072  30.066
    1STR   H07312800  34.784  60.087  30.174
    1STR   H07412801  34.714  60.134  30.019
    1STR   H07512802  34.887  60.112  30.033
    1STR   C07612803  34.892  59.841  30.088
    1STR   H07712804  34.894  59.852  30.196
    1STR   H07812805  34.875  59.735  30.066
    1STR   O07912806  35.016  59.884  30.031
    1STR   C08012807  35.132  59.817  30.080
    1STR   H08112808  35.126  59.807  30.189
    1STR   C08212809  35.145  59.679  30.014
    1STR   H08312810  35.146  59.687  29.906
    1STR   H08412811  35.064  59.612  30.042
    1STR   H08512812  35.238  59.630  30.045
    1STR   C08612813  35.253  59.906  30.048
    1STR   H08712814  35.263  59.918  29.940
    1STR   H08812815  35.236  60.006  30.089
    1STR   O08912816  35.371  59.848  30.104
    1STR   C09012817  35.491  59.919  30.078
    1STR   H09112818  35.494  59.952  29.974
    1STR   C09212819  35.502  60.041  30.171
    1STR   H09312820  35.495  60.011  30.276
    1STR   H09412821  35.424  60.115  30.152
    1STR   H09512822  35.598  60.091  30.158
    1STR   C09612823  35.608  59.821  30.100
    1STR   H09712824  35.609  59.788  30.204
    1STR   H09812825  35.592  59.733  30.038
    1STR   O09912826  35.731  59.885  30.065
    1STR   C10012827  35.847  59.806  30.085
    1STR   H10112828  35.842  59.753  30.181
    1STR   C10212829  35.863  59.706  29.970
    1STR   H10312830  35.864  59.756  29.873
    1STR   H10412831  35.782  59.632  29.968
    1STR   H10512832  35.956  59.650  29.979
    1STR   C10612833  35.967  59.902  30.092
    1STR   H10712834  35.977  59.956  29.998
    1STR   H10812835  35.948  59.977  30.169
    1STR   O10912836  36.086  59.829  30.121
    1STR   C11012837  36.205  59.906  30.127
    1STR   H11112838  36.208  59.977  30.044
    1STR   C11212839  36.214  59.980  30.261
    1STR   H11312840  36.207  59.911  30.345
    1STR   H11412841  36.135  60.054  30.272
    1STR   H11512842  36.308  60.033  30.270
    1STR   C11612843  36.323  59.809  30.109
    1STR   H11712844  36.325  59.737  30.191
    1STR   H11812845  36.309  59.753  30.017
    1STR   O11912846  36.445  59.883  30.104
    1STR   C12012847  36.563  59.804  30.091
    1STR   H12112848  36.558  59.717  30.157
    1STR   C12212849  36.580  59.759  29.946
    1STR   H12312850  36.581  59.844  29.878
    1STR   H12412851  36.501  59.691  29.914
    1STR   H12512852  36.675  59.705  29.933
    1STR   C12612853  36.681  59.891  30.137
    1STR   H12712854  36.691  59.978  30.072
    1STR   H12812855  36.661  59.928  30.238
    1STR   O12912856  36.801  59.814  30.136
    1STR   C13012857  36.919  59.884  30.172
    1STR   H13112858  36.920  59.983  30.125
    1STR   C13212859  36.926  59.898  30.325
    1STR   H13312860  36.919  59.801  30.374
    1STR   H13412861  36.845  59.961  30.365
    1STR   H13512862  37.020  59.945  30.356
    1STR   C13612863  37.038  59.804  30.118
    1STR   H13712864  37.041  59.705  30.164
    1STR   H13812865  37.025  59.789  30.011
    1STR   O13912866  37.159  59.875  30.145
    1STR   C14012867  37.278  59.810  30.103
    1STR   H14112868  37.274  59.704  30.129
    1STR   C14212869  37.297  59.826  29.951
    1STR   H14312870  37.297  59.932  29.923
    1STR   H14412871  37.219  59.776  29.894
    1STR   H14512872  37.392  59.784  29.919
    1STR   C14612873  37.395  59.873  30.181
    1STR   H14712874  37.403  59.979  30.156
    1STR   H14812875  37.374  59.866  30.288
    1STR   O14912876  37.516  59.804  30.149
    1STR   C15012877  37.633  59.855  30.212
    1STR   H15112878  37.633  59.964  30.209
    1STR   C15212879  37.639  59.807  30.358
    1STR   H15312880  37.634  59.699  30.364
    1STR   H15412881  37.558  59.848  30.418
    1STR   H15512882  37.732  59.839  30.405
    1STR   C15612883  37.754  59.805  30.132
    1STR   H15712884  37.758  59.696  30.135
    1STR   H15812885  37.741  59.834  30.027
    1STR   O15912886  37.873  59.862  30.185
    1STR   C16012887  37.993  59.820  30.122
    1STR   H16112888  37.991  59.712  30.103
    1STR   C16212889  38.012  59.896  29.989
    1STR   H16312890  38.010  60.004  30.005
    1STR   H16412891  37.935  59.872  29.917
    1STR   H16512892  38.108  59.871  29.944
    1STR   C16612893  38.109  59.848  30.219
    1STR   H16712894  38.115  59.955  30.239
    1STR   H16812895  38.087  59.799  30.314
    1STR   O16912896  38.231  59.799  30.164
    1STR   C17012897  38.347  59.823  30.243
    1STR   H17112898  38.345  59.924  30.283
    1STR   C17212899  38.353  59.721  30.358
    1STR   H17312900  38.350  59.619  30.320
    1STR   H17412901  38.271  59.733  30.429
    1STR   H17512902  38.446  59.732  30.414
    1STR   C17612903  38.469  59.811  30.150
    1STR   H17712904  38.475  59.710  30.109
    1STR   H17812905  38.456  59.879  30.066
    1STR   O17912906  38.587  59.843  30.223
    1STR   C18012907  38.708  59.832  30.149
    1STR   H18112908  38.707  59.741  30.089
    1STR   C18212909  38.726  59.955  30.058
    1STR   H18312910  38.722  60.047  30.116
    1STR   H18412911  38.649  59.961  29.981
    1STR   H18512912  38.822  59.952  30.008
    1STR   C18612913  38.823  59.821  30.251
    1STR   H18712914  38.827  59.911  30.312
    1STR   H18812915  38.802  59.738  30.318
    1STR   O18912916  38.946  59.800  30.182
    1STR   C19012917  39.061  59.791  30.265
    1STR   H19112918  39.057  59.868  30.342
    1STR   C19212919  39.069  59.652  30.330
    1STR   H19312920  39.068  59.573  30.254
    1STR   H19412921  38.986  59.634  30.398
    1STR   H19512922  39.161  59.641  30.387
    1STR   C19612923  39.183  59.819  30.176
    1STR   H19712924  39.191  59.743  30.099
    1STR   H19812925  39.170  59.915  30.126
    1STR   O19912926  39.301  59.821  30.257
    1STR   C20012927  39.422  59.842  30.186
    1STR   H20112928  39.423  59.783  30.094
    1STR   C20212929  39.438  59.991  30.153
    1STR   H20312930  39.433  60.053  30.243
    1STR   H20412931  39.362  60.027  30.083
    1STR   H20512932  39.535  60.010  30.106
    1STR   C20612933  39.537  59.792  30.276
    1STR   H20712934  39.540  59.851  30.368
    1STR   H20812935  39.517  59.689  30.304
    1STR   O20912936  39.660  59.803  30.205
    1STR   C21012937  39.776  59.763  30.279
    1STR   H21112938  39.771  59.803  30.381
    1STR   C21212939  39.786  59.610  30.282
    1STR   H21312940  39.786  59.568  30.182
    1STR   H21412941  39.703  59.564  30.337
    1STR   H21512942  39.878  59.578  30.331
    1STR   C21612943  39.898  59.826  30.210
    1STR   H21712944  39.907  59.787  30.108
    1STR   H21812945  39.883  59.934  30.202
    1STR   O21912946  40.015  59.797  30.285
    1STR   C22012947  40.136  59.847  30.230
    1STR   H22112948  40.139  59.829  30.122
    1STR   C22212949  40.150  59.997  30.259
    1STR   H22312950  40.143  60.017  30.366
    1STR   H22412951  40.073  60.056  30.209
    1STR   H22512952  40.246  60.035  30.224
    1STR   C22612953  40.252  59.767  30.293
    1STR   H22712954  40.254  59.784  30.401
    1STR   H22812955  40.234  59.661  30.278
    1STR   O22912956  40.375  59.806  30.234
    1STR   C23012957  40.491  59.742  30.287
    1STR   H23112958  40.485  59.738  30.396
    1STR   C23212959  40.503  59.601  30.228
    1STR   H23312960  40.505  59.603  30.119
    1STR   H23412961  40.422  59.536  30.260
    1STR   H23512962  40.596  59.553  30.261
    1STR   C23612963  40.612  59.829  30.250
    1STR   H23712964  40.622  59.835  30.141
    1STR   H23812965  40.595  59.931  30.286
    1STR   O23912966  40.730  59.774  30.308
    1STR   C24012967  40.851  59.843  30.278
    1STR   H24112968  40.854  59.870  30.173
    1STR   C24212969  40.861  59.970  30.365
    1STR   H24312970  40.854  59.945  30.471
    1STR   H24412971  40.784  60.042  30.342
    1STR   H24512972  40.957  60.019  30.350
    1STR   C24612973  40.967  59.747  30.306
    1STR   H24712974  40.968  59.719  30.411
    1STR   H24812975  40.951  59.655  30.248
    1STR   O24912976  41.090  59.808  30.268
    1STR   C25012977  41.207  59.730  30.292
    1STR   H25112978  41.201  59.682  30.390
    1STR   C25212979  41.222  59.623  30.182
    1STR   H25312980  41.223  59.669  30.083
    1STR   H25412981  41.141  59.550  30.185
    1STR   H25512982  41.315  59.568  30.194
    1STR   C25612983  41.327  59.826  30.293
    1STR   H25712984  41.337  59.874  30.196
    1STR   H25812985  41.309  59.904  30.367
    1STR   O25912986  41.446  59.754  30.326
    1STR   C26012987  41.566  59.831  30.328
    1STR   H26112988  41.569  59.898  30.241
    1STR   C26212989  41.574  59.912  30.458
    1STR   H26312990  41.566  59.847  30.545
    1STR   H26412991  41.495  59.987  30.465
    1STR   H26512992  41.669  59.965  30.464
    1STR   C26612993  41.684  59.733  30.316
    1STR   H26712994  41.685  59.665  30.401
    1STR   H26812995  41.670  59.672  30.226
    1STR   O26912996  41.807  59.806  30.307
    1STR   C27012997  41.925  59.726  30.299
    1STR   H27112998  41.919  59.643  30.369
    1STR   C27212999  41.941  59.673  30.155
    1STR   H27313000  41.941  59.754  30.083
    1STR   H27413001  41.861  59.604  30.128
    1STR   H27513002  42.035  59.619  30.145
    1STR   C27613003  42.044  59.815  30.339
    1STR   H27713004  42.053  59.899  30.270
    1STR   H27813005  42.025  59.857  30.437
    1STR   O27913006  42.164  59.738  30.340
    1STR   C28013007  42.283  59.809  30.374
    1STR   H28113008  42.285  59.905  30.322
    1STR   C28213009  42.289  59.832  30.526
    1STR   H28313010  42.281  59.737  30.580
    1STR   H28413011  42.209  59.897  30.561
    1STR   H28513012  42.383  59.879  30.554
    1STR   C28613013  42.404  59.726  30.325
    1STR   H28713014  42.405  59.630  30.376
    1STR   H28813015  42.392  59.706  30.219
    1STR   O28913016  42.525  59.798  30.349
    1STR   C29013017  42.645  59.731  30.310
    1STR   H29113018  42.641  59.626  30.341
    1STR   C29213019  42.662  59.739  30.157
    1STR   H29313020  42.660  59.842  30.123
    1STR   H29413021  42.584  59.685  30.104
    1STR   H29513022  42.757  59.696  30.126
    1STR   C29613023  42.763  59.798  30.383
    1STR   H29713024  42.770  59.903  30.353
    1STR   H29813025  42.744  59.796  30.490
    1STR   O29913026  42.886  59.731  30.353
    1STR   C30013027  43.003  59.786  30.414
    1STR   H30113028  43.000  59.895  30.406
    1STR   C30213029  43.009  59.744  30.561
    1STR   H30313030  43.004  59.635  30.572
    1STR   H30413031  42.928  59.786  30.620
    1STR   H30513032  43.102  59.777  30.607
    1STR   C30613033  43.127  59.736  30.336
    1STR   H30713034  43.136  59.628  30.346
    1STR   H30813035  43.111  59.757  30.230
    1STR   O30913036  43.245  59.802  30.383
    1STR    H1R13037  43.373  59.655  30.312
    1STR    H1S13038  43.468  59.804  30.128
    1STR    H1T13039  43.360  59.933  30.179
    1STR    H1U13040  43.295  59.784  30.110
    1STR    H1V13041  43.475  59.784  30.505
    1STR    H1W13042  43.491  59.923  30.402
    1STR    H1X13043  43.784  59.656  30.282
    1STR    H1Y13044  43.955  59.580  30.146
    1STR    H1Z13045  44.170  59.616  30.036
    1STR    H2013046  44.331  59.943  29.997
    1STR    H2113047  44.411  59.805  30.074
    1STR    H2213048  44.312  59.782  29.931
    1STR    H2313049  44.151  60.122  30.201
    1STR    H2713050  43.974  59.976  30.315
    1STR    H2813051  31.435  59.740  29.876
    1STR    H2913052  31.210  59.657  29.896
    1STR    H2A13053  30.962  59.772  30.133
    1STR    H2B13054  31.007  59.648  30.017
    1STR    H2C13055  30.930  59.795  29.960
    1STR   BCK113056  30.943   0.014  45.150
    1STR    O0313057  30.886   0.116  45.188
    1STR    N0413058  31.070   0.009  45.103
    1STR    C0513059  31.159   0.113  45.068
    1STR    C0613060  31.299   0.102  45.097
    1STR    C0713061  31.395   0.201  45.055
    1STR    N0813062  31.534   0.185  45.080
    1STR    C0913063  31.639   0.265  45.049
    1STR    O0A13064  31.629   0.375  44.995
    1STR    O0B13065  31.760   0.212  45.085
    1STR    C0C13066  31.882   0.288  45.065
    1STR    C0D13067  31.898   0.388  45.181
    1STR    C0E13068  32.008   0.199  45.052
    1STR    O0F13069  32.127   0.279  45.035
    1STR    C0G13070  32.251   0.208  45.017
    1STR    C0H13071  32.260   0.156  44.873
    1STR    C0I13072  32.371   0.300  45.049
    1STR    O0J13073  32.495   0.227  45.039
    1STR    C0K13074  43.381   0.127  44.706
    1STR    C0M13075  43.373   0.189  44.846
    1STR    C0N13076  43.502   0.030  44.698
    1STR    O0O13077  43.627   0.101  44.709
    1STR    C0P13078  43.725   0.064  44.795
    1STR    O0Q13079  43.718  60.135  44.880
    1STR    N0R13080  43.831   0.142  44.773
    1STR    C0S13081  43.958   0.159  44.830
    1STR    C0T13082  44.030   0.268  44.778
    1STR    C0U13083  44.154   0.305  44.831
    1STR    C0V13084  44.211   0.233  44.937
    1STR    C0W13085  44.338   0.292  44.999
    1STR    C0X13086  44.149   0.115  44.985
    1STR    N0Y13087  44.212   0.040  45.087
    1STR   BCK213088  44.341  60.160  45.090
    1STR    O1013089  44.416   0.004  44.994
    1STR    C1313090  44.019   0.081  44.934
    1STR    C1413091  31.344   0.313  44.986
    1STR    C1513092  31.208   0.324  44.955
    1STR    C1613093  31.116   0.224  44.991
    1STR    C1713094  30.974   0.240  44.938
    1STR    H1B13095  31.104  60.075  45.092
    1STR    H1C13096  31.334   0.016  45.152
    1STR    H1D13097  31.564   0.102  45.127
    1STR    H1E13098  31.873   0.345  44.972
    1STR    H1F13099  31.908   0.338  45.277
    1STR    H1G13100  31.987   0.450  45.167
    1STR    H1H13101  31.813   0.456  45.187
    1STR    H1I13102  31.995   0.133  44.966
    1STR    H1J13103  32.019   0.136  45.140
    1STR    H1K13104  32.254   0.124  45.087
    1STR    H1M13105  32.254   0.238  44.801
    1STR    H1N13106  32.182   0.084  44.849
    1STR    H1O13107  32.356   0.106  44.856
    1STR    H1P13108  32.372   0.385  44.981
    1STR    H1Q13109  32.360   0.341  45.149
    1STR   C01013110  32.616   0.301  45.060
    1STR   H01113111  32.611   0.396  45.006
    1STR   C01213112  32.634   0.328  45.211
    1STR   H01313113  32.634   0.235  45.268
    1STR   H01413114  32.557   0.393  45.251
    1STR   H01513115  32.730   0.377  45.229
    1STR   C01613116  32.735   0.220  45.004
    1STR   H01713117  32.741   0.123  45.055
    1STR   H01813118  32.716   0.198  44.899
    1STR   O01913119  32.858   0.291  45.019
    1STR   C02013120  32.976   0.223  44.974
    1STR   H02113121  32.973   0.119  45.008
    1STR   C02213122  32.984   0.229  44.821
    1STR   H02313123  32.982   0.332  44.785
    1STR   H02413124  32.902   0.175  44.773
    1STR   H02513125  33.077   0.184  44.786
    1STR   C02613126  33.100   0.290  45.038
    1STR   H02713127  33.106   0.394  45.007
    1STR   H02813128  33.088   0.289  45.147
    1STR   O02913129  33.219   0.220  45.001
    1STR   C03013130  33.341   0.274  45.050
    1STR   H03113131  33.341   0.383  45.038
    1STR   C03213132  33.360   0.237  45.198
    1STR   H03313133  33.356   0.129  45.212
    1STR   H03413134  33.284   0.282  45.261
    1STR   H03513135  33.457   0.272  45.234
    1STR   C03613136  33.457   0.219  44.964
    1STR   H03713137  33.461   0.110  44.973
    1STR   H03813138  33.438   0.241  44.859
    1STR   O03913139  33.581   0.277  45.005
    1STR   C04013140  33.697   0.231  44.936
    1STR   H04113141  33.693   0.122  44.925
    1STR   C04213142  33.706   0.297  44.798
    1STR   H04313143  33.705   0.406  44.806
    1STR   H04413144  33.624   0.268  44.732
    1STR   H04513145  33.798   0.269  44.747
    1STR   C04613146  33.821   0.265  45.022
    1STR   H04713147  33.828   0.373  45.034
    1STR   H04813148  33.807   0.223  45.121
    1STR   O04913149  33.939   0.213  44.960
    1STR   C05013150  34.061   0.242  45.028
    1STR   H05113151  34.062   0.346  45.061
    1STR   C05213152  34.077   0.148  45.149
    1STR   H05313153  34.071   0.043  45.119
    1STR   H05413154  34.001   0.165  45.225
    1STR   H05513155  34.173   0.163  45.197
    1STR   C05613156  34.176   0.223  44.928
    1STR   H05713157  34.179   0.120  44.893
    1STR   H05813158  34.157   0.285  44.840
    1STR   O05913159  34.300   0.259  44.989
    1STR   C06013160  34.415   0.242  44.907
    1STR   H06113161  34.410   0.147  44.854
    1STR   C06213162  34.426   0.359  44.807
    1STR   H06313163  34.427   0.455  44.859
    1STR   H06413164  34.344   0.359  44.736
    1STR   H06513165  34.518   0.352  44.750
    1STR   C06613166  34.538   0.237  45.000
    1STR   H06713167  34.547   0.332  45.055
    1STR   H06813168  34.523   0.159  45.075
    1STR   O06913169  34.655   0.212  44.924
    1STR   C07013170  34.777   0.209  44.998
    1STR   H07113171  34.779   0.291  45.070
    1STR   C07213172  34.790   0.074  45.071
    1STR   H07313173  34.783  60.151  45.001
    1STR   H07413174  34.714   0.061  45.147
    1STR   H07513175  34.887   0.067  45.122
    1STR   C07613176  34.892   0.230  44.899
    1STR   H07713177  34.894   0.149  44.826
    1STR   H07813178  34.875   0.322  44.843
    1STR   O07913179  35.016   0.237  44.970
    1STR   C08013180  35.132   0.253  44.888
    1STR   H08113181  35.126   0.187  44.801
    1STR   C08213182  35.145   0.399  44.843
    1STR   H08313183  35.146   0.466  44.929
    1STR   H08413184  35.063   0.429  44.778
    1STR   H08513185  35.238   0.414  44.788
    1STR   C08613186  35.253   0.209  44.972
    1STR   H08713187  35.263   0.273  45.059
    1STR   H08813188  35.236   0.107  45.009
    1STR   O08913189  35.371   0.214  44.892
    1STR   C09013190  35.491   0.179  44.959
    1STR   H09113191  35.494   0.226  45.058
    1STR   C09213192  35.502   0.026  44.972
    1STR   H09313193  35.495  60.138  44.875
    1STR   H09413194  35.424  60.145  45.036
    1STR   H09513195  35.598  60.158  45.016
    1STR   C09613196  35.608   0.236  44.877
    1STR   H09713197  35.609   0.191  44.777
    1STR   H09813198  35.592   0.343  44.862
    1STR   O09913199  35.731   0.212  44.945
    1STR   C10013200  35.847   0.257  44.877
    1STR   H10113201  35.842   0.232  44.771
    1STR   C10213202  35.863   0.409  44.894
    1STR   H10313203  35.864   0.437  45.000
    1STR   H10413204  35.782   0.465  44.846
    1STR   H10513205  35.956   0.444  44.850
    1STR   C10613206  35.967   0.182  44.937
    1STR   H10713207  35.977   0.206  45.043
    1STR   H10813208  35.948   0.075  44.930
    1STR   O10913209  36.086   0.216  44.866
    1STR   C11013210  36.205   0.156  44.914
    1STR   H11113211  36.208   0.159  45.023
    1STR   C11213212  36.214   0.010  44.865
    1STR   H11313213  36.207   0.005  44.756
    1STR   H11413214  36.135  60.108  44.907
    1STR   H11513215  36.309  60.125  44.894
    1STR   C11613216  36.323   0.239  44.862
    1STR   H11713217  36.325   0.237  44.753
    1STR   H11813218  36.309   0.343  44.892
    1STR   O11913219  36.445   0.188  44.915
    1STR   C12013220  36.563   0.255  44.871
    1STR   H12113221  36.558   0.274  44.764
    1STR   C12213222  36.580   0.387  44.948
    1STR   H12313223  36.581   0.370  45.055
    1STR   H12413224  36.501   0.458  44.925
    1STR   H12513225  36.675   0.435  44.921
    1STR   C12613226  36.681   0.159  44.896
    1STR   H12713227  36.691   0.139  45.003
    1STR   H12813228  36.661   0.064  44.847
    1STR   O12913229  36.801   0.218  44.845
    1STR   C13013230  36.919   0.141  44.865
    1STR   H13113231  36.920   0.100  44.966
    1STR   C13213232  36.926   0.027  44.762
    1STR   H13313233  36.919   0.066  44.660
    1STR   H13413234  36.845  60.115  44.775
    1STR   H13513235  37.020  60.133  44.771
    1STR   C13613236  37.038   0.237  44.851
    1STR   H13713237  37.041   0.278  44.750
    1STR   H13813238  37.025   0.320  44.920
    1STR   O13913239  37.159   0.166  44.880
    1STR   C14013240  37.278   0.243  44.866
    1STR   H14113241  37.274   0.304  44.776
    1STR   C14213242  37.297   0.333  44.990
    1STR   H14313243  37.296   0.274  45.082
    1STR   H14413244  37.219   0.408  44.998
    1STR   H14513245  37.392   0.386  44.985
    1STR   C14613246  37.395   0.144  44.851
    1STR   H14713247  37.403   0.082  44.941
    1STR   H14813248  37.374   0.077  44.768
    1STR   O14913249  37.516   0.216  44.828
    1STR   C15013250  37.633   0.135  44.816
    1STR   H15113251  37.633   0.057  44.893
    1STR   C15213252  37.639   0.072  44.676
    1STR   H15313253  37.634   0.148  44.599
    1STR   H15413254  37.558   0.002  44.659
    1STR   H15513255  37.732   0.017  44.663
    1STR   C15613256  37.753   0.227  44.842
    1STR   H15713257  37.758   0.305  44.766
    1STR   H15813258  37.741   0.276  44.939
    1STR   O15913259  37.873   0.149  44.841
    1STR   C16013260  37.993   0.223  44.860
    1STR   H16113261  37.991   0.315  44.801
    1STR   C16213262  38.012   0.256  45.009
    1STR   H16313263  38.010   0.165  45.069
    1STR   H16413264  37.935   0.323  45.046
    1STR   H16513265  38.108   0.305  45.025
    1STR   C16613266  38.109   0.136  44.807
    1STR   H16713267  38.115   0.044  44.864
    1STR   H16813268  38.087   0.108  44.704
    1STR   O16913269  38.231   0.209  44.814
    1STR   C17013270  38.347   0.138  44.772
    1STR   H17113271  38.345   0.036  44.811
    1STR   C17213272  38.353   0.136  44.618
    1STR   H17313273  38.350   0.237  44.577
    1STR   H17413274  38.271   0.080  44.574
    1STR   H17513275  38.446   0.090  44.584
    1STR   C17613276  38.468   0.210  44.832
    1STR   H17713277  38.474   0.312  44.794
    1STR   H17813278  38.456   0.217  44.940
    1STR   O17913279  38.587   0.137  44.800
    1STR   C18013280  38.708   0.195  44.847
    1STR   H18113281  38.707   0.303  44.830
    1STR   C18213282  38.726   0.166  44.997
    1STR   H18313283  38.722   0.058  45.017
    1STR   H18413284  38.649   0.214  45.058
    1STR   H18513285  38.822   0.202  45.033
    1STR   C18613286  38.823   0.135  44.765
    1STR   H18713287  38.827   0.027  44.781
    1STR   H18813288  38.802   0.151  44.659
    1STR   O18913289  38.946   0.197  44.801
    1STR   C19013290  39.061   0.147  44.734
    1STR   H19113291  39.057   0.038  44.729
    1STR   C19213292  39.069   0.206  44.593
    1STR   H19313293  39.068   0.315  44.595
    1STR   H19413294  38.986   0.173  44.530
    1STR   H19513295  39.161   0.175  44.543
    1STR   C19613296  39.183   0.186  44.819
    1STR   H19713297  39.191   0.295  44.824
    1STR   H19813298  39.170   0.150  44.920
    1STR   O19913299  39.301   0.130  44.761
    1STR   C20013300  39.422   0.163  44.827
    1STR   H20113301  39.424   0.269  44.854
    1STR   C20213302  39.438   0.076  44.953
    1STR   H20313303  39.433  60.130  44.928
    1STR   H20413304  39.362   0.097  45.027
    1STR   H20513305  39.535   0.093  45.000
    1STR   C20613306  39.537   0.139  44.727
    1STR   H20713307  39.540   0.033  44.699
    1STR   H20813308  39.518   0.196  44.637
    1STR   O20913309  39.660   0.179  44.786
    1STR   C21013310  39.776   0.158  44.705
    1STR   H21113311  39.771   0.060  44.657
    1STR   C21213312  39.786   0.269  44.599
    1STR   H21313313  39.786   0.367  44.645
    1STR   H21413314  39.703   0.265  44.528
    1STR   H21513315  39.878   0.259  44.542
    1STR   C21613316  39.898   0.159  44.798
    1STR   H21713317  39.907   0.256  44.847
    1STR   H21813318  39.883   0.085  44.877
    1STR   O21913319  40.015   0.129  44.723
    1STR   C22013320  40.137   0.130  44.798
    1STR   H22113321  40.139   0.216  44.865
    1STR   C22213322  40.150  60.159  44.878
    1STR   H22313323  40.143  60.072  44.813
    1STR   H22413324  40.073  60.150  44.955
    1STR   H22513325  40.246  60.155  44.929
    1STR   C22613326  40.252   0.146  44.697
    1STR   H22713327  40.254   0.060  44.629
    1STR   H22813328  40.235   0.235  44.637
    1STR   O22913329  40.376   0.157  44.768
    1STR   C23013330  40.492   0.168  44.685
    1STR   H23113331  40.486   0.098  44.602
    1STR   C23213332  40.504   0.312  44.632
    1STR   H23313333  40.505   0.384  44.714
    1STR   H23413334  40.422   0.338  44.565
    1STR   H23513335  40.597   0.325  44.576
    1STR   C23613336  40.613   0.130  44.771
    1STR   H23713337  40.623   0.199  44.855
    1STR   H23813338  40.597   0.030  44.813
    1STR   O23913339  40.731   0.131  44.691
    1STR   C24013340  40.852   0.100  44.760
    1STR   H24113341  40.855   0.151  44.856
    1STR   C24213342  40.862  60.108  44.781
    1STR   H24313343  40.855  60.054  44.686
    1STR   H24413344  40.785  60.070  44.848
    1STR   H24513345  40.958  60.081  44.826
    1STR   C24613346  40.969   0.152  44.674
    1STR   H24713347  40.970   0.102  44.578
    1STR   H24813348  40.953   0.258  44.655
    1STR   O24913349  41.092   0.132  44.743
    1STR   C25013350  41.209   0.174  44.673
    1STR   H25113351  41.203   0.143  44.569
    1STR   C25213352  41.223   0.326  44.682
    1STR   H25313353  41.224   0.360  44.786
    1STR   H25413354  41.142   0.378  44.631
    1STR   H25513355  41.316   0.359  44.636
    1STR   C25613356  41.330   0.102  44.737
    1STR   H25713357  41.340   0.132  44.841
    1STR   H25813358  41.312  60.155  44.736
    1STR   O25913359  41.449   0.134  44.664
    1STR   C26013360  41.569   0.076  44.715
    1STR   H26113361  41.572   0.085  44.824
    1STR   C26213362  41.576  60.088  44.674
    1STR   H26313363  41.568  60.076  44.566
    1STR   H26413364  41.497  60.028  44.720
    1STR   H26513365  41.671  60.044  44.705
    1STR   C26613366  41.688   0.155  44.658
    1STR   H26713367  41.689   0.148  44.549
    1STR   H26813368  41.675   0.260  44.683
    1STR   O26913369  41.811   0.106  44.713
    1STR   C27013370  41.929   0.172  44.666
    1STR   H27113371  41.924   0.185  44.558
    1STR   C27213372  41.944   0.308  44.736
    1STR   H27313373  41.944   0.297  44.844
    1STR   H27413374  41.865   0.377  44.708
    1STR   H27513375  42.039   0.355  44.708
    1STR   C27613376  42.050   0.080  44.696
    1STR   H27713377  42.058   0.064  44.804
    1STR   H27813378  42.031  60.142  44.652
    1STR   O27913379  42.171   0.136  44.644
    1STR   C28013380  42.290   0.060  44.666
    1STR   H28113381  42.292   0.025  44.770
    1STR   C28213382  42.294  60.101  44.570
    1STR   H28313383  42.285  60.134  44.466
    1STR   H28413384  42.214  60.029  44.589
    1STR   H28513385  42.388  60.047  44.579
    1STR   C28613386  42.412   0.153  44.646
    1STR   H28713387  42.413   0.190  44.543
    1STR   H28813388  42.400   0.240  44.711
    1STR   O28913389  42.534   0.084  44.675
    1STR   C29013390  42.654   0.160  44.660
    1STR   H29113391  42.651   0.216  44.566
    1STR   C29213392  42.669   0.258  44.778
    1STR   H29313393  42.665   0.205  44.873
    1STR   H29413394  42.591   0.334  44.779
    1STR   H29513395  42.764   0.311  44.773
    1STR   C29613396  42.774   0.063  44.653
    1STR   H29713397  42.779   0.004  44.745
    1STR   H29813398  42.757  60.152  44.572
    1STR   O29913399  42.898   0.132  44.633
    1STR   C30013400  43.016   0.050  44.627
    1STR   H30113401  43.011  60.134  44.706
    1STR   C30213402  43.024  60.142  44.490
    1STR   H30313403  43.019   0.056  44.409
    1STR   H30413404  42.943  60.071  44.474
    1STR   H30513405  43.117  60.088  44.479
    1STR   C30613406  43.141   0.137  44.655
    1STR   H30713407  43.156   0.208  44.573
    1STR   H30813408  43.121   0.197  44.744
    1STR   O30913409  43.259   0.057  44.675
    1STR    H1R13410  43.396   0.206  44.631
    1STR    H1S13411  43.468   0.235  44.874
    1STR    H1T13412  43.351   0.112  44.921
    1STR    H1U13413  43.297   0.266  44.854
    1STR    H1V13414  43.502  60.139  44.602
    1STR    H1W13415  43.493  60.111  44.773
    1STR    H1X13416  43.808   0.204  44.698
    1STR    H1Y13417  43.990   0.328  44.697
    1STR    H1Z13418  44.204   0.392  44.791
    1STR    H2013419  44.342   0.271  45.106
    1STR    H2113420  44.426   0.250  44.951
    1STR    H2213421  44.341   0.400  44.988
    1STR    H2313422  44.156   0.015  45.167
    1STR    H2713423  43.966  60.156  44.972
    1STR    H2813424  31.407   0.394  44.952
    1STR    H2913425  31.175   0.411  44.899
    1STR    H2A13426  30.929   0.143  44.916
    1STR    H2B13427  30.973   0.298  44.846
    1STR    H2C13428  30.913   0.292  45.011
    1STR   BCK113429  30.927  14.920   0.095
    1STR    O0313430  30.914  14.798   0.100
    1STR    N0413431  31.044  14.984   0.116
    1STR    C0513432  31.153  14.942   0.195
    1STR    C0613433  31.288  14.938   0.147
    1STR    C0713434  31.399  14.910   0.234
    1STR    N0813435  31.534  14.912   0.189
    1STR    C0913436  31.647  14.869   0.251
    1STR    O0A13437  31.647  14.811   0.359
    1STR    O0B13438  31.763  14.897   0.183
    1STR    C0C13439  31.890  14.856   0.239
    1STR    C0D13440  31.911  14.705   0.214
    1STR    C0E13441  32.012  14.937   0.187
    1STR    O0F13442  32.132  14.891   0.251
    1STR    C0G13443  32.255  14.957   0.214
    1STR    C0H13444  32.264  15.093   0.286
    1STR    C0I13445  32.376  14.868   0.253
    1STR    O0J13446  32.499  14.929   0.211
    1STR    C0K13447  43.373  15.241   0.409
    1STR    C0M13448  43.378  15.103   0.342
    1STR    C0N13449  43.493  15.328   0.362
    1STR    O0O13450  43.614  15.285   0.425
    1STR    C0P13451  43.721  15.242   0.354
    1STR    O0Q13452  43.728  15.233   0.232
    1STR    N0R13453  43.816  15.206   0.440
    1STR    C0S13454  43.937  15.138   0.425
    1STR    C0T13455  43.979  15.062   0.535
    1STR    C0U13456  44.091  14.978   0.526
    1STR    C0V13457  44.167  14.972   0.407
    1STR    C0W13458  44.269  14.860   0.398
    1STR    C0X13459  44.138  15.061   0.300
    1STR    N0Y13460  44.214  15.066   0.182
    1STR   BCK213461  44.346  15.064   0.154
    1STR    O1013462  44.380  15.063   0.036
    1STR    C1313463  44.019  15.139   0.308
    1STR    C1413464  31.369  14.888   0.370
    1STR    C1513465  31.237  14.893   0.419
    1STR    C1613466  31.130  14.922   0.333
    1STR    C1713467  30.992  14.938   0.394
    1STR    H1B13468  31.043  15.082   0.091
    1STR    H1C13469  31.307  14.957   0.042
    1STR    H1D13470  31.553  14.948   0.097
    1STR    H1E13471  31.887  14.872   0.347
    1STR    H1F13472  31.916  14.683   0.108
    1STR    H1G13473  32.003  14.671   0.260
    1STR    H1H13474  31.830  14.646   0.257
    1STR    H1I13475  31.996  15.043   0.208
    1STR    H1J13476  32.020  14.926   0.079
    1STR    H1K13477  32.258  14.972   0.106
    1STR    H1M13478  32.258  15.081   0.394
    1STR    H1N13479  32.185  15.161   0.255
    1STR    H1O13480  32.359  15.142   0.264
    1STR    H1P13481  32.377  14.852   0.361
    1STR    H1Q13482  32.364  14.770   0.207
    1STR   C01013483  32.619  14.859   0.246
    1STR   H01113484  32.615  14.826   0.350
    1STR   C01213485  32.638  14.738   0.154
    1STR   H01313486  32.638  14.767   0.049
    1STR   H01413487  32.561  14.662   0.168
    1STR   H01513488  32.734  14.689   0.174
    1STR   C01613489  32.738  14.957   0.232
    1STR   H01713490  32.745  14.993   0.130
    1STR   H01813491  32.719  15.044   0.295
    1STR   O01913492  32.861  14.894   0.271
    1STR   C02013493  32.979  14.975   0.258
    1STR   H02113494  32.977  15.029   0.164
    1STR   C02213495  32.987  15.074   0.375
    1STR   H02313496  32.985  15.022   0.471
    1STR   H02413497  32.905  15.146   0.374
    1STR   H02513498  33.080  15.131   0.371
    1STR   C02613499  33.102  14.882   0.257
    1STR   H02713500  33.108  14.826   0.350
    1STR   H02813501  33.091  14.809   0.177
    1STR   O02913502  33.221  14.959   0.237
    1STR   C03013503  33.344  14.885   0.237
    1STR   H03113504  33.343  14.813   0.319
    1STR   C03213505  33.362  14.813   0.103
    1STR   H03313506  33.358  14.883   0.019
    1STR   H03413507  33.286  14.737   0.086
    1STR   H03513508  33.459  14.762   0.099
    1STR   C03613509  33.459  14.984   0.263
    1STR   H03713510  33.463  15.058   0.182
    1STR   H03813511  33.439  15.038   0.355
    1STR   O03913512  33.583  14.913   0.272
    1STR   C04013513  33.699  14.994   0.292
    1STR   H04113514  33.695  15.081   0.227
    1STR   C04213515  33.707  15.038   0.439
    1STR   H04313516  33.707  14.952   0.506
    1STR   H04413517  33.625  15.104   0.467
    1STR   H04513518  33.800  15.093   0.457
    1STR   C04613519  33.822  14.911   0.252
    1STR   H04713520  33.830  14.823   0.316
    1STR   H04813521  33.809  14.875   0.150
    1STR   O04913522  33.940  14.991   0.261
    1STR   C05013523  34.062  14.924   0.231
    1STR   H05113524  34.063  14.824   0.277
    1STR   C05213525  34.078  14.911   0.078
    1STR   H05313526  34.072  15.009   0.030
    1STR   H05413527  34.001  14.847   0.034
    1STR   H05513528  34.174  14.867   0.053
    1STR   C05613529  34.177  15.005   0.292
    1STR   H05713530  34.180  15.105   0.248
    1STR   H05813531  34.158  15.019   0.399
    1STR   O05913532  34.300  14.937   0.272
    1STR   C06013533  34.416  15.005   0.321
    1STR   H06113534  34.411  15.111   0.296
    1STR   C06213535  34.427  14.986   0.473
    1STR   H06313536  34.427  14.881   0.500
    1STR   H06413537  34.344  15.034   0.526
    1STR   H06513538  34.519  15.030   0.511
    1STR   C06613539  34.538  14.946   0.249
    1STR   H06713540  34.548  14.839   0.272
    1STR   H06813541  34.523  14.954   0.141
    1STR   O06913542  34.656  15.016   0.288
    1STR   C07013543  34.777  14.969   0.231
    1STR   H07113544  34.780  14.859   0.233
    1STR   C07213545  34.791  15.019   0.086
    1STR   H07313546  34.784  15.127   0.081
    1STR   H07413547  34.714  14.977   0.021
    1STR   H07513548  34.887  14.990   0.044
    1STR   C07613549  34.893  15.020   0.319
    1STR   H07713550  34.894  15.129   0.318
    1STR   H07813551  34.875  14.989   0.422
    1STR   O07913552  35.016  14.967   0.271
    1STR   C08013553  35.132  15.010   0.342
    1STR   H08113554  35.126  15.118   0.361
    1STR   C08213555  35.145  14.933   0.474
    1STR   H08313556  35.146  14.825   0.456
    1STR   H08413557  35.064  14.955   0.543
    1STR   H08513558  35.238  14.959   0.525
    1STR   C08613559  35.253  14.986   0.250
    1STR   H08713560  35.263  14.879   0.229
    1STR   H08813561  35.236  15.036   0.155
    1STR   O08913562  35.371  15.037   0.312
    1STR   C09013563  35.492  15.017   0.239
    1STR   H09113564  35.494  14.916   0.198
    1STR   C09213565  35.502  15.120   0.126
    1STR   H09313566  35.495  15.222   0.165
    1STR   H09413567  35.425  15.107   0.051
    1STR   H09513568  35.598  15.111   0.075
    1STR   C09613569  35.608  15.030   0.339
    1STR   H09713570  35.609  15.131   0.381
    1STR   H09813571  35.592  14.961   0.422
    1STR   O09913572  35.731  15.002   0.273
    1STR   C10013573  35.848  15.014   0.353
    1STR   H10113574  35.842  15.105   0.414
    1STR   C10213575  35.863  14.891   0.443
    1STR   H10313576  35.864  14.799   0.384
    1STR   H10413577  35.783  14.882   0.516
    1STR   H10513578  35.956  14.895   0.499
    1STR   C10613579  35.967  15.030   0.258
    1STR   H10713580  35.977  14.940   0.196
    1STR   H10813581  35.949  15.113   0.190
    1STR   O10913582  36.086  15.052   0.334
    1STR   C11013583  36.205  15.064   0.257
    1STR   H11113584  36.208  14.988   0.179
    1STR   C11213585  36.214  15.205   0.195
    1STR   H11313586  36.207  15.282   0.272
    1STR   H11413587  36.135  15.222   0.122
    1STR   H11513588  36.309  15.218   0.143
    1STR   C11613589  36.323  15.038   0.352
    1STR   H11713590  36.325  15.113   0.431
    1STR   H11813591  36.309  14.941   0.400
    1STR   O11913592  36.445  15.040   0.278
    1STR   C12013593  36.563  15.020   0.356
    1STR   H12113594  36.558  15.078   0.448
    1STR   C12213595  36.580  14.871   0.388
    1STR   H12313596  36.581  14.811   0.297
    1STR   H12413597  36.501  14.833   0.453
    1STR   H12513598  36.675  14.854   0.440
    1STR   C12613599  36.681  15.074   0.273
    1STR   H12713600  36.691  15.017   0.180
    1STR   H12813601  36.661  15.177   0.245
    1STR   O12913602  36.801  15.065   0.350
    1STR   C13013603  36.919  15.108   0.283
    1STR   H13113604  36.920  15.070   0.181
    1STR   C13213605  36.926  15.262   0.283
    1STR   H13313606  36.919  15.302   0.384
    1STR   H13413607  36.846  15.306   0.224
    1STR   H13513608  37.020  15.296   0.239
    1STR   C13613609  37.038  15.047   0.358
    1STR   H13713610  37.041  15.084   0.461
    1STR   H13813611  37.025  14.939   0.364
    1STR   O13913612  37.159  15.079   0.290
    1STR   C14013613  37.278  15.032   0.351
    1STR   H14113614  37.274  15.048   0.459
    1STR   C14213615  37.297  14.882   0.321
    1STR   H14313616  37.296  14.863   0.214
    1STR   H14413617  37.219  14.821   0.367
    1STR   H14513618  37.392  14.847   0.361
    1STR   C14613619  37.395  15.115   0.295
    1STR   H14713620  37.403  15.100   0.187
    1STR   H14813621  37.374  15.221   0.311
    1STR   O14913622  37.516  15.078   0.361
    1STR   C15013623  37.633  15.145   0.315
    1STR   H15113624  37.633  15.151   0.206
    1STR   C15213625  37.639  15.286   0.375
    1STR   H15313626  37.634  15.283   0.484
    1STR   H15413627  37.558  15.350   0.340
    1STR   H15513628  37.732  15.336   0.348
    1STR   C15613629  37.753  15.060   0.358
    1STR   H15713630  37.758  15.054   0.467
    1STR   H15813631  37.741  14.959   0.320
    1STR   O15913632  37.873  15.118   0.306
    1STR   C16013633  37.993  15.052   0.342
    1STR   H16113634  37.991  15.024   0.448
    1STR   C16213635  38.012  14.927   0.255
    1STR   H16313636  38.010  14.952   0.149
    1STR   H16413637  37.935  14.852   0.273
    1STR   H16513638  38.108  14.879   0.276
    1STR   C16613639  38.109  15.151   0.323
    1STR   H16713640  38.115  15.181   0.218
    1STR   H16813641  38.087  15.242   0.380
    1STR   O16913642  38.231  15.092   0.367
    1STR   C17013643  38.347  15.173   0.350
    1STR   H17113644  38.345  15.222   0.252
    1STR   C17213645  38.353  15.278   0.462
    1STR   H17313646  38.350  15.232   0.560
    1STR   H17413647  38.271  15.350   0.456
    1STR   H17513648  38.446  15.336   0.455
    1STR   C17613649  38.468  15.079   0.354
    1STR   H17713650  38.474  15.030   0.451
    1STR   H17813651  38.456  15.001   0.279
    1STR   O17913652  38.587  15.155   0.328
    1STR   C18013653  38.708  15.080   0.333
    1STR   H18113654  38.707  15.012   0.418
    1STR   C18213655  38.726  15.001   0.203
    1STR   H18313656  38.722  15.066   0.116
    1STR   H18413657  38.649  14.924   0.190
    1STR   H18513658  38.822  14.950   0.201
    1STR   C18613659  38.823  15.181   0.353
    1STR   H18713660  38.827  15.249   0.268
    1STR   H18813661  38.802  15.241   0.442
    1STR   O18913662  38.945  15.110   0.368
    1STR   C19013663  39.061  15.192   0.383
    1STR   H19113664  39.057  15.276   0.313
    1STR   C19213665  39.069  15.244   0.528
    1STR   H19313666  39.068  15.162   0.599
    1STR   H19413667  38.986  15.311   0.552
    1STR   H19513668  39.161  15.300   0.543
    1STR   C19613669  39.183  15.106   0.348
    1STR   H19713670  39.191  15.022   0.417
    1STR   H19813671  39.170  15.065   0.248
    1STR   O19913672  39.301  15.187   0.353
    1STR   C20013673  39.422  15.118   0.326
    1STR   H20113674  39.423  15.021   0.377
    1STR   C20213675  39.438  15.097   0.174
    1STR   H20313676  39.433  15.192   0.121
    1STR   H20413677  39.362  15.031   0.133
    1STR   H20513678  39.535  15.052   0.152
    1STR   C20613679  39.537  15.203   0.383
    1STR   H20713680  39.540  15.300   0.333
    1STR   H20813681  39.517  15.222   0.489
    1STR   O20913682  39.660  15.134   0.367
    1STR   C21013683  39.776  15.204   0.413
    1STR   H21113684  39.771  15.308   0.382
    1STR   C21213685  39.786  15.194   0.566
    1STR   H21313686  39.786  15.090   0.598
    1STR   H21413687  39.703  15.244   0.616
    1STR   H21513688  39.878  15.240   0.601
    1STR   C21613689  39.898  15.140   0.344
    1STR   H21713690  39.907  15.036   0.374
    1STR   H21813691  39.883  15.142   0.236
    1STR   O21913692  40.015  15.213   0.379
    1STR   C22013693  40.137  15.162   0.325
    1STR   H22113694  40.139  15.053   0.334
    1STR   C22213695  40.150  15.204   0.178
    1STR   H22313696  40.143  15.312   0.167
    1STR   H22413697  40.073  15.159   0.115
    1STR   H22513698  40.246  15.173   0.138
    1STR   C22613699  40.252  15.218   0.410
    1STR   H22713700  40.254  15.327   0.403
    1STR   H22813701  40.234  15.193   0.515
    1STR   O22913702  40.375  15.163   0.366
    1STR   C23013703  40.491  15.210   0.434
    1STR   H23113704  40.485  15.318   0.448
    1STR   C23213705  40.503  15.140   0.570
    1STR   H23313706  40.504  15.031   0.559
    1STR   H23413707  40.422  15.166   0.638
    1STR   H23513708  40.596  15.168   0.620
    1STR   C23613709  40.613  15.180   0.345
    1STR   H23713710  40.622  15.073   0.330
    1STR   H23813711  40.596  15.225   0.247
    1STR   O23913712  40.730  15.234   0.405
    1STR   C24013713  40.851  15.210   0.333
    1STR   H24113714  40.854  15.107   0.297
    1STR   C24213715  40.862  15.308   0.215
    1STR   H24313716  40.854  15.411   0.248
    1STR   H24413717  40.784  15.291   0.140
    1STR   H24513718  40.958  15.296   0.164
    1STR   C24613719  40.968  15.229   0.432
    1STR   H24713720  40.969  15.331   0.469
    1STR   H24813721  40.952  15.164   0.518
    1STR   O24913722  41.091  15.197   0.367
    1STR   C25013723  41.208  15.214   0.447
    1STR   H25113724  41.202  15.307   0.503
    1STR   C25213725  41.222  15.095   0.544
    1STR   H25313726  41.223  15.000   0.490
    1STR   H25413727  41.142  15.091   0.617
    1STR   H25513728  41.315  15.102   0.599
    1STR   C25613729  41.328  15.223   0.352
    1STR   H25713730  41.338  15.131   0.295
    1STR   H25813731  41.310  15.303   0.280
    1STR   O25913732  41.447  15.249   0.426
    1STR   C26013733  41.567  15.258   0.350
    1STR   H26113734  41.570  15.178   0.275
    1STR   C26213735  41.574  15.395   0.280
    1STR   H26313736  41.566  15.476   0.352
    1STR   H26413737  41.496  15.408   0.206
    1STR   H26513738  41.669  15.406   0.228
    1STR   C26613739  41.685  15.237   0.446
    1STR   H26713740  41.686  15.316   0.521
    1STR   H26813741  41.672  15.143   0.499
    1STR   O26913742  41.808  15.236   0.373
    1STR   C27013743  41.926  15.220   0.451
    1STR   H27113744  41.921  15.283   0.540
    1STR   C27213745  41.942  15.073   0.492
    1STR   H27313746  41.942  15.007   0.405
    1STR   H27413747  41.862  15.040   0.559
    1STR   H27513748  42.036  15.057   0.545
    1STR   C27613749  42.046  15.268   0.366
    1STR   H27713750  42.055  15.206   0.277
    1STR   H27813751  42.027  15.370   0.333
    1STR   O27913752  42.166  15.262   0.443
    1STR   C28013753  42.285  15.302   0.375
    1STR   H28113754  42.287  15.259   0.275
    1STR   C28213755  42.290  15.455   0.366
    1STR   H28313756  42.282  15.501   0.465
    1STR   H28413757  42.211  15.496   0.304
    1STR   H28513758  42.385  15.488   0.322
    1STR   C28613759  42.406  15.247   0.453
    1STR   H28713760  42.408  15.288   0.554
    1STR   H28813761  42.395  15.139   0.464
    1STR   O28913762  42.528  15.277   0.385
    1STR   C29013763  42.648  15.232   0.448
    1STR   H29113764  42.645  15.254   0.554
    1STR   C29213765  42.664  15.080   0.426
    1STR   H29313766  42.661  15.055   0.320
    1STR   H29413767  42.586  15.023   0.476
    1STR   H29513768  42.760  15.046   0.465
    1STR   C29613769  42.767  15.310   0.387
    1STR   H29713770  42.772  15.290   0.279
    1STR   H29813771  42.748  15.416   0.399
    1STR   O29913772  42.890  15.273   0.450
    1STR   C30013773  43.007  15.339   0.399
    1STR   H30113774  43.004  15.341   0.290
    1STR   C30213775  43.014  15.482   0.455
    1STR   H30313776  43.009  15.482   0.564
    1STR   H30413777  42.933  15.544   0.417
    1STR   H30513778  43.107  15.530   0.426
    1STR   C30613779  43.132  15.257   0.440
    1STR   H30713780  43.143  15.258   0.549
    1STR   H30813781  43.115  15.153   0.411
    1STR   O30913782  43.250  15.308   0.376
    1STR    H1R13783  43.380  15.231   0.517
    1STR    H1S13784  43.475  15.055   0.358
    1STR    H1T13785  43.364  15.111   0.234
    1STR    H1U13786  43.302  15.035   0.381
    1STR    H1V13787  43.476  15.431   0.392
    1STR    H1W13788  43.500  15.329   0.253
    1STR    H1X13789  43.786  15.224   0.534
    1STR    H1Y13790  43.922  15.061   0.627
    1STR    H1Z13791  44.117  14.915   0.609
    1STR    H2013792  44.294  14.836   0.295
    1STR    H2113793  44.360  14.886   0.453
    1STR    H2213794  44.229  14.769   0.442
    1STR    H2313795  44.161  15.079   0.097
    1STR    H2713796  43.989  15.201   0.225
    1STR    H2813797  31.445  14.869   0.444
    1STR    H2913798  31.220  14.877   0.524
    1STR    H2A13799  30.945  15.030   0.359
    1STR    H2B13800  30.997  14.944   0.503
    1STR    H2C13801  30.929  14.854   0.367
    1STR   BCK113802  30.949  14.954  15.023
    1STR    O0313803  30.897  15.039  14.951
    1STR    N0413804  31.077  14.913  15.013
    1STR    C0513805  31.167  14.929  14.906
    1STR    C0613806  31.304  14.961  14.928
    1STR    C0713807  31.400  14.965  14.822
    1STR    N0813808  31.537  14.992  14.847
    1STR    C0913809  31.645  14.969  14.768
    1STR    O0A13810  31.639  14.916  14.657
    1STR    O0B13811  31.762  15.010  14.824
    1STR    C0C13812  31.885  15.004  14.747
    1STR    C0D13813  31.897  15.131  14.660
    1STR    C0E13814  32.011  14.986  14.836
    1STR    O0F13815  32.130  14.978  14.755
    1STR    C0G13816  32.253  14.955  14.825
    1STR    C0H13817  32.263  14.807  14.863
    1STR    C0I13818  32.373  14.996  14.736
    1STR    O0J13819  32.496  14.979  14.807
    1STR    C0K13820  43.376  14.618  14.880
    1STR    C0M13821  43.377  14.765  14.834
    1STR    C0N13822  43.495  14.592  14.976
    1STR    O0O13823  43.620  14.599  14.905
    1STR    C0P13824  43.728  14.662  14.956
    1STR    O0Q13825  43.734  14.722  15.063
    1STR    N0R13826  43.827  14.652  14.868
    1STR    C0S13827  43.954  14.710  14.857
    1STR    C0T13828  44.004  14.717  14.726
    1STR    C0U13829  44.124  14.783  14.699
    1STR    C0V13830  44.202  14.839  14.802
    1STR    C0W13831  44.317  14.925  14.754
    1STR    C0X13832  44.165  14.819  14.939
    1STR    N0Y13833  44.246  14.852  15.051
    1STR   BCK213834  44.378  14.874  15.070
    1STR    O1013835  44.463  14.884  14.982
    1STR    C1313836  44.036  14.760  14.963
    1STR    C1413837  31.352  14.941  14.691
    1STR    C1513838  31.218  14.907  14.668
    1STR    C1613839  31.126  14.897  14.773
    1STR    C1713840  30.988  14.844  14.740
    1STR    H1B13841  31.109  14.859  15.092
    1STR    H1C13842  31.337  14.982  15.029
    1STR    H1D13843  31.563  15.032  14.935
    1STR    H1E13844  31.882  14.917  14.681
    1STR    H1F13845  31.903  15.221  14.721
    1STR    H1G13846  31.986  15.127  14.598
    1STR    H1H13847  31.811  15.140  14.593
    1STR    H1I13848  31.999  14.895  14.895
    1STR    H1J13849  32.019  15.069  14.906
    1STR    H1K13850  32.257  15.017  14.915
    1STR    H1M13851  32.256  14.743  14.775
    1STR    H1N13852  32.185  14.776  14.933
    1STR    H1O13853  32.359  14.786  14.911
    1STR    H1P13854  32.374  14.935  14.645
    1STR    H1Q13855  32.361  15.099  14.704
    1STR   C01013856  32.617  15.007  14.735
    1STR   H01113857  32.613  14.962  14.636
    1STR   C01213858  32.636  15.159  14.721
    1STR   H01313859  32.636  15.208  14.819
    1STR   H01413860  32.558  15.205  14.661
    1STR   H01513861  32.731  15.182  14.674
    1STR   C01613862  32.736  14.944  14.811
    1STR   H01713863  32.742  14.987  14.912
    1STR   H01813864  32.717  14.837  14.823
    1STR   O01913865  32.859  14.965  14.741
    1STR   C02013866  32.977  14.914  14.805
    1STR   H02113867  32.974  14.938  14.911
    1STR   C02213868  32.985  14.762  14.786
    1STR   H02313869  32.982  14.735  14.680
    1STR   H02413870  32.903  14.710  14.836
    1STR   H02513871  33.077  14.723  14.828
    1STR   C02613872  33.101  14.984  14.744
    1STR   H02713873  33.107  14.962  14.637
    1STR   H02813874  33.089  15.092  14.754
    1STR   O02913875  33.219  14.940  14.811
    1STR   C03013876  33.342  14.994  14.760
    1STR   H03113877  33.342  14.992  14.651
    1STR   C03213878  33.360  15.138  14.811
    1STR   H03313879  33.357  15.142  14.920
    1STR   H03413880  33.284  15.205  14.772
    1STR   H03513881  33.457  15.178  14.780
    1STR   C03613882  33.458  14.904  14.808
    1STR   H03713883  33.462  14.903  14.917
    1STR   H03813884  33.438  14.801  14.777
    1STR   O03913885  33.582  14.950  14.754
    1STR   C04013886  33.698  14.877  14.794
    1STR   H04113887  33.694  14.856  14.901
    1STR   C04213888  33.706  14.745  14.715
    1STR   H04313889  33.706  14.763  14.608
    1STR   H04413890  33.624  14.677  14.739
    1STR   H04513891  33.799  14.692  14.739
    1STR   C04613892  33.821  14.965  14.767
    1STR   H04713893  33.829  14.987  14.661
    1STR   H04813894  33.808  15.061  14.819
    1STR   O04913895  33.939  14.900  14.814
    1STR   C05013896  34.061  14.970  14.791
    1STR   H05113897  34.062  15.012  14.690
    1STR   C05213898  34.077  15.082  14.895
    1STR   H05313899  34.071  15.042  14.997
    1STR   H05413900  34.001  15.159  14.885
    1STR   H05513901  34.174  15.131  14.884
    1STR   C05613902  34.176  14.868  14.801
    1STR   H05713903  34.179  14.825  14.901
    1STR   H05813904  34.157  14.786  14.731
    1STR   O05913905  34.300  14.932  14.770
    1STR   C06013906  34.415  14.849  14.780
    1STR   H06113907  34.410  14.788  14.870
    1STR   C06213908  34.426  14.760  14.655
    1STR   H06313909  34.427  14.820  14.564
    1STR   H06413910  34.344  14.689  14.648
    1STR   H06513911  34.519  14.702  14.657
    1STR   C06613912  34.538  14.942  14.793
    1STR   H06713913  34.547  15.004  14.704
    1STR   H06813914  34.523  15.009  14.878
    1STR   O06913915  34.655  14.863  14.812
    1STR   C07013916  34.777  14.937  14.821
    1STR   H07113917  34.779  15.016  14.746
    1STR   C07213918  34.790  14.998  14.962
    1STR   H07313919  34.783  14.921  15.039
    1STR   H07413920  34.714  15.073  14.982
    1STR   H07513921  34.887  15.047  14.973
    1STR   C07613922  34.892  14.840  14.792
    1STR   H07713923  34.894  14.760  14.866
    1STR   H07813924  34.875  14.793  14.695
    1STR   O07913925  35.016  14.911  14.791
    1STR   C08013926  35.132  14.831  14.768
    1STR   H08113927  35.126  14.739  14.826
    1STR   C08213928  35.145  14.799  14.619
    1STR   H08313929  35.146  14.891  14.559
    1STR   H08413930  35.064  14.737  14.582
    1STR   H08513931  35.238  14.746  14.599
    1STR   C08613932  35.253  14.911  14.819
    1STR   H08713933  35.263  15.004  14.763
    1STR   H08813934  35.236  14.939  14.924
    1STR   O08913935  35.371  14.831  14.807
    1STR   C09013936  35.491  14.896  14.848
    1STR   H09113937  35.494  14.998  14.810
    1STR   C09213938  35.502  14.895  15.001
    1STR   H09313939  35.495  14.794  15.041
    1STR   H09413940  35.425  14.956  15.048
    1STR   H09513941  35.598  14.936  15.033
    1STR   C09613942  35.608  14.818  14.783
    1STR   H09713943  35.609  14.716  14.820
    1STR   H09813944  35.592  14.814  14.676
    1STR   O09913945  35.731  14.884  14.813
    1STR   C10013946  35.847  14.821  14.762
    1STR   H10113947  35.842  14.713  14.778
    1STR   C10213948  35.863  14.851  14.612
    1STR   H10313949  35.864  14.959  14.594
    1STR   H10413950  35.782  14.808  14.553
    1STR   H10513951  35.956  14.810  14.574
    1STR   C10613952  35.967  14.874  14.843
    1STR   H10713953  35.977  14.981  14.828
    1STR   H10813954  35.949  14.857  14.949
    1STR   O10913955  36.086  14.806  14.802
    1STR   C11013956  36.205  14.848  14.867
    1STR   H11113957  36.208  14.957  14.873
    1STR   C11213958  36.214  14.787  15.007
    1STR   H11313959  36.206  14.678  15.003
    1STR   H11413960  36.135  14.823  15.073
    1STR   H11513961  36.309  14.811  15.055
    1STR   C11613962  36.323  14.804  14.779
    1STR   H11713963  36.325  14.695  14.771
    1STR   H11813964  36.309  14.843  14.678
    1STR   O11913965  36.445  14.852  14.835
    1STR   C12013966  36.563  14.814  14.764
    1STR   H12113967  36.558  14.709  14.736
    1STR   C12213968  36.580  14.902  14.640
    1STR   H12313969  36.581  15.008  14.666
    1STR   H12413970  36.501  14.887  14.567
    1STR   H12513971  36.675  14.880  14.590
    1STR   C12613972  36.681  14.831  14.861
    1STR   H12713973  36.691  14.935  14.891
    1STR   H12813974  36.661  14.773  14.952
    1STR   O12913975  36.801  14.785  14.799
    1STR   C13013976  36.919  14.799  14.877
    1STR   H13113977  36.920  14.896  14.927
    1STR   C13213978  36.926  14.686  14.981
    1STR   H13313979  36.919  14.588  14.934
    1STR   H13413980  36.846  14.693  15.055
    1STR   H13513981  37.020  14.690  15.036
    1STR   C13613982  37.038  14.793  14.781
    1STR   H13713983  37.041  14.696  14.730
    1STR   H13813984  37.025  14.869  14.704
    1STR   O13913985  37.159  14.815  14.853
    1STR   C14013986  37.278  14.809  14.776
    1STR   H14113987  37.274  14.724  14.707
    1STR   C14213988  37.297  14.939  14.697
    1STR   H14313989  37.296  15.026  14.763
    1STR   H14413990  37.219  14.954  14.622
    1STR   H14513991  37.392  14.939  14.644
    1STR   C14613992  37.395  14.785  14.873
    1STR   H14713993  37.403  14.869  14.942
    1STR   H14813994  37.374  14.696  14.933
    1STR   O14913995  37.516  14.768  14.800
    1STR   C15013996  37.633  14.750  14.879
    1STR   H15113997  37.633  14.819  14.963
    1STR   C15213998  37.639  14.605  14.929
    1STR   H15313999  37.634  14.534  14.847
    1STR   H15414000  37.558  14.582  14.998
    1STR   H15514001  37.732  14.587  14.983
    1STR   C15614002  37.754  14.783  14.790
    1STR   H15714003  37.758  14.714  14.705
    1STR   H15814004  37.741  14.883  14.749
    1STR   O15914005  37.873  14.775  14.867
    1STR   C16014006  37.993  14.800  14.796
    1STR   H16114007  37.991  14.749  14.699
    1STR   C16214008  38.012  14.951  14.776
    1STR   H16314009  38.010  15.004  14.871
    1STR   H16414010  37.935  14.994  14.712
    1STR   H16514011  38.108  14.972  14.728
    1STR   C16614012  38.109  14.740  14.877
    1STR   H16714013  38.115  14.789  14.975
    1STR   H16814014  38.087  14.635  14.896
    1STR   O16914015  38.231  14.754  14.805
    1STR   C17014016  38.347  14.705  14.872
    1STR   H17114017  38.345  14.735  14.977
    1STR   C17214018  38.353  14.552  14.861
    1STR   H17314019  38.350  14.520  14.757
    1STR   H17414020  38.271  14.504  14.913
    1STR   H17514021  38.446  14.514  14.904
    1STR   C17614022  38.468  14.772  14.806
    1STR   H17714023  38.474  14.743  14.701
    1STR   H17814024  38.456  14.880  14.809
    1STR   O17914025  38.587  14.734  14.876
    1STR   C18014026  38.708  14.785  14.822
    1STR   H18114027  38.707  14.778  14.713
    1STR   C18214028  38.726  14.932  14.864
    1STR   H18314029  38.722  14.943  14.972
    1STR   H18414030  38.649  14.997  14.821
    1STR   H18514031  38.822  14.971  14.831
    1STR   C18614032  38.823  14.698  14.875
    1STR   H18714033  38.827  14.704  14.983
    1STR   H18814034  38.802  14.594  14.850
    1STR   O18914035  38.945  14.740  14.816
    1STR   C19014036  39.061  14.669  14.860
    1STR   H19114037  39.057  14.654  14.968
    1STR   C19214038  39.069  14.533  14.789
    1STR   H19314039  39.068  14.545  14.680
    1STR   H19414040  38.986  14.467  14.816
    1STR   H19514041  39.161  14.481  14.815
    1STR   C19614042  39.183  14.756  14.828
    1STR   H19714043  39.191  14.771  14.720
    1STR   H19814044  39.170  14.854  14.874
    1STR   O19914045  39.301  14.693  14.879
    1STR   C20014046  39.422  14.762  14.852
    1STR   H20114047  39.423  14.799  14.749
    1STR   C20214048  39.438  14.880  14.950
    1STR   H20314049  39.433  14.846  15.054
    1STR   H20414050  39.362  14.956  14.936
    1STR   H20514051  39.535  14.929  14.937
    1STR   C20614052  39.537  14.661  14.867
    1STR   H20714053  39.540  14.623  14.970
    1STR   H20814054  39.517  14.576  14.802
    1STR   O20914055  39.660  14.723  14.833
    1STR   C21014056  39.776  14.641  14.846
    1STR   H21114057  39.771  14.584  14.940
    1STR   C21214058  39.786  14.544  14.727
    1STR   H21314059  39.786  14.599  14.632
    1STR   H21414060  39.703  14.473  14.724
    1STR   H21514061  39.878  14.487  14.732
    1STR   C21614062  39.898  14.734  14.854
    1STR   H21714063  39.907  14.791  14.761
    1STR   H21814064  39.883  14.805  14.935
    1STR   O21914065  40.015  14.656  14.877
    1STR   C22014066  40.137  14.730  14.883
    1STR   H22114067  40.139  14.805  14.803
    1STR   C22214068  40.150  14.799  15.020
    1STR   H22314069  40.143  14.726  15.101
    1STR   H22414070  40.073  14.874  15.036
    1STR   H22514071  40.246  14.849  15.028
    1STR   C22614072  40.252  14.632  14.858
    1STR   H22714073  40.254  14.556  14.937
    1STR   H22814074  40.234  14.579  14.764
    1STR   O22914075  40.375  14.703  14.853
    1STR   C23014076  40.491  14.622  14.834
    1STR   H23114077  40.485  14.532  14.897
    1STR   C23214078  40.503  14.581  14.687
    1STR   H23314079  40.505  14.669  14.622
    1STR   H23414080  40.422  14.517  14.655
    1STR   H23514081  40.596  14.527  14.669
    1STR   C23614082  40.613  14.704  14.880
    1STR   H23714083  40.623  14.793  14.819
    1STR   H23814084  40.596  14.737  14.983
    1STR   O23914085  40.730  14.624  14.873
    1STR   C24014086  40.851  14.690  14.909
    1STR   H24114087  40.854  14.790  14.866
    1STR   C24214088  40.862  14.698  15.062
    1STR   H24314089  40.854  14.599  15.108
    1STR   H24414090  40.784  14.761  15.106
    1STR   H24514091  40.958  14.740  15.092
    1STR   C24614092  40.968  14.609  14.849
    1STR   H24714093  40.969  14.509  14.891
    1STR   H24814094  40.952  14.599  14.742
    1STR   O24914095  41.091  14.676  14.876
    1STR   C25014096  41.208  14.610  14.828
    1STR   H25114097  41.202  14.503  14.850
    1STR   C25214098  41.222  14.632  14.676
    1STR   H25314099  41.223  14.738  14.652
    1STR   H25414100  41.142  14.585  14.620
    1STR   H25514101  41.316  14.589  14.640
    1STR   C25614102  41.328  14.667  14.904
    1STR   H25714103  41.338  14.774  14.884
    1STR   H25814104  41.310  14.657  15.011
    1STR   O25914105  41.447  14.598  14.867
    1STR   C26014106  41.567  14.643  14.929
    1STR   H26114107  41.570  14.752  14.930
    1STR   C26214108  41.575  14.590  15.073
    1STR   H26314109  41.567  14.481  15.075
    1STR   H26414110  41.496  14.630  15.137
    1STR   H26514111  41.670  14.616  15.119
    1STR   C26614112  41.686  14.593  14.845
    1STR   H26714113  41.687  14.484  14.843
    1STR   H26814114  41.672  14.627  14.742
    1STR   O26914115  41.809  14.644  14.898
    1STR   C27014116  41.927  14.603  14.829
    1STR   H27114117  41.921  14.496  14.806
    1STR   C27214118  41.942  14.684  14.700
    1STR   H27314119  41.942  14.791  14.720
    1STR   H27414120  41.863  14.663  14.628
    1STR   H27514121  42.037  14.660  14.650
    1STR   C27614122  42.047  14.625  14.924
    1STR   H27714123  42.056  14.731  14.948
    1STR   H27814124  42.028  14.572  15.017
    1STR   O27914125  42.167  14.577  14.863
    1STR   C28014126  42.286  14.593  14.940
    1STR   H28114127  42.288  14.693  14.985
    1STR   C28214128  42.291  14.487  15.051
    1STR   H28314129  42.283  14.386  15.009
    1STR   H28414130  42.211  14.499  15.124
    1STR   H28514131  42.385  14.492  15.105
    1STR   C28614132  42.407  14.581  14.846
    1STR   H28714133  42.409  14.482  14.799
    1STR   H28814134  42.396  14.654  14.765
    1STR   O28914135  42.529  14.605  14.917
    1STR   C29014136  42.649  14.596  14.839
    1STR   H29114137  42.646  14.507  14.775
    1STR   C29214138  42.665  14.722  14.753
    1STR   H29314139  42.662  14.812  14.814
    1STR   H29414140  42.587  14.731  14.678
    1STR   H29514141  42.760  14.721  14.700
    1STR   C29614142  42.769  14.580  14.936
    1STR   H29714143  42.774  14.666  15.002
    1STR   H29814144  42.750  14.493  15.000
    1STR   O29914145  42.892  14.564  14.865
    1STR   C30014146  43.009  14.549  14.947
    1STR   H30114147  43.005  14.621  15.029
    1STR   C30214148  43.015  14.406  15.003
    1STR   H30314149  43.010  14.333  14.923
    1STR   H30414150  42.934  14.386  15.073
    1STR   H30514151  43.108  14.390  15.057
    1STR   C30614152  43.135  14.582  14.863
    1STR   H30714153  43.147  14.507  14.784
    1STR   H30814154  43.118  14.677  14.814
    1STR   O30914155  43.252  14.588  14.946
    1STR    H1R14156  43.387  14.553  14.793
    1STR    H1S14157  43.473  14.792  14.791
    1STR    H1T14158  43.359  14.832  14.918
    1STR    H1U14159  43.301  14.786  14.758
    1STR    H1V14160  43.487  14.491  15.017
    1STR    H1W14161  43.492  14.660  15.060
    1STR    H1X14162  43.797  14.597  14.790
    1STR    H1Y14163  43.947  14.677  14.643
    1STR    H1Z14164  44.156  14.792  14.596
    1STR    H2014165  44.329  15.012  14.819
    1STR    H2114166  44.409  14.867  14.749
    1STR    H2214167  44.298  14.964  14.654
    1STR    H2314168  44.197  14.848  15.139
    1STR    H2714169  44.000  14.749  15.064
    1STR    H2814170  31.416  14.947  14.605
    1STR    H2914171  31.188  14.885  14.567
    1STR    H2A14172  30.949  14.781  14.820
    1STR    H2B14173  30.989  14.784  14.650
    1STR    H2C14174  30.919  14.928  14.724
    1STR   BCK114175  30.943  15.032  30.205
    1STR    O0314176  30.896  15.091  30.302
    1STR    N0414177  31.066  15.055  30.154
    1STR    C0514178  31.160  15.156  30.186
    1STR    C0614179  31.300  15.124  30.192
    1STR    C0714180  31.400  15.223  30.220
    1STR    N0814181  31.538  15.191  30.220
    1STR    C0914182  31.644  15.262  30.265
    1STR    O0A14183  31.635  15.369  30.325
    1STR    O0B14184  31.764  15.203  30.238
    1STR    C0C14185  31.887  15.263  30.284
    1STR    C0D14186  31.907  15.229  30.433
    1STR    C0E14187  32.010  15.220  30.200
    1STR    O0F14188  32.130  15.280  30.251
    1STR    C0G14189  32.253  15.249  30.183
    1STR    C0H14190  32.262  15.331  30.054
    1STR    C0I14191  32.374  15.280  30.275
    1STR    O0J14192  32.497  15.242  30.211
    1STR    C0K14193  43.377  15.451  29.934
    1STR    C0M14194  43.368  15.374  30.067
    1STR    C0N14195  43.502  15.404  29.855
    1STR    O0O14196  43.621  15.447  29.922
    1STR    C0P14197  43.722  15.363  29.955
    1STR    O0Q14198  43.724  15.242  29.937
    1STR    N0R14199  43.819  15.436  30.011
    1STR    C0S14200  43.946  15.409  30.064
    1STR    C0T14201  44.015  15.521  30.113
    1STR    C0U14202  44.143  15.508  30.169
    1STR    C0V14203  44.208  15.383  30.176
    1STR    C0W14204  44.347  15.384  30.235
    1STR    C0X14205  44.143  15.266  30.126
    1STR    N0Y14206  44.202  15.138  30.112
    1STR   BCK214207  44.306  15.060  30.149
    1STR    O1014208  44.320  14.956  30.087
    1STR    C1314209  44.011  15.282  30.071
    1STR    C1414210  31.355  15.355  30.243
    1STR    C1514211  31.219  15.388  30.235
    1STR    C1614212  31.122  15.292  30.203
    1STR    C1714213  30.980  15.342  30.182
    1STR    H1B14214  31.092  14.990  30.083
    1STR    H1C14215  31.330  15.022  30.176
    1STR    H1D14216  31.566  15.102  30.181
    1STR    H1E14217  31.878  15.372  30.274
    1STR    H1F14218  31.916  15.122  30.449
    1STR    H1G14219  31.997  15.277  30.471
    1STR    H1H14220  31.824  15.266  30.493
    1STR    H1I14221  31.994  15.248  30.096
    1STR    H1J14222  32.020  15.111  30.202
    1STR    H1K14223  32.255  15.142  30.160
    1STR    H1M14224  32.256  15.438  30.075
    1STR    H1N14225  32.183  15.307  29.983
    1STR    H1O14226  32.357  15.313  30.003
    1STR    H1P14227  32.375  15.386  30.300
    1STR    H1Q14228  32.362  15.225  30.368
    1STR   C01014229  32.617  15.270  30.282
    1STR   H01114230  32.614  15.371  30.324
    1STR   C01214231  32.636  15.167  30.395
    1STR   H01314232  32.636  15.065  30.356
    1STR   H01414233  32.558  15.174  30.471
    1STR   H01514234  32.732  15.183  30.446
    1STR   C01614235  32.736  15.265  30.183
    1STR   H01714236  32.743  15.166  30.138
    1STR   H01814237  32.718  15.335  30.102
    1STR   O01914238  32.859  15.297  30.249
    1STR   C02014239  32.977  15.291  30.168
    1STR   H02114240  32.975  15.202  30.106
    1STR   C02214241  32.985  15.417  30.079
    1STR   H02314242  32.983  15.508  30.139
    1STR   H02414243  32.904  15.422  30.007
    1STR   H02514244  33.078  15.417  30.022
    1STR   C02614245  33.101  15.281  30.260
    1STR   H02714246  33.107  15.370  30.324
    1STR   H02814247  33.089  15.195  30.326
    1STR   O02914248  33.220  15.269  30.182
    1STR   C03014249  33.342  15.263  30.255
    1STR   H03114250  33.342  15.338  30.334
    1STR   C03214251  33.361  15.123  30.315
    1STR   H03314252  33.357  15.046  30.238
    1STR   H03414253  33.285  15.099  30.390
    1STR   H03514254  33.457  15.114  30.365
    1STR   C03614255  33.458  15.297  30.159
    1STR   H03714256  33.462  15.224  30.078
    1STR   H03814257  33.438  15.394  30.113
    1STR   O03914258  33.582  15.300  30.230
    1STR   C04014259  33.698  15.327  30.151
    1STR   H04114260  33.694  15.269  30.059
    1STR   C04214261  33.707  15.477  30.120
    1STR   H04314262  33.706  15.536  30.211
    1STR   H04414263  33.624  15.510  30.057
    1STR   H04514264  33.799  15.499  30.066
    1STR   C04614265  33.821  15.279  30.231
    1STR   H04714266  33.829  15.336  30.324
    1STR   H04814267  33.808  15.175  30.258
    1STR   O04914268  33.939  15.296  30.152
    1STR   C05014269  34.061  15.260  30.216
    1STR   H05114270  34.062  15.297  30.319
    1STR   C05214271  34.077  15.107  30.215
    1STR   H05314272  34.072  15.067  30.114
    1STR   H05414273  34.001  15.057  30.275
    1STR   H05514274  34.174  15.078  30.257
    1STR   C05614275  34.176  15.328  30.140
    1STR   H05714276  34.179  15.292  30.037
    1STR   H05814277  34.157  15.435  30.136
    1STR   O05914278  34.300  15.302  30.206
    1STR   C06014279  34.416  15.356  30.143
    1STR   H06114280  34.410  15.341  30.035
    1STR   C06214281  34.426  15.506  30.175
    1STR   H06314282  34.427  15.524  30.282
    1STR   H06414283  34.344  15.563  30.132
    1STR   H06514284  34.519  15.548  30.134
    1STR   C06614285  34.538  15.279  30.196
    1STR   H06714286  34.547  15.293  30.303
    1STR   H06814287  34.523  15.173  30.178
    1STR   O06914288  34.655  15.324  30.129
    1STR   C07014289  34.777  15.264  30.171
    1STR   H07114290  34.779  15.257  30.280
    1STR   C07214291  34.790  15.124  30.109
    1STR   H07314292  34.784  15.128  30.001
    1STR   H07414293  34.714  15.055  30.145
    1STR   H07514294  34.887  15.080  30.134
    1STR   C07614295  34.892  15.356  30.128
    1STR   H07714296  34.894  15.364  30.019
    1STR   H07814297  34.875  15.456  30.167
    1STR   O07914298  35.016  15.304  30.177
    1STR   C08014299  35.132  15.377  30.139
    1STR   H08114300  35.126  15.407  30.034
    1STR   C08214301  35.145  15.502  30.228
    1STR   H08314302  35.146  15.476  30.334
    1STR   H08414303  35.064  15.573  30.212
    1STR   H08514304  35.238  15.555  30.206
    1STR   C08614305  35.253  15.284  30.156
    1STR   H08714306  35.263  15.254  30.260
    1STR   H08814307  35.236  15.193  30.098
    1STR   O08914308  35.371  15.351  30.111
    1STR   C09014309  35.491  15.276  30.124
    1STR   H09114310  35.494  15.226  30.221
    1STR   C09214311  35.502  15.173  30.011
    1STR   H09314312  35.495  15.221  29.913
    1STR   H09414313  35.424  15.097  30.017
    1STR   H09514314  35.598  15.121  30.015
    1STR   C09614315  35.608  15.377  30.120
    1STR   H09714316  35.609  15.428  30.023
    1STR   H09814317  35.592  15.453  30.196
    1STR   O09914318  35.731  15.308  30.142
    1STR   C10014319  35.848  15.389  30.137
    1STR   H10114320  35.842  15.458  30.052
    1STR   C10214321  35.863  15.468  30.268
    1STR   H10314322  35.864  15.401  30.354
    1STR   H10414323  35.783  15.540  30.282
    1STR   H10514324  35.956  15.524  30.268
    1STR   C10614325  35.967  15.296  30.113
    1STR   H10714326  35.977  15.226  30.196
    1STR   H10814327  35.948  15.236  30.024
    1STR   O10914328  36.086  15.374  30.097
    1STR   C11014329  36.205  15.298  30.078
    1STR   H11114330  36.208  15.214  30.147
    1STR   C11214331  36.214  15.249  29.933
    1STR   H11314332  36.206  15.332  29.863
    1STR   H11414333  36.135  15.178  29.909
    1STR   H11514334  36.309  15.198  29.915
    1STR   C11614335  36.323  15.391  30.113
    1STR   H11714336  36.325  15.476  30.045
    1STR   H11814337  36.309  15.430  30.213
    1STR   O11914338  36.445  15.317  30.105
    1STR   C12014339  36.563  15.392  30.131
    1STR   H12114340  36.558  15.489  30.081
    1STR   C12214341  36.580  15.412  30.282
    1STR   H12314342  36.581  15.316  30.334
    1STR   H12414343  36.501  15.473  30.325
    1STR   H12514344  36.675  15.462  30.304
    1STR   C12614345  36.681  15.315  30.070
    1STR   H12714346  36.691  15.218  30.119
    1STR   H12814347  36.661  15.296  29.965
    1STR   O12914348  36.801  15.391  30.085
    1STR   C13014349  36.919  15.328  30.037
    1STR   H13114350  36.920  15.223  30.066
    1STR   C13214351  36.926  15.340  29.884
    1STR   H13314352  36.919  15.444  29.852
    1STR   H13414353  36.846  15.285  29.834
    1STR   H13514354  37.020  15.300  29.846
    1STR   C13614355  37.038  15.397  30.104
    1STR   H13714356  37.041  15.503  30.076
    1STR   H13814357  37.025  15.393  30.212
    1STR   O13914358  37.159  15.332  30.066
    1STR   C14014359  37.278  15.389  30.119
    1STR   H14114360  37.274  15.498  30.112
    1STR   C14214361  37.297  15.346  30.265
    1STR   H14314362  37.296  15.238  30.274
    1STR   H14414363  37.219  15.386  30.330
    1STR   H14514364  37.392  15.382  30.304
    1STR   C14614365  37.395  15.341  30.031
    1STR   H14714366  37.403  15.232  30.036
    1STR   H14814367  37.374  15.366  29.927
    1STR   O14914368  37.516  15.403  30.074
    1STR   C15014369  37.633  15.363  30.003
    1STR   H15114370  37.633  15.255  29.988
    1STR   C15214371  37.639  15.436  29.867
    1STR   H15314372  37.634  15.544  29.880
    1STR   H15414373  37.558  15.406  29.801
    1STR   H15514374  37.732  15.413  29.816
    1STR   C15614375  37.753  15.399  30.091
    1STR   H15714376  37.758  15.506  30.107
    1STR   H15814377  37.741  15.352  30.189
    1STR   O15914378  37.873  15.352  30.029
    1STR   C16014379  37.993  15.382  30.098
    1STR   H16114380  37.991  15.485  30.136
    1STR   C16214381  38.012  15.284  30.215
    1STR   H16314382  38.010  15.181  30.181
    1STR   H16414383  37.935  15.296  30.291
    1STR   H16514384  38.108  15.301  30.265
    1STR   C16614385  38.109  15.371  29.997
    1STR   H16714386  38.115  15.269  29.959
    1STR   H16814387  38.087  15.436  29.912
    1STR   O16914388  38.231  15.410  30.060
    1STR   C17014389  38.347  15.400  29.978
    1STR   H17114390  38.345  15.307  29.921
    1STR   C17214391  38.353  15.521  29.883
    1STR   H17314392  38.350  15.615  29.938
    1STR   H17414393  38.271  15.521  29.811
    1STR   H17514394  38.446  15.519  29.825
    1STR   C17614395  38.468  15.396  30.072
    1STR   H17714396  38.474  15.488  30.129
    1STR   H17814397  38.456  15.314  30.143
    1STR   O17914398  38.587  15.377  29.994
    1STR   C18014399  38.708  15.375  30.069
    1STR   H18114400  38.707  15.454  30.144
    1STR   C18214401  38.726  15.238  30.137
    1STR   H18314402  38.722  15.157  30.064
    1STR   H18414403  38.649  15.219  30.212
    1STR   H18514404  38.822  15.233  30.188
    1STR   C18614405  38.823  15.404  29.971
    1STR   H18714406  38.827  15.326  29.895
    1STR   H18814407  38.802  15.498  29.919
    1STR   O18914408  38.945  15.413  30.042
    1STR   C19014409  39.061  15.435  29.962
    1STR   H19114410  39.057  15.373  29.872
    1STR   C19214411  39.069  15.584  29.923
    1STR   H19314412  39.068  15.648  30.011
    1STR   H19414413  38.986  15.614  29.858
    1STR   H19514414  39.161  15.604  29.868
    1STR   C19614415  39.183  15.393  30.045
    1STR   H19714416  39.191  15.454  30.134
    1STR   H19814417  39.170  15.290  30.077
    1STR   O19914418  39.301  15.405  29.965
    1STR   C20014419  39.422  15.371  30.031
    1STR   H20114420  39.424  15.414  30.132
    1STR   C20214421  39.438  15.219  30.038
    1STR   H20314422  39.433  15.174  29.939
    1STR   H20414423  39.362  15.172  30.100
    1STR   H20514424  39.535  15.192  30.081
    1STR   C20614425  39.537  15.436  29.951
    1STR   H20714426  39.540  15.395  29.850
    1STR   H20814427  39.518  15.543  29.942
    1STR   O20914428  39.660  15.414  30.019
    1STR   C21014429  39.776  15.465  29.953
    1STR   H21114430  39.771  15.444  29.846
    1STR   C21214431  39.786  15.617  29.977
    1STR   H21314432  39.786  15.640  30.083
    1STR   H21414433  39.703  15.671  29.930
    1STR   H21514434  39.878  15.656  29.934
    1STR   C21614435  39.898  15.392  30.010
    1STR   H21714436  39.907  15.412  30.117
    1STR   H21814437  39.883  15.284  29.999
    1STR   O21914438  40.015  15.433  29.941
    1STR   C22014439  40.137  15.375  29.987
    1STR   H22114440  40.139  15.373  30.096
    1STR   C22214441  40.150  15.232  29.932
    1STR   H22314442  40.143  15.231  29.823
    1STR   H22414443  40.073  15.165  29.971
    1STR   H22514444  40.246  15.189  29.959
    1STR   C22614445  40.252  15.464  29.938
    1STR   H22714446  40.254  15.467  29.829
    1STR   H22814447  40.234  15.566  29.973
    1STR   O22914448  40.376  15.415  29.990
    1STR   C23014449  40.492  15.487  29.949
    1STR   H23114450  40.486  15.511  29.842
    1STR   C23214451  40.504  15.617  30.031
    1STR   H23314452  40.505  15.596  30.138
    1STR   H23414453  40.422  15.686  30.011
    1STR   H23514454  40.596  15.669  30.007
    1STR   C23614455  40.613  15.396  29.970
    1STR   H23714456  40.623  15.371  30.076
    1STR   H23814457  40.597  15.302  29.917
    1STR   O23914458  40.731  15.460  29.922
    1STR   C24014459  40.852  15.387  29.940
    1STR   H24114460  40.855  15.342  30.039
    1STR   C24214461  40.862  15.277  29.832
    1STR   H24314462  40.854  15.319  29.732
    1STR   H24414463  40.785  15.201  29.843
    1STR   H24514464  40.958  15.226  29.839
    1STR   C24614465  40.969  15.486  29.929
    1STR   H24714466  40.970  15.532  29.830
    1STR   H24814467  40.953  15.566  30.002
    1STR   O24914468  41.092  15.419  29.955
    1STR   C25014469  41.209  15.500  29.946
    1STR   H25114470  41.203  15.565  29.858
    1STR   C25214471  41.223  15.586  30.073
    1STR   H25314472  41.224  15.524  30.162
    1STR   H25414473  41.142  15.659  30.082
    1STR   H25514474  41.316  15.643  30.071
    1STR   C25614475  41.330  15.407  29.928
    1STR   H25714476  41.339  15.342  30.015
    1STR   H25814477  41.312  15.342  29.842
    1STR   O25914478  41.449  15.483  29.909
    1STR   C26014479  41.569  15.407  29.894
    1STR   H26114480  41.571  15.327  29.967
    1STR   C26214481  41.576  15.350  29.751
    1STR   H26314482  41.568  15.429  29.676
    1STR   H26414483  41.497  15.277  29.732
    1STR   H26514484  41.671  15.299  29.735
    1STR   C26614485  41.688  15.501  29.922
    1STR   H26714486  41.689  15.583  29.850
    1STR   H26814487  41.674  15.546  30.021
    1STR   O26914488  41.811  15.428  29.917
    1STR   C27014489  41.929  15.505  29.940
    1STR   H27114490  41.924  15.599  29.885
    1STR   C27214491  41.944  15.533  30.090
    1STR   H27314492  41.943  15.440  30.148
    1STR   H27414493  41.864  15.596  30.129
    1STR   H27514494  42.038  15.584  30.111
    1STR   C27614495  42.049  15.425  29.886
    1STR   H27714496  42.058  15.330  29.939
    1STR   H27814497  42.030  15.401  29.781
    1STR   O27914498  42.170  15.501  29.899
    1STR   C28014499  42.289  15.437  29.852
    1STR   H28114500  42.291  15.333  29.886
    1STR   C28214501  42.293  15.441  29.698
    1STR   H28314502  42.285  15.543  29.662
    1STR   H28414503  42.214  15.382  29.653
    1STR   H28514504  42.387  15.400  29.661
    1STR   C28614505  42.411  15.509  29.913
    1STR   H28714506  42.412  15.613  29.881
    1STR   H28814507  42.399  15.510  30.022
    1STR   O28914508  42.533  15.444  29.876
    1STR   C29014509  42.653  15.502  29.927
    1STR   H29114510  42.650  15.611  29.914
    1STR   C29214511  42.669  15.468  30.076
    1STR   H29314512  42.665  15.360  30.092
    1STR   H29414513  42.591  15.513  30.137
    1STR   H29514514  42.764  15.503  30.115
    1STR   C29614515  42.773  15.448  29.845
    1STR   H29714516  42.777  15.339  29.855
    1STR   H29814517  42.755  15.470  29.740
    1STR   O29914518  42.896  15.507  29.888
    1STR   C30014519  43.014  15.461  29.819
    1STR   H30114520  43.010  15.353  29.807
    1STR   C30214521  43.023  15.529  29.682
    1STR   H30314522  43.018  15.638  29.691
    1STR   H30414523  42.942  15.498  29.616
    1STR   H30514524  43.116  15.504  29.632
    1STR   C30614525  43.138  15.494  29.906
    1STR   H30714526  43.152  15.602  29.912
    1STR   H30814527  43.117  15.459  30.008
    1STR   O30914528  43.257  15.430  29.857
    1STR    H1R14529  43.388  15.558  29.953
    1STR    H1S14530  43.462  15.382  30.122
    1STR    H1T14531  43.350  15.268  30.049
    1STR    H1U14532  43.290  15.412  30.133
    1STR    H1V14533  43.502  15.449  29.756
    1STR    H1W14534  43.500  15.296  29.840
    1STR    H1X14535  43.791  15.532  30.011
    1STR    H1Y14536  43.971  15.619  30.109
    1STR    H1Z14537  44.192  15.597  30.205
    1STR    H2014538  44.345  15.334  30.332
    1STR    H2114539  44.417  15.336  30.168
    1STR    H2214540  44.383  15.485  30.253
    1STR    H2314541  44.150  15.080  30.048
    1STR    H2714542  43.959  15.196  30.031
    1STR    H2814543  31.423  15.436  30.264
    1STR    H2914544  31.190  15.491  30.250
    1STR    H2A14545  30.928  15.284  30.106
    1STR    H2B14546  30.980  15.446  30.148
    1STR    H2C14547  30.924  15.338  30.275
    1STR   BCK114548  30.935  14.916  45.158
    1STR    O0314549  30.916  14.847  45.058
    1STR    N0414550  31.055  14.928  45.218
    1STR    C0514551  31.161  14.836  45.210
    1STR    C0614552  31.296  14.874  45.180
    1STR    C0714553  31.403  14.779  45.178
    1STR    N0814554  31.537  14.817  45.152
    1STR    C0914555  31.652  14.746  45.169
    1STR    O0A14556  31.656  14.632  45.215
    1STR    O0B14557  31.765  14.813  45.130
    1STR    C0C14558  31.891  14.743  45.127
    1STR    C0D14559  31.905  14.670  44.992
    1STR    C0E14560  32.014  14.834  45.154
    1STR    O0F14561  32.134  14.754  45.155
    1STR    C0G14562  32.257  14.821  45.185
    1STR    C0H14563  32.266  14.846  45.337
    1STR    C0I14564  32.376  14.735  45.137
    1STR    O0J14565  32.500  14.805  45.160
    1STR    C0K14566  43.368  14.833  45.533
    1STR    C0M14567  43.374  14.808  45.382
    1STR    C0N14568  43.488  14.920  45.578
    1STR    O0O14569  43.609  14.843  45.574
    1STR    C0P14570  43.719  14.886  45.509
    1STR    O0Q14571  43.729  14.991  45.446
    1STR    N0R14572  43.813  14.793  45.520
    1STR    C0S14573  43.940  14.780  45.461
    1STR    C0T14574  43.989  14.649  45.449
    1STR    C0U14575  44.110  14.624  45.382
    1STR    C0V14576  44.186  14.729  45.328
    1STR    C0W14577  44.303  14.693  45.238
    1STR    C0X14578  44.145  14.863  45.351
    1STR    N0Y14579  44.219  14.972  45.302
    1STR   BCK214580  44.348  15.006  45.313
    1STR    O1014581  44.390  15.102  45.250
    1STR    C1314582  44.020  14.887  45.413
    1STR    C1414583  31.368  14.644  45.202
    1STR    C1514584  31.238  14.606  45.237
    1STR    C1614585  31.135  14.701  45.245
    1STR    C1714586  31.000  14.654  45.297
    1STR    H1B14587  31.062  15.001  45.287
    1STR    H1C14588  31.316  14.978  45.158
    1STR    H1D14589  31.555  14.910  45.117
    1STR    H1E14590  31.893  14.668  45.207
    1STR    H1F14591  31.907  14.740  44.909
    1STR    H1G14592  31.997  14.611  44.989
    1STR    H1H14593  31.822  14.601  44.976
    1STR    H1I14594  32.001  14.884  45.250
    1STR    H1J14595  32.021  14.911  45.077
    1STR    H1K14596  32.261  14.916  45.132
    1STR    H1M14597  32.259  14.752  45.392
    1STR    H1N14598  32.188  14.912  45.373
    1STR    H1O14599  32.362  14.891  45.363
    1STR    H1P14600  32.377  14.640  45.190
    1STR    H1Q14601  32.364  14.713  45.031
    1STR   C01014602  32.620  14.735  45.126
    1STR   H01114603  32.615  14.632  45.163
    1STR   C01214604  32.639  14.734  44.973
    1STR   H01314605  32.639  14.835  44.933
    1STR   H01414606  32.561  14.677  44.922
    1STR   H01514607  32.734  14.688  44.946
    1STR   C01614608  32.739  14.805  45.195
    1STR   H01714609  32.745  14.908  45.161
    1STR   H01814610  32.720  14.808  45.303
    1STR   O01914611  32.861  14.736  45.169
    1STR   C02014612  32.979  14.795  45.225
    1STR   H02114613  32.977  14.903  45.211
    1STR   C02214614  32.987  14.763  45.375
    1STR   H02314615  32.984  14.655  45.393
    1STR   H02414616  32.905  14.807  45.432
    1STR   H02514617  33.080  14.801  45.418
    1STR   C02614618  33.102  14.740  45.151
    1STR   H02714619  33.108  14.632  45.163
    1STR   H02814620  33.091  14.759  45.044
    1STR   O02914621  33.221  14.803  45.200
    1STR   C03014622  33.344  14.757  45.141
    1STR   H03114623  33.343  14.649  45.133
    1STR   C03214624  33.362  14.820  45.002
    1STR   H03314625  33.358  14.929  45.008
    1STR   H03414626  33.286  14.787  44.932
    1STR   H03514627  33.459  14.793  44.960
    1STR   C03614628  33.459  14.797  45.236
    1STR   H03714629  33.463  14.906  45.245
    1STR   H03814630  33.439  14.757  45.335
    1STR   O03914631  33.583  14.747  45.185
    1STR   C04014632  33.699  14.780  45.261
    1STR   H04114633  33.695  14.885  45.291
    1STR   C04214634  33.707  14.691  45.386
    1STR   H04314635  33.707  14.585  45.359
    1STR   H04414636  33.625  14.708  45.455
    1STR   H04514637  33.800  14.710  45.441
    1STR   C04614638  33.822  14.761  45.171
    1STR   H04714639  33.830  14.657  45.140
    1STR   H04814640  33.808  14.821  45.080
    1STR   O04914641  33.940  14.802  45.240
    1STR   C05014642  34.062  14.786  45.168
    1STR   H05114643  34.063  14.689  45.117
    1STR   C05214644  34.077  14.899  45.066
    1STR   H05314645  34.072  14.997  45.114
    1STR   H05414646  34.001  14.896  44.988
    1STR   H05514647  34.174  14.893  45.016
    1STR   C05614648  34.177  14.787  45.270
    1STR   H05714649  34.180  14.883  45.322
    1STR   H05814650  34.158  14.710  45.346
    1STR   O05914651  34.300  14.762  45.204
    1STR   C06014652  34.416  14.764  45.287
    1STR   H06114653  34.411  14.848  45.357
    1STR   C06214654  34.427  14.632  45.365
    1STR   H06314655  34.427  14.546  45.298
    1STR   H06414656  34.345  14.619  45.435
    1STR   H06514657  34.519  14.629  45.423
    1STR   C06614658  34.538  14.785  45.196
    1STR   H06714659  34.548  14.702  45.126
    1STR   H06814660  34.523  14.875  45.137
    1STR   O06914661  34.656  14.797  45.276
    1STR   C07014662  34.777  14.813  45.204
    1STR   H07114663  34.780  14.745  45.119
    1STR   C07214664  34.790  14.959  45.155
    1STR   H07314665  34.784  15.029  45.238
    1STR   H07414666  34.714  14.985  45.083
    1STR   H07514667  34.887  14.974  45.107
    1STR   C07614668  34.893  14.775  45.298
    1STR   H07714669  34.894  14.842  45.384
    1STR   H07814670  34.875  14.674  45.336
    1STR   O07914671  35.016  14.781  45.227
    1STR   C08014672  35.132  14.751  45.304
    1STR   H08114673  35.126  14.801  45.401
    1STR   C08214674  35.145  14.599  45.323
    1STR   H08314675  35.147  14.548  45.227
    1STR   H08414676  35.064  14.558  45.382
    1STR   H08514677  35.238  14.575  45.375
    1STR   C08614678  35.253  14.809  45.229
    1STR   H08714679  35.263  14.761  45.132
    1STR   H08814680  35.236  14.915  45.211
    1STR   O08914681  35.371  14.790  45.307
    1STR   C09014682  35.492  14.836  45.247
    1STR   H09114683  35.494  14.807  45.142
    1STR   C09214684  35.502  14.989  45.261
    1STR   H09314685  35.495  15.019  45.365
    1STR   H09414686  35.424  15.041  45.205
    1STR   H09514687  35.598  15.024  45.223
    1STR   C09614688  35.608  14.765  45.318
    1STR   H09714689  35.609  14.792  45.424
    1STR   H09814690  35.592  14.657  45.313
    1STR   O09914691  35.731  14.800  45.255
    1STR   C10014692  35.848  14.744  45.314
    1STR   H10114693  35.842  14.751  45.423
    1STR   C10214694  35.863  14.598  45.271
    1STR   H10314695  35.864  14.589  45.162
    1STR   H10414696  35.782  14.535  45.309
    1STR   H10514697  35.956  14.556  45.309
    1STR   C10614698  35.967  14.829  45.269
    1STR   H10714699  35.977  14.824  45.160
    1STR   H10814700  35.948  14.933  45.294
    1STR   O10914701  36.086  14.783  45.333
    1STR   C11014702  36.205  14.851  45.296
    1STR   H11114703  36.208  14.867  45.188
    1STR   C11214704  36.214  14.985  45.369
    1STR   H11314705  36.207  14.972  45.477
    1STR   H11414706  36.135  15.054  45.339
    1STR   H11514707  36.309  15.035  45.349
    1STR   C11614708  36.323  14.759  45.333
    1STR   H11714709  36.325  14.742  45.441
    1STR   H11814710  36.309  14.662  45.285
    1STR   O11914711  36.445  14.819  45.289
    1STR   C12014712  36.563  14.746  45.321
    1STR   H12114713  36.558  14.708  45.423
    1STR   C12214714  36.580  14.629  45.222
    1STR   H12314715  36.581  14.664  45.119
    1STR   H12414716  36.501  14.555  45.232
    1STR   H12514717  36.675  14.577  45.240
    1STR   C12614718  36.681  14.844  45.313
    1STR   H12714719  36.691  14.883  45.211
    1STR   H12814720  36.661  14.929  45.378
    1STR   O12914721  36.801  14.778  45.353
    1STR   C13014722  36.919  14.857  45.346
    1STR   H13114723  36.920  14.915  45.254
    1STR   C13214724  36.926  14.951  45.468
    1STR   H13314725  36.919  14.895  45.561
    1STR   H13414726  36.846  15.025  45.467
    1STR   H13514727  37.020  15.006  45.468
    1STR   C13614728  37.038  14.760  45.344
    1STR   H13714729  37.041  14.702  45.436
    1STR   H13814730  37.025  14.690  45.261
    1STR   O13914731  37.159  14.834  45.327
    1STR   C14014732  37.278  14.757  45.327
    1STR   H14114733  37.274  14.681  45.406
    1STR   C14214734  37.297  14.689  45.190
    1STR   H14314735  37.296  14.763  45.110
    1STR   H14414736  37.219  14.616  45.170
    1STR   H14514737  37.392  14.636  45.186
    1STR   C14614738  37.395  14.852  45.359
    1STR   H14714739  37.403  14.928  45.282
    1STR   H14814740  37.374  14.903  45.453
    1STR   O14914741  37.516  14.777  45.370
    1STR   C15014742  37.633  14.854  45.395
    1STR   H15114743  37.633  14.944  45.333
    1STR   C15214744  37.639  14.892  45.544
    1STR   H15314745  37.634  14.803  45.608
    1STR   H15414746  37.558  14.958  45.573
    1STR   H15514747  37.732  14.944  45.567
    1STR   C15614748  37.754  14.768  45.354
    1STR   H15714749  37.758  14.678  45.415
    1STR   H15814750  37.741  14.736  45.251
    1STR   O15914751  37.873  14.845  45.369
    1STR   C16014752  37.993  14.775  45.338
    1STR   H16114753  37.991  14.674  45.380
    1STR   C16214754  38.012  14.769  45.185
    1STR   H16314755  38.010  14.868  45.141
    1STR   H16414756  37.935  14.709  45.137
    1STR   H16514757  38.108  14.723  45.160
    1STR   C16614758  38.109  14.852  45.405
    1STR   H16714759  38.115  14.953  45.364
    1STR   H16814760  38.087  14.861  45.511
    1STR   O16914761  38.231  14.781  45.384
    1STR   C17014762  38.347  14.843  45.439
    1STR   H17114763  38.345  14.950  45.418
    1STR   C17214764  38.353  14.819  45.590
    1STR   H17314765  38.350  14.712  45.613
    1STR   H17414766  38.271  14.867  45.643
    1STR   H17514767  38.446  14.859  45.632
    1STR   C17614768  38.468  14.783  45.367
    1STR   H17714769  38.474  14.676  45.386
    1STR   H17814770  38.456  14.795  45.259
    1STR   O17914771  38.587  14.849  45.411
    1STR   C18014772  38.708  14.800  45.354
    1STR   H18114773  38.707  14.691  45.353
    1STR   C18214774  38.726  14.855  45.212
    1STR   H18314775  38.722  14.964  45.211
    1STR   H18414776  38.649  14.819  45.144
    1STR   H18514777  38.822  14.826  45.171
    1STR   C18614778  38.822  14.846  45.446
    1STR   H18714779  38.827  14.954  45.449
    1STR   H18814780  38.802  14.812  45.548
    1STR   O18914781  38.945  14.791  45.400
    1STR   C19014782  39.061  14.828  45.474
    1STR   H19114783  39.057  14.935  45.498
    1STR   C19214784  39.069  14.746  45.603
    1STR   H19314785  39.068  14.639  45.582
    1STR   H19414786  38.986  14.767  45.671
    1STR   H19514787  39.161  14.767  45.657
    1STR   C19614788  39.183  14.804  45.384
    1STR   H19714789  39.191  14.698  45.360
    1STR   H19814790  39.170  14.858  45.290
    1STR   O19914791  39.301  14.849  45.451
    1STR   C20014792  39.422  14.829  45.380
    1STR   H20114793  39.423  14.729  45.335
    1STR   C20214794  39.438  14.937  45.272
    1STR   H20314795  39.433  15.037  45.315
    1STR   H20414796  39.362  14.929  45.194
    1STR   H20514797  39.535  14.927  45.222
    1STR   C20614798  39.537  14.835  45.482
    1STR   H20714799  39.540  14.934  45.529
    1STR   H20814800  39.517  14.763  45.562
    1STR   O20914801  39.660  14.806  45.417
    1STR   C21014802  39.775  14.812  45.501
    1STR   H21114803  39.771  14.900  45.565
    1STR   C21214804  39.786  14.685  45.586
    1STR   H21314805  39.786  14.595  45.524
    1STR   H21414806  39.703  14.676  45.657
    1STR   H21514807  39.878  14.685  45.645
    1STR   C21614808  39.898  14.828  45.409
    1STR   H21714809  39.907  14.741  45.344
    1STR   H21814810  39.883  14.914  45.344
    1STR   O21914811  40.015  14.844  45.488
    1STR   C22014812  40.136  14.856  45.415
    1STR   H22114813  40.139  14.783  45.333
    1STR   C22214814  40.150  14.998  45.359
    1STR   H22314815  40.143  15.073  45.438
    1STR   H22414816  40.073  15.021  45.285
    1STR   H22514817  40.246  15.011  45.309
    1STR   C22614818  40.252  14.823  45.511
    1STR   H22714819  40.253  14.895  45.593
    1STR   H22814820  40.234  14.724  45.555
    1STR   O22914821  40.375  14.824  45.440
    1STR   C23014822  40.491  14.798  45.519
    1STR   H23114823  40.485  14.853  45.613
    1STR   C23214824  40.503  14.648  45.546
    1STR   H23314825  40.505  14.591  45.453
    1STR   H23414826  40.422  14.610  45.607
    1STR   H23514827  40.596  14.626  45.599
    1STR   C23614828  40.612  14.852  45.441
    1STR   H23714829  40.622  14.798  45.346
    1STR   H23814830  40.596  14.957  45.417
    1STR   O23914831  40.730  14.837  45.520
    1STR   C24014832  40.851  14.879  45.457
    1STR   H24114833  40.854  14.845  45.354
    1STR   C24214834  40.861  15.033  45.463
    1STR   H24314835  40.854  15.069  45.566
    1STR   H24414836  40.784  15.081  45.404
    1STR   H24514837  40.957  15.066  45.423
    1STR   C24614838  40.967  14.812  45.532
    1STR   H24714839  40.969  14.845  45.636
    1STR   H24814840  40.951  14.704  45.533
    1STR   O24914841  41.090  14.844  45.468
    1STR   C25014842  41.207  14.791  45.530
    1STR   H25114843  41.201  14.803  45.638
    1STR   C25214844  41.222  14.642  45.494
    1STR   H25314845  41.223  14.627  45.386
    1STR   H25414846  41.141  14.582  45.536
    1STR   H25514847  41.315  14.602  45.534
    1STR   C25614848  41.327  14.873  45.479
    1STR   H25714849  41.337  14.862  45.371
    1STR   H25814850  41.309  14.978  45.499
    1STR   O25914851  41.446  14.829  45.546
    1STR   C26014852  41.566  14.895  45.506
    1STR   H26114853  41.569  14.905  45.397
    1STR   C26214854  41.574  15.034  45.572
    1STR   H26314855  41.566  15.026  45.680
    1STR   H26414856  41.495  15.101  45.537
    1STR   H26514857  41.669  15.082  45.549
    1STR   C26614858  41.684  14.806  45.548
    1STR   H26714859  41.686  14.795  45.656
    1STR   H26814860  41.670  14.707  45.505
    1STR   O26914861  41.807  14.864  45.502
    1STR   C27014862  41.925  14.792  45.537
    1STR   H27114863  41.920  14.759  45.641
    1STR   C27214864  41.941  14.670  45.445
    1STR   H27314865  41.941  14.699  45.340
    1STR   H27414866  41.861  14.597  45.459
    1STR   H27514867  42.035  14.618  45.465
    1STR   C27614868  42.044  14.888  45.523
    1STR   H27714869  42.053  14.922  45.420
    1STR   H27814870  42.025  14.976  45.584
    1STR   O27914871  42.165  14.823  45.566
    1STR   C28014872  42.283  14.902  45.556
    1STR   H28114873  42.285  14.955  45.461
    1STR   C28214874  42.289  15.002  45.672
    1STR   H28314875  42.281  14.952  45.769
    1STR   H28414876  42.209  15.076  45.667
    1STR   H28514877  42.383  15.057  45.671
    1STR   C28614878  42.404  14.806  45.560
    1STR   H28714879  42.406  14.752  45.654
    1STR   H28814880  42.392  14.732  45.481
    1STR   O28914881  42.526  14.879  45.541
    1STR   C29014882  42.646  14.801  45.544
    1STR   H29114883  42.642  14.730  45.627
    1STR   C29214884  42.662  14.726  45.411
    1STR   H29314885  42.660  14.795  45.327
    1STR   H29414886  42.584  14.652  45.396
    1STR   H29514887  42.757  14.673  45.408
    1STR   C29614888  42.764  14.897  45.569
    1STR   H29714889  42.770  14.970  45.489
    1STR   H29814890  42.744  14.953  45.661
    1STR   O29914891  42.887  14.824  45.580
    1STR   C30014892  43.004  14.904  45.602
    1STR   H30114893  43.001  14.992  45.537
    1STR   C30214894  43.010  14.947  45.749
    1STR   H30314895  43.004  14.861  45.816
    1STR   H30414896  42.928  15.015  45.776
    1STR   H30514897  43.103  15.000  45.771
    1STR   C30614898  43.128  14.820  45.563
    1STR   H30714899  43.137  14.734  45.630
    1STR   H30814900  43.112  14.781  45.463
    1STR   O30914901  43.246  14.901  45.567
    1STR    H1R14902  43.373  14.739  45.588
    1STR    H1S14903  43.470  14.765  45.353
    1STR    H1T14904  43.362  14.901  45.326
    1STR    H1U14905  43.297  14.738  45.348
    1STR    H1V14906  43.474  14.953  45.681
    1STR    H1W14907  43.495  15.011  45.518
    1STR    H1X14908  43.780  14.716  45.575
    1STR    H1Y14909  43.933  14.565  45.487
    1STR    H1Z14910  44.143  14.522  45.368
    1STR    H2014911  44.321  14.771  45.164
    1STR    H2114912  44.394  14.678  45.296
    1STR    H2214913  44.283  14.601  45.183
    1STR    H2314914  44.167  15.041  45.251
    1STR    H2714915  43.984  14.988  45.425
    1STR    H2814916  31.441  14.564  45.198
    1STR    H2914917  31.218  14.502  45.260
    1STR    H2A14918  30.958  14.728  45.365
    1STR    H2B14919  31.008  14.560  45.351
    1STR    H2C14920  30.931  14.640  45.214
    1STR   BCK114921  30.945  30.061  60.145
    1STR    O0314922  30.886  30.169  60.141
    1STR    N0414923  31.073  30.042  60.107
    1STR    C0514924  31.161  30.125  60.035
    1STR    C0614925  31.301  30.131  60.067
    1STR    C0714926  31.395  30.206  59.989
    1STR    N0814927  31.534  30.206  60.020
    1STR    C0914928  31.639  30.254  59.950
    1STR    O0A14929  31.630  30.308  59.840
    1STR    O0B14930  31.759  30.235  60.013
    1STR    C0C14931  31.881  30.290  59.957
    1STR    C0D14932  31.894  30.437  60.001
    1STR    C0E14933  32.008  30.209  59.995
    1STR    O0F14934  32.127  30.268  59.938
    1STR    C0G14935  32.251  30.200  59.962
    1STR    C0H14936  32.260  30.079  59.867
    1STR    C0I14937  32.371  30.295  59.939
    1STR    O0J14938  32.494  30.228  59.970
    1STR    C0K14939  43.381  29.957  59.738
    1STR    C0M14940  43.377  30.084  59.824
    1STR    C0N14941  43.500  29.867  59.782
    1STR    O0O14942  43.626  29.929  59.753
    1STR    C0P14943  43.726  29.937  59.844
    1STR    O0Q14944  43.721  29.902  59.961
    1STR    N0R14945  43.832  29.992  59.784
    1STR    C0S14946  43.958  30.037  59.828
    1STR    C0T14947  44.024  30.121  59.736
    1STR    C0U14948  44.146  30.181  59.769
    1STR    C0V14949  44.208  30.156  59.893
    1STR    C0W14950  44.331  30.239  59.926
    1STR    C0X14951  44.152  30.061  59.983
    1STR    N0Y14952  44.218  30.027  60.103
    1STR   BCK214953  44.349  29.996  60.117
    1STR    O1014954  44.426  29.982  60.023
    1STR    C1314955  44.023  30.006  59.951
    1STR    C1414956  31.343  30.280  59.880
    1STR    C1514957  31.208  30.273  59.845
    1STR    C1614958  31.117  30.194  59.918
    1STR    C1714959  30.977  30.181  59.862
    1STR    H1B14960  31.109  29.952  60.134
    1STR    H1C14961  31.336  30.076  60.153
    1STR    H1D14962  31.563  30.163  60.106
    1STR    H1E14963  31.874  30.288  59.847
    1STR    H1F14964  31.903  30.446  60.109
    1STR    H1G14965  31.983  30.483  59.957
    1STR    H1H14966  31.808  30.496  59.969
    1STR    H1I14967  31.996  30.107  59.959
    1STR    H1J14968  32.018  30.204  60.103
    1STR    H1K14969  32.254  30.166  60.065
    1STR    H1M14970  32.254  30.110  59.763
    1STR    H1N14971  32.183  30.005  59.886
    1STR    H1O14972  32.356  30.028  59.880
    1STR    H1P14973  32.372  30.330  59.836
    1STR    H1Q14974  32.359  30.383  60.002
    1STR   C01014975  32.615  30.302  59.948
    1STR   H01114976  32.611  30.353  59.851
    1STR   C01214977  32.634  30.405  60.060
    1STR   H01314978  32.634  30.357  60.158
    1STR   H01414979  32.557  30.482  60.060
    1STR   H01514980  32.730  30.457  60.049
    1STR   C01614981  32.735  30.203  59.944
    1STR   H01714982  32.741  30.149  60.039
    1STR   H01814983  32.716  30.129  59.867
    1STR   O01914984  32.858  30.272  59.919
    1STR   C02014985  32.976  30.190  59.917
    1STR   H02114986  32.973  30.120  60.001
    1STR   C02214987  32.984  30.112  59.785
    1STR   H02314988  32.982  30.180  59.699
    1STR   H02414989  32.902  30.041  59.774
    1STR   H02514990  33.077  30.055  59.779
    1STR   C02614991  33.100  30.281  59.935
    1STR   H02714992  33.106  30.352  59.853
    1STR   H02814993  33.088  30.338  60.027
    1STR   O02914994  33.219  30.201  59.941
    1STR   C03014995  33.341  30.274  59.953
    1STR   H03114996  33.341  30.359  59.886
    1STR   C03214997  33.360  30.321  60.098
    1STR   H03314998  33.356  30.238   0.008
    1STR   H03414999  33.284  30.393  60.128
    1STR   H03515000  33.456  30.370  60.111
    1STR   C03615001  33.457  30.181  59.911
    1STR   H03715002  33.461  30.094  59.977
    1STR   H03815003  33.438  30.144  59.810
    1STR   O03915004  33.581  30.252  59.914
    1STR   C04015005  33.697  30.176  59.881
    1STR   H04115006  33.693  30.079  59.930
    1STR   C04215007  33.706  30.158  59.728
    1STR   H04315008  33.705  30.254  59.677
    1STR   H04415009  33.624  30.098  59.689
    1STR   H04515010  33.798  30.107  59.701
    1STR   C04615011  33.820  30.251  59.935
    1STR   H04715012  33.828  30.349  59.887
    1STR   H04815013  33.807  30.269  60.042
    1STR   O04915014  33.938  30.174  59.911
    1STR   C05015015  34.061  30.235  59.953
    1STR   H05115016  34.062  30.340  59.925
    1STR   C05215017  34.077  30.220  60.105
    1STR   H05315018  34.071  30.116  60.136
    1STR   H05415019  34.000  30.276  60.160
    1STR   H05515020  34.173  30.259  60.138
    1STR   C05615021  34.176  30.165  59.878
    1STR   H05715022  34.179  30.059  59.905
    1STR   H05815023  34.157  30.171  59.771
    1STR   O05915024  34.300  30.229  59.910
    1STR   C06015025  34.415  30.171  59.851
    1STR   H06115026  34.410  30.062  59.856
    1STR   C06215027  34.426  30.215  59.704
    1STR   H06315028  34.427  30.324  59.696
    1STR   H06415029  34.344  30.177  59.643
    1STR   H06515030  34.518  30.178  59.659
    1STR   C06615031  34.538  30.216  59.932
    1STR   H06715032  34.547  30.325  59.927
    1STR   H06815033  34.523  30.190  60.037
    1STR   O06915034  34.655  30.154  59.881
    1STR   C07015035  34.777  30.191  59.945
    1STR   H07115036  34.779  30.299  59.962
    1STR   C07215037  34.790  30.117  60.079
    1STR   H07315038  34.783  30.009  60.065
    1STR   H07415039  34.713  30.146  60.151
    1STR   H07515040  34.887  30.138  60.126
    1STR   C07615041  34.892  30.155  59.850
    1STR   H07715042  34.894  30.048  59.832
    1STR   H07815043  34.875  30.203  59.754
    1STR   O07915044  35.016  30.199  59.906
    1STR   C08015045  35.132  30.169  59.829
    1STR   H08115046  35.126  30.066  59.791
    1STR   C08215047  35.145  30.268  59.713
    1STR   H08315048  35.146  30.371  59.748
    1STR   H08415049  35.063  30.258  59.641
    1STR   H08515050  35.238  30.251  59.658
    1STR   C08615051  35.253  30.177  59.923
    1STR   H08715052  35.263  30.278  59.962
    1STR   H08815053  35.236  30.111  60.009
    1STR   O08915054  35.371  30.138  59.853
    1STR   C09015055  35.491  30.145  59.928
    1STR   H09115056  35.494  30.237  59.987
    1STR   C09215057  35.502  30.023  60.022
    1STR   H09315058  35.495  29.930  59.965
    1STR   H09415059  35.424  30.022  60.098
    1STR   H09515060  35.598  30.023  60.074
    1STR   C09615061  35.608  30.149  59.828
    1STR   H09715062  35.609  30.057  59.769
    1STR   H09815063  35.592  30.232  59.759
    1STR   O09915064  35.731  30.165  59.898
    1STR   C10015065  35.847  30.167  59.817
    1STR   H10115066  35.842  30.089  59.741
    1STR   C10215067  35.863  30.304  59.750
    1STR   H10315068  35.864  30.384  59.824
    1STR   H10415069  35.782  30.325  59.680
    1STR   H10515070  35.956  30.310  59.694
    1STR   C10615071  35.967  30.135  59.908
    1STR   H10715072  35.977  30.212  59.984
    1STR   H10815073  35.948  30.041  59.960
    1STR   O10915074  36.086  30.126  59.829
    1STR   C11015075  36.205  30.101  59.902
    1STR   H11115076  36.208  30.162  59.993
    1STR   C11215077  36.214  29.952  59.939
    1STR   H11315078  36.206  29.889  59.850
    1STR   H11415079  36.135  29.922  60.008
    1STR   H11515080  36.308  29.929  59.988
    1STR   C11615081  36.323  30.143  59.813
    1STR   H11715082  36.325  30.083  59.723
    1STR   H11815083  36.309  30.247  59.783
    1STR   O11915084  36.445  30.129  59.886
    1STR   C12015085  36.563  30.161  59.813
    1STR   H12115086  36.558  30.120  59.712
    1STR   C12215087  36.580  30.314  59.807
    1STR   H12315088  36.581  30.357  59.907
    1STR   H12415089  36.501  30.362  59.750
    1STR   H12515090  36.675  30.340  59.759
    1STR   C12615091  36.681  30.094  59.885
    1STR   H12715092  36.691  30.135  59.986
    1STR   H12815093  36.661  29.988  59.895
    1STR   O12915094  36.801  30.116  59.811
    1STR   C13015095  36.919  30.062  59.869
    1STR   H13115096  36.920  30.082  59.977
    1STR   C13215097  36.926  29.911  59.844
    1STR   H13315098  36.919  29.889  59.737
    1STR   H13415099  36.845  29.857  59.894
    1STR   H13515100  37.020  29.870  59.880
    1STR   C13615101  37.038  30.135  59.806
    1STR   H13715102  37.041  30.116  59.699
    1STR   H13815103  37.025  30.243  59.819
    1STR   O13915104  37.159  30.092  59.868
    1STR   C14015105  37.278  30.149  59.816
    1STR   H14115106  37.274  30.152  59.707
    1STR   C14215107  37.297  30.291  59.871
    1STR   H14315108  37.296  30.291  59.980
    1STR   H14415109  37.219  30.359  59.838
    1STR   H14515110  37.392  30.333  59.839
    1STR   C14615111  37.395  30.057  59.856
    1STR   H14715112  37.403  30.054  59.965
    1STR   H14815113  37.374  29.956  59.822
    1STR   O14915114  37.516  30.106  59.798
    1STR   C15015115  37.633  30.031  59.831
    1STR   H15115116  37.633  30.007  59.938
    1STR   C15215117  37.639  29.903  59.747
    1STR   H15315118  37.634  29.925  59.641
    1STR   H15415119  37.557  29.834  59.771
    1STR   H15515120  37.732  29.849  59.766
    1STR   C15615121  37.753  30.122  59.804
    1STR   H15715122  37.758  30.148  59.698
    1STR   H15815123  37.741  30.216  59.859
    1STR   O15915124  37.873  30.056  59.844
    1STR   C16015125  37.993  30.128  59.821
    1STR   H16115126  37.991  30.174  59.722
    1STR   C16215127  38.012  30.236  59.929
    1STR   H16315128  38.010  30.192  60.028
    1STR   H16415129  37.935  30.313  59.924
    1STR   H16515130  38.108  30.286  59.916
    1STR   C16615131  38.109  30.027  59.822
    1STR   H16715132  38.115  29.979  59.921
    1STR   H16815133  38.087  29.948  59.750
    1STR   O16915134  38.231  30.093  59.790
    1STR   C17015135  38.347  30.010  59.792
    1STR   H17115136  38.345  29.945  59.879
    1STR   C17215137  38.353  29.926  59.663
    1STR   H17315138  38.350  29.989  59.575
    1STR   H17415139  38.271  29.854  59.657
    1STR   H17515140  38.446  29.868  59.660
    1STR   C17615141  38.468  30.103  59.805
    1STR   H17715142  38.474  30.168  59.718
    1STR   H17815143  38.456  30.166  59.892
    1STR   O17915144  38.587  30.024  59.817
    1STR   C18015145  38.708  30.098  59.825
    1STR   H18115146  38.707  30.180  59.753
    1STR   C18215147  38.726  30.154  59.967
    1STR   H18315148  38.722  30.074  60.042
    1STR   H18415149  38.649  30.227  59.993
    1STR   H18515150  38.822  30.204  59.978
    1STR   C18615151  38.823  30.003  59.788
    1STR   H18715152  38.827  29.921  59.859
    1STR   H18815153  38.802  29.959  59.690
    1STR   O18915154  38.945  30.075  59.785
    1STR   C19015155  39.061  29.997  59.756
    1STR   H19115156  39.057  29.902  59.810
    1STR   C19215157  39.069  29.971  59.605
    1STR   H19315158  39.068  30.064  59.548
    1STR   H19415159  38.986  29.909  59.569
    1STR   H19515160  39.161  29.918  59.579
    1STR   C19615161  39.183  30.075  59.806
    1STR   H19715162  39.191  30.170  59.752
    1STR   H19815163  39.170  30.099  59.911
    1STR   O19915164  39.301  29.997  59.787
    1STR   C20015165  39.422  30.060  59.826
    1STR   H20115166  39.423  30.164  59.792
    1STR   C20215167  39.438  30.054  59.978
    1STR   H20315168  39.433  29.951  60.014
    1STR   H20415169  39.362  30.112  60.030
    1STR   H20515170  39.535  30.094  60.009
    1STR   C20615171  39.537  29.986  59.754
    1STR   H20715172  39.540  29.882  59.787
    1STR   H20815173  39.517  29.986  59.647
    1STR   O20915174  39.660  30.052  59.782
    1STR   C21015175  39.776  29.991  59.725
    1STR   H21115176  39.771  29.882  59.737
    1STR   C21215177  39.786  30.027  59.576
    1STR   H21315178  39.786  30.135  59.562
    1STR   H21415179  39.703  29.986  59.518
    1STR   H21515180  39.878  29.988  59.533
    1STR   C21615181  39.898  30.041  59.804
    1STR   H21715182  39.907  30.149  59.793
    1STR   H21815183  39.883  30.021  59.910
    1STR   O21915184  40.015  29.976  59.756
    1STR   C22015185  40.137  30.017  59.818
    1STR   H22115186  40.139  30.125  59.829
    1STR   C22215187  40.150  29.949  59.956
    1STR   H22315188  40.143  29.841  59.948
    1STR   H22415189  40.073  29.983  60.026
    1STR   H22515190  40.246  29.973  60.001
    1STR   C22615191  40.252  29.976  59.725
    1STR   H22715192  40.254  29.868  59.713
    1STR   H22815193  40.234  30.019  59.626
    1STR   O22915194  40.376  30.023  59.778
    1STR   C23015195  40.492  29.989  59.703
    1STR   H23115196  40.486  29.885  59.670
    1STR   C23215197  40.504  30.082  59.581
    1STR   H23315198  40.505  30.186  59.611
    1STR   H23415199  40.422  30.068  59.510
    1STR   H23515200  40.596  30.062  59.527
    1STR   C23615201  40.613  30.002  59.796
    1STR   H23715202  40.623  30.106  59.830
    1STR   H23815203  40.597  29.941  59.885
    1STR   O23915204  40.731  29.960  59.728
    1STR   C24015205  40.852  29.971  59.802
    1STR   H24115206  40.855  30.066  59.856
    1STR   C24215207  40.862  29.854  59.902
    1STR   H24315208  40.854  29.758  59.851
    1STR   H24415209  40.785  29.858  59.978
    1STR   H24515210  40.958  29.856  59.954
    1STR   C24615211  40.969  29.969  59.702
    1STR   H24715212  40.970  29.875  59.648
    1STR   H24815213  40.953  30.048  59.629
    1STR   O24915214  41.092  29.989  59.771
    1STR   C25015215  41.209  29.987  59.690
    1STR   H25115216  41.203  29.904  59.618
    1STR   C25215217  41.223  30.120  59.615
    1STR   H25315218  41.224  30.204  59.685
    1STR   H25415219  41.142  30.137  59.544
    1STR   H25515220  41.316  30.123  59.559
    1STR   C25615221  41.330  29.961  59.782
    1STR   H25715222  41.339  30.042  59.854
    1STR   H25815223  41.312  29.869  59.838
    1STR   O25915224  41.449  29.948  59.703
    1STR   C26015225  41.569  29.926  59.778
    1STR   H26115226  41.571  29.992  59.865
    1STR   C26215227  41.576  29.780  59.823
    1STR   H26315228  41.568  29.712  59.738
    1STR   H26415229  41.497  29.754  59.893
    1STR   H26515230  41.671  29.759  59.872
    1STR   C26615231  41.688  29.963  59.687
    1STR   H26715232  41.689  29.898  59.599
    1STR   H26815233  41.674  30.065  59.651
    1STR   O26915234  41.810  29.951  59.759
    1STR   C27015235  41.929  29.981  59.685
    1STR   H27115236  41.924  29.935  59.586
    1STR   C27215237  41.944  30.133  59.670
    1STR   H27315238  41.943  30.182  59.768
    1STR   H27415239  41.864  30.177  59.610
    1STR   H27515240  42.038  30.158  59.621
    1STR   C27615241  42.049  29.920  59.760
    1STR   H27715242  42.058  29.965  59.859
    1STR   H27815243  42.030  29.814  59.774
    1STR   O27915244  42.170  29.939  59.685
    1STR   C28015245  42.289  29.887  59.745
    1STR   H28115246  42.291  29.913  59.851
    1STR   C28215247  42.294  29.735  59.727
    1STR   H28315248  42.285  29.707  59.622
    1STR   H28415249  42.214  29.685  59.782
    1STR   H28515250  42.388  29.694  59.764
    1STR   C28615251  42.411  29.955  59.678
    1STR   H28715252  42.412  29.931  59.571
    1STR   H28815253  42.399  30.063  59.686
    1STR   O28915254  42.533  29.913  59.739
    1STR   C29015255  42.653  29.969  59.685
    1STR   H29115256  42.650  29.966  59.576
    1STR   C29215257  42.668  30.114  59.733
    1STR   H29315258  42.665  30.121  59.842
    1STR   H29415259  42.590  30.179  59.693
    1STR   H29515260  42.763  30.156  59.700
    1STR   C29615261  42.773  29.883  59.732
    1STR   H29715262  42.778  29.883  59.841
    1STR   H29815263  42.755  29.780  59.702
    1STR   O29915264  42.897  29.930  59.678
    1STR   C30015265  43.014  29.857  59.717
    1STR   H30115266  43.010  29.835  59.823
    1STR   C30215267  43.021  29.726  59.637
    1STR   H30315268  43.016  29.745  59.529
    1STR   H30415269  42.940  29.658  59.662
    1STR   H30515270  43.115  29.674  59.657
    1STR   C30615271  43.140  29.944  59.693
    1STR   H30715272  43.155  29.961  59.586
    1STR   H30815273  43.122  30.042  59.737
    1STR   O30915274  43.257  29.885  59.751
    1STR    H1R15275  43.395  29.984  59.633
    1STR    H1S15276  43.473  30.136  59.822
    1STR    H1T15277  43.356  30.060  59.929
    1STR    H1U15278  43.302  30.156  59.791
    1STR    H1V15279  43.496  29.773  59.728
    1STR    H1W15280  43.491  29.841  59.888
    1STR    H1X15281  43.810  30.009  59.688
    1STR    H1Y15282  43.981  30.144  59.640
    1STR    H1Z15283  44.192  30.248  59.699
    1STR    H2015284  44.341  30.254  60.034
    1STR    H2115285  44.421  30.191  59.888
    1STR    H2215286  44.324  30.338  59.881
    1STR    H2315287  44.163  30.021   0.027
    1STR    H2715288  43.974  29.938  60.020
    1STR    H2815289  31.406  30.342  59.819
    1STR    H2915290  31.174  30.328  59.759
    1STR    H2A15291  30.935  30.082  59.880
    1STR    H2B15292  30.977  30.197  59.754
    1STR    H2C15293  30.912  30.256  59.907
    1STR   BCK115294  30.951  29.976  15.174
    1STR    O0315295  30.940  29.916  15.280
    1STR    N0415296  31.057  30.054  15.146
    1STR    C0515297  31.161  30.088  15.235
    1STR    C0615298  31.298  30.061  15.205
    1STR    C0715299  31.404  30.095  15.295
    1STR    N0815300  31.540  30.072  15.262
    1STR    C0915301  31.650  30.073  15.341
    1STR    O0A15302  31.646  30.086  15.463
    1STR    O0B15303  31.767  30.057  15.272
    1STR    C0C15304  31.892  30.053  15.344
    1STR    C0D15305  31.913  29.913  15.404
    1STR    C0E15306  32.014  30.093  15.256
    1STR    O0F15307  32.134  30.090  15.334
    1STR    C0G15308  32.256  30.125  15.267
    1STR    C0H15309  32.264  30.278  15.254
    1STR    C0I15310  32.377  30.071  15.348
    1STR    O0J15311  32.499  30.099  15.279
    1STR    C0K15312  43.372  30.456  15.274
    1STR    C0M15313  43.369  30.304  15.295
    1STR    C0N15314  43.495  30.494  15.187
    1STR    O0O15315  43.614  30.482  15.264
    1STR    C0P15316  43.719  30.404  15.227
    1STR    O0Q15317  43.728  30.335  15.126
    1STR    N0R15318  43.811  30.414  15.323
    1STR    C0S15319  43.935  30.356  15.349
    1STR    C0T15320  43.984  30.379  15.479
    1STR    C0U15321  44.107  30.328  15.519
    1STR    C0V15322  44.188  30.253  15.431
    1STR    C0W15323  44.319  30.207  15.490
    1STR    C0X15324  44.145  30.228  15.297
    1STR    N0Y15325  44.222  30.171  15.194
    1STR   BCK215326  44.336  30.102  15.169
    1STR    O1015327  44.373  30.097  15.053
    1STR    C1315328  44.016  30.280  15.260
    1STR    C1415329  31.369  30.159  15.416
    1STR    C1515330  31.235  30.189  15.446
    1STR    C1615331  31.132  30.156  15.356
    1STR    C1715332  30.991  30.201  15.391
    1STR    H1B15333  31.059  30.095  15.054
    1STR    H1C15334  31.322  30.011  15.112
    1STR    H1D15335  31.563  30.050  15.166
    1STR    H1E15336  31.888  30.125  15.426
    1STR    H1F15337  31.918  29.837  15.326
    1STR    H1G15338  32.005  29.908  15.462
    1STR    H1H15339  31.831  29.887  15.471
    1STR    H1I15340  31.997  30.193  15.216
    1STR    H1J15341  32.022  30.026  15.171
    1STR    H1K15342  32.259  30.079  15.168
    1STR    H1M15343  32.259  30.327  15.352
    1STR    H1N15344  32.185  30.319  15.192
    1STR    H1O15345  32.359  30.308  15.209
    1STR    H1P15346  32.378  30.116  15.447
    1STR    H1Q15347  32.365  29.964  15.361
    1STR   C01015348  32.620  30.059  15.345
    1STR   H01115349  32.616  30.088  15.451
    1STR   C01215350  32.639  29.907  15.333
    1STR   H01315351  32.639  29.876  15.228
    1STR   H01415352  32.561  29.852  15.385
    1STR   H01515353  32.734  29.877  15.376
    1STR   C01615354  32.739  30.135  15.281
    1STR   H01715355  32.745  30.110  15.175
    1STR   H01815356  32.720  30.242  15.287
    1STR   O01915357  32.861  30.102  15.347
    1STR   C02015358  32.979  30.164  15.293
    1STR   H02115359  32.977  30.159  15.184
    1STR   C02215360  32.987  30.310  15.339
    1STR   H02315361  32.984  30.318  15.447
    1STR   H02415362  32.905  30.370  15.299
    1STR   H02515363  33.080  30.356  15.304
    1STR   C02615364  33.102  30.084  15.341
    1STR   H02715365  33.108  30.088  15.450
    1STR   H02815366  33.091  29.980  15.313
    1STR   O02915367  33.221  30.139  15.283
    1STR   C03015368  33.344  30.077  15.323
    1STR   H03115369  33.343  30.059  15.431
    1STR   C03215370  33.362  29.944  15.249
    1STR   H03315371  33.358  29.958  15.141
    1STR   H03415372  33.286  29.871  15.275
    1STR   H03515373  33.458  29.899  15.272
    1STR   C03615374  33.459  30.174  15.292
    1STR   H03715375  33.463  30.193  15.185
    1STR   H03815376  33.439  30.269  15.341
    1STR   O03915377  33.583  30.119  15.338
    1STR   C04015378  33.699  30.198  15.311
    1STR   H04115379  33.695  30.237  15.209
    1STR   C04215380  33.707  30.315  15.411
    1STR   H04315381  33.707  30.278  15.514
    1STR   H04415382  33.625  30.385  15.400
    1STR   H04515383  33.800  30.371  15.397
    1STR   C04615384  33.822  30.106  15.322
    1STR   H04715385  33.830  30.066  15.423
    1STR   H04815386  33.808  30.021  15.255
    1STR   O04915387  33.940  30.179  15.287
    1STR   C05015388  34.062  30.106  15.297
    1STR   H05115389  34.063  30.047  15.389
    1STR   C05215390  34.077  30.014  15.175
    1STR   H05315391  34.072  30.070  15.082
    1STR   H05415392  34.001  29.936  15.172
    1STR   H05515393  34.174  29.963  15.177
    1STR   C05615394  34.177  30.208  15.305
    1STR   H05715395  34.179  30.268  15.214
    1STR   H05815396  34.158  30.276  15.388
    1STR   O05915397  34.300  30.139  15.324
    1STR   C06015398  34.416  30.223  15.329
    1STR   H06115399  34.411  30.299  15.251
    1STR   C06215400  34.427  30.289  15.468
    1STR   H06315401  34.427  30.214  15.547
    1STR   H06415402  34.345  30.358  15.487
    1STR   H06515403  34.519  30.346  15.476
    1STR   C06615404  34.538  30.134  15.300
    1STR   H06715405  34.547  30.057  15.377
    1STR   H06815406  34.523  30.083  15.205
    1STR   O06915407  34.656  30.215  15.295
    1STR   C07015408  34.777  30.144  15.273
    1STR   H07115409  34.780  30.053  15.334
    1STR   C07215410  34.790  30.108  15.124
    1STR   H07315411  34.784  30.197  15.062
    1STR   H07415412  34.714  30.038  15.091
    1STR   H07515413  34.887  30.061  15.104
    1STR   C07615414  34.893  30.234  15.319
    1STR   H07715415  34.894  30.326  15.260
    1STR   H07815416  34.875  30.264  15.423
    1STR   O07915417  35.016  30.164  15.308
    1STR   C08015418  35.132  30.238  15.344
    1STR   H08115419  35.126  30.339  15.303
    1STR   C08215420  35.145  30.243  15.497
    1STR   H08315421  35.146  30.143  15.540
    1STR   H08415422  35.064  30.299  15.543
    1STR   H08515423  35.238  30.293  15.526
    1STR   C08615424  35.253  30.168  15.280
    1STR   H08715425  35.263  30.067  15.319
    1STR   H08815426  35.236  30.159  15.172
    1STR   O08915427  35.371  30.245  15.305
    1STR   C09015428  35.492  30.189  15.255
    1STR   H09115429  35.494  30.081  15.274
    1STR   C09215430  35.502  30.216  15.104
    1STR   H09315431  35.495  30.322  15.082
    1STR   H09415432  35.425  30.164  15.047
    1STR   H09515433  35.598  30.181  15.065
    1STR   C09615434  35.608  30.253  15.331
    1STR   H09715435  35.609  30.361  15.313
    1STR   H09815436  35.592  30.239  15.438
    1STR   O09915437  35.731  30.194  15.291
    1STR   C10015438  35.848  30.248  15.352
    1STR   H10115439  35.842  30.357  15.355
    1STR   C10215440  35.863  30.192  15.494
    1STR   H10315441  35.864  30.083  15.493
    1STR   H10415442  35.782  30.224  15.560
    1STR   H10515443  35.956  30.225  15.539
    1STR   C10615444  35.967  30.209  15.263
    1STR   H10715445  35.977  30.101  15.259
    1STR   H10815446  35.949  30.244  15.161
    1STR   O10915447  36.086  30.269  15.315
    1STR   C11015448  36.205  30.239  15.244
    1STR   H11115449  36.208  30.132  15.219
    1STR   C11215450  36.214  30.324  15.116
    1STR   H11315451  36.206  30.430  15.139
    1STR   H11415452  36.135  30.299  15.045
    1STR   H11515453  36.309  30.307  15.065
    1STR   C11615454  36.323  30.267  15.338
    1STR   H11715455  36.325  30.373  15.365
    1STR   H11815456  36.309  30.211  15.431
    1STR   O11915457  36.445  30.229  15.275
    1STR   C12015458  36.563  30.254  15.351
    1STR   H12115459  36.558  30.353  15.397
    1STR   C12215460  36.580  30.146  15.458
    1STR   H12315461  36.581  30.046  15.414
    1STR   H12415462  36.501  30.149  15.533
    1STR   H12515463  36.675  30.159  15.511
    1STR   C12615464  36.681  30.255  15.252
    1STR   H12715465  36.691  30.157  15.205
    1STR   H12815466  36.661  30.327  15.173
    1STR   O12915467  36.801  30.289  15.322
    1STR   C13015468  36.919  30.289  15.242
    1STR   H13115469  36.920  30.202  15.177
    1STR   C13215470  36.926  30.419  15.159
    1STR   H13315471  36.919  30.507  15.223
    1STR   H13415472  36.845  30.424  15.086
    1STR   H13515473  37.020  30.424  15.104
    1STR   C13615474  37.038  30.278  15.338
    1STR   H13715475  37.041  30.365  15.405
    1STR   H13815476  37.025  30.190  15.401
    1STR   O13915477  37.159  30.269  15.263
    1STR   C14015478  37.278  30.262  15.340
    1STR   H14115479  37.274  30.333  15.423
    1STR   C14215480  37.297  30.119  15.395
    1STR   H14315481  37.296  30.046  15.315
    1STR   H14415482  37.219  30.092  15.466
    1STR   H14515483  37.392  30.110  15.448
    1STR   C14615484  37.395  30.302  15.249
    1STR   H14715485  37.403  30.231  15.166
    1STR   H14815486  37.374  30.400  15.205
    1STR   O14915487  37.516  30.306  15.324
    1STR   C15015488  37.633  30.338  15.250
    1STR   H15115489  37.633  30.284  15.154
    1STR   C15215490  37.639  30.489  15.225
    1STR   H15315491  37.634  30.545  15.319
    1STR   H15415492  37.558  30.524  15.161
    1STR   H15515493  37.732  30.516  15.175
    1STR   C15615494  37.754  30.289  15.331
    1STR   H15715495  37.758  30.342  15.427
    1STR   H15815496  37.741  30.183  15.354
    1STR   O15915497  37.873  30.311  15.256
    1STR   C16015498  37.993  30.274  15.323
    1STR   H16115499  37.991  30.307  15.427
    1STR   C16215500  38.012  30.121  15.316
    1STR   H16315501  38.010  30.086  15.213
    1STR   H16415502  37.935  30.068  15.372
    1STR   H16515503  38.108  30.092  15.359
    1STR   C16615504  38.109  30.347  15.253
    1STR   H16715505  38.115  30.315  15.148
    1STR   H16815506  38.087  30.454  15.252
    1STR   O16915507  38.231  30.321  15.321
    1STR   C17015508  38.347  30.380  15.264
    1STR   H17115509  38.345  30.369  15.155
    1STR   C17215510  38.353  30.529  15.302
    1STR   H17315511  38.350  30.542  15.410
    1STR   H17415512  38.271  30.586  15.258
    1STR   H17515513  38.446  30.574  15.265
    1STR   C17615514  38.468  30.303  15.317
    1STR   H17715515  38.474  30.314  15.426
    1STR   H17815516  38.456  30.197  15.296
    1STR   O17915517  38.587  30.353  15.255
    1STR   C18015518  38.708  30.293  15.299
    1STR   H18115519  38.707  30.281  15.408
    1STR   C18215520  38.726  30.156  15.232
    1STR   H18315521  38.722  30.164  15.123
    1STR   H18415522  38.649  30.084  15.263
    1STR   H18515523  38.822  30.112  15.258
    1STR   C18615524  38.823  30.388  15.262
    1STR   H18715525  38.827  30.401  15.154
    1STR   H18815526  38.802  30.487  15.305
    1STR   O18915527  38.946  30.337  15.313
    1STR   C19015528  39.061  30.414  15.282
    1STR   H19115529  39.057  30.448  15.178
    1STR   C19215530  39.069  30.536  15.376
    1STR   H19315531  39.068  30.505  15.480
    1STR   H19415532  38.986  30.605  15.360
    1STR   H19515533  39.161  30.592  15.359
    1STR   C19615534  39.183  30.323  15.298
    1STR   H19715535  39.191  30.289  15.402
    1STR   H19815536  39.170  30.234  15.236
    1STR   O19915537  39.301  30.393  15.259
    1STR   C20015538  39.422  30.321  15.273
    1STR   H20115539  39.423  30.267  15.368
    1STR   C20215540  39.438  30.222  15.156
    1STR   H20315541  39.433  30.273  15.061
    1STR   H20415542  39.362  30.144  15.157
    1STR   H20515543  39.535  30.172  15.161
    1STR   C20615544  39.537  30.423  15.276
    1STR   H20715545  39.540  30.478  15.182
    1STR   H20815546  39.517  30.496  15.355
    1STR   O20915547  39.660  30.356  15.299
    1STR   C21015548  39.776  30.440  15.300
    1STR   H21115549  39.771  30.512  15.218
    1STR   C21215550  39.786  30.513  15.435
    1STR   H21315551  39.786  30.443  15.518
    1STR   H21415552  39.703  30.583  15.450
    1STR   H21515553  39.878  30.571  15.440
    1STR   C21615554  39.898  30.349  15.277
    1STR   H21715555  39.907  30.277  15.358
    1STR   H21815556  39.883  30.293  15.185
    1STR   O21915557  40.015  30.430  15.267
    1STR   C22015558  40.137  30.358  15.249
    1STR   H22115559  40.139  30.270  15.315
    1STR   C22215560  40.150  30.314  15.102
    1STR   H22315561  40.143  30.400  15.035
    1STR   H22415562  40.073  30.242  15.073
    1STR   H22515563  40.246  30.266  15.085
    1STR   C22615564  40.252  30.451  15.291
    1STR   H22715565  40.254  30.539  15.226
    1STR   H22815566  40.234  30.486  15.392
    1STR   O22915567  40.375  30.380  15.283
    1STR   C23015568  40.491  30.456  15.315
    1STR   H23115569  40.485  30.555  15.269
    1STR   C23215570  40.504  30.470  15.468
    1STR   H23315571  40.505  30.372  15.516
    1STR   H23415572  40.422  30.528  15.511
    1STR   H23515573  40.596  30.521  15.495
    1STR   C23615574  40.613  30.383  15.256
    1STR   H23715575  40.623  30.284  15.301
    1STR   H23815576  40.596  30.368  15.149
    1STR   O23915577  40.730  30.461  15.278
    1STR   C24015578  40.851  30.402  15.230
    1STR   H24115579  40.854  30.296  15.255
    1STR   C24215580  40.862  30.421  15.077
    1STR   H24315581  40.854  30.526  15.050
    1STR   H24415582  40.784  30.366  15.024
    1STR   H24515583  40.958  30.384  15.041
    1STR   C24615584  40.968  30.471  15.303
    1STR   H24715585  40.969  30.577  15.279
    1STR   H24815586  40.952  30.462  15.410
    1STR   O24915587  41.091  30.410  15.265
    1STR   C25015588  41.208  30.466  15.324
    1STR   H25115589  41.202  30.575  15.321
    1STR   C25215590  41.222  30.418  15.469
    1STR   H25315591  41.223  30.309  15.474
    1STR   H25415592  41.142  30.454  15.533
    1STR   H25515593  41.316  30.454  15.512
    1STR   C25615594  41.328  30.424  15.238
    1STR   H25715595  41.338  30.315  15.240
    1STR   H25815596  41.310  30.453  15.135
    1STR   O25915597  41.447  30.485  15.288
    1STR   C26015598  41.567  30.452  15.218
    1STR   H26115599  41.570  30.344  15.198
    1STR   C26215600  41.575  30.530  15.086
    1STR   H26315601  41.567  30.637  15.103
    1STR   H26415602  41.496  30.501  15.016
    1STR   H26515603  41.670  30.511  15.036
    1STR   C26615604  41.686  30.486  15.310
    1STR   H26715605  41.687  30.593  15.331
    1STR   H26815606  41.672  30.435  15.405
    1STR   O26915607  41.809  30.445  15.249
    1STR   C27015608  41.927  30.474  15.324
    1STR   H27115609  41.921  30.575  15.365
    1STR   C27215610  41.942  30.372  15.438
    1STR   H27315611  41.942  30.270  15.399
    1STR   H27415612  41.863  30.380  15.512
    1STR   H27515613  42.037  30.387  15.490
    1STR   C27615614  42.047  30.469  15.227
    1STR   H27715615  42.056  30.369  15.184
    1STR   H27815616  42.028  30.537  15.144
    1STR   O27915617  42.167  30.505  15.295
    1STR   C28015618  42.286  30.502  15.216
    1STR   H28115619  42.288  30.412  15.155
    1STR   C28215620  42.291  30.627  15.126
    1STR   H28315621  42.283  30.718  15.185
    1STR   H28415622  42.211  30.627  15.052
    1STR   H28515623  42.385  30.631  15.071
    1STR   C28615624  42.407  30.498  15.311
    1STR   H28715625  42.409  30.587  15.374
    1STR   H28815626  42.396  30.412  15.378
    1STR   O28915627  42.529  30.487  15.237
    1STR   C29015628  42.649  30.482  15.314
    1STR   H29115629  42.646  30.558  15.393
    1STR   C29215630  42.665  30.343  15.377
    1STR   H29315631  42.662  30.265  15.301
    1STR   H29415632  42.588  30.322  15.451
    1STR   H29515633  42.761  30.335  15.429
    1STR   C29615634  42.768  30.515  15.221
    1STR   H29715635  42.773  30.441  15.141
    1STR   H29815636  42.749  30.611  15.174
    1STR   O29915637  42.892  30.518  15.293
    1STR   C30015638  43.009  30.545  15.215
    1STR   H30115639  43.004  30.489  15.121
    1STR   C30215640  43.016  30.696  15.186
    1STR   H30315641  43.012  30.754  15.278
    1STR   H30415642  42.935  30.729  15.121
    1STR   H30515643  43.110  30.721  15.135
    1STR   C30615644  43.133  30.496  15.293
    1STR   H30715645  43.147  30.557  15.383
    1STR   H30815646  43.114  30.394  15.326
    1STR   O30915647  43.251  30.500  15.211
    1STR    H1R15648  43.382  30.507  15.370
    1STR    H1S15649  43.465  30.268  15.335
    1STR    H1T15650  43.352  30.251  15.201
    1STR    H1U15651  43.293  30.272  15.366
    1STR    H1V15652  43.487  30.598  15.156
    1STR    H1W15653  43.499  30.435  15.095
    1STR    H1X15654  43.777  30.479  15.392
    1STR    H1Y15655  43.927  30.438  15.550
    1STR    H1Z15656  44.140  30.348  15.620
    1STR    H2015657  44.317  30.099  15.501
    1STR    H2115658  44.402  30.239  15.427
    1STR    H2215659  44.337  30.248  15.589
    1STR    H2315660  44.182  30.188  15.103
    1STR    H2715661  43.978  30.263  15.160
    1STR    H2815662  31.442  30.189  15.488
    1STR    H2915663  31.213  30.238  15.539
    1STR    H2A15664  30.939  30.239  15.303
    1STR    H2B15665  30.992  30.281  15.466
    1STR    H2C15666  30.934  30.118  15.433
    1STR   BCK115667  30.949  29.971  30.086
    1STR    O0315668  30.909  30.016  29.979
    1STR    N0415669  31.075  29.931  30.108
    1STR    C0515670  31.170  29.892  30.012
    1STR    C0615671  31.306  29.935  30.018
    1STR    C0715672  31.404  29.887  29.927
    1STR    N0815673  31.540  29.926  29.937
    1STR    C0915674  31.650  29.867  29.885
    1STR    O0A15675  31.647  29.762  29.821
    1STR    O0B15676  31.765  29.934  29.911
    1STR    C0C15677  31.889  29.891  29.850
    1STR    C0D15678  31.901  29.953  29.710
    1STR    C0E15679  32.013  29.925  29.936
    1STR    O0F15680  32.133  29.875  29.873
    1STR    C0G15681  32.256  29.893  29.945
    1STR    C0H15682  32.265  29.789  30.057
    1STR    C0I15683  32.375  29.879  29.848
    1STR    O0J15684  32.499  29.904  29.917
    1STR    C0K15685  43.370  29.629  30.167
    1STR    C0M15686  43.374  29.733  30.054
    1STR    C0N15687  43.490  29.651  30.263
    1STR    O0O15688  43.613  29.617  30.198
    1STR    C0P15689  43.722  29.697  30.204
    1STR    O0Q15690  43.727  29.806  30.260
    1STR    N0R15691  43.822  29.639  30.138
    1STR    C0S15692  43.952  29.681  30.105
    1STR    C0T15693  44.017  29.609  30.004
    1STR    C0U15694  44.143  29.649  29.956
    1STR    C0V15695  44.208  29.762  30.009
    1STR    C0W15696  44.333  29.812  29.938
    1STR    C0X15697  44.150  29.831  30.118
    1STR    N0Y15698  44.208  29.947  30.171
    1STR   BCK215699  44.330  29.980  30.216
    1STR    O1015700  44.351  30.097  30.248
    1STR    C1315701  44.021  29.792  30.163
    1STR    C1415702  31.361  29.799  29.825
    1STR    C1515703  31.229  29.753  29.820
    1STR    C1615704  31.134  29.796  29.914
    1STR    C1715705  30.997  29.730  29.910
    1STR    H1B15706  31.098  29.916  30.205
    1STR    H1C15707  31.334  30.005  30.096
    1STR    H1D15708  31.563  30.008  29.991
    1STR    H1E15709  31.888  29.782  29.840
    1STR    H1F15710  31.905  30.062  29.714
    1STR    H1G15711  31.991  29.918  29.659
    1STR    H1H15712  31.816  29.924  29.647
    1STR    H1I15713  32.001  29.880  30.035
    1STR    H1J15714  32.021  30.033  29.951
    1STR    H1K15715  32.259  29.994  29.987
    1STR    H1M15716  32.258  29.687  30.017
    1STR    H1N15717  32.187  29.800  30.132
    1STR    H1O15718  32.361  29.797  30.109
    1STR    H1P15719  32.376  29.779  29.804
    1STR    H1Q15720  32.363  29.950  29.765
    1STR   C01015721  32.619  29.889  29.840
    1STR   H01115722  32.614  29.797  29.782
    1STR   C01215723  32.637  30.010  29.747
    1STR   H01315724  32.638  30.103  29.803
    1STR   H01415725  32.560  30.016  29.671
    1STR   H01515726  32.733  30.003  29.694
    1STR   C01615727  32.738  29.877  29.939
    1STR   H01715728  32.744  29.967  30.000
    1STR   H01815729  32.719  29.793  30.006
    1STR   O01915730  32.860  29.856  29.868
    1STR   C02015731  32.978  29.847  29.949
    1STR   H02115732  32.976  29.925  30.026
    1STR   C02215733  32.986  29.709  30.015
    1STR   H02315734  32.984  29.630  29.940
    1STR   H02415735  32.904  29.691  30.085
    1STR   H02515736  33.079  29.698  30.071
    1STR   C02615737  33.102  29.873  29.860
    1STR   H02715738  33.108  29.797  29.782
    1STR   H02815739  33.090  29.970  29.811
    1STR   O02915740  33.220  29.872  29.940
    1STR   C03015741  33.343  29.891  29.869
    1STR   H03115742  33.343  29.831  29.778
    1STR   C03215743  33.361  30.040  29.834
    1STR   H03315744  33.357  30.102  29.924
    1STR   H03415745  33.285  30.075  29.765
    1STR   H03515746  33.458  30.056  29.787
    1STR   C03615747  33.458  29.841  29.958
    1STR   H03715748  33.463  29.899  30.050
    1STR   H03815749  33.439  29.737  29.986
    1STR   O03915750  33.582  29.850  29.887
    1STR   C04015751  33.698  29.810  29.960
    1STR   H04115752  33.694  29.850  30.061
    1STR   C04215753  33.707  29.657  29.965
    1STR   H04315754  33.706  29.614  29.864
    1STR   H04415755  33.625  29.612  30.021
    1STR   H04515756  33.799  29.625  30.013
    1STR   C04615757  33.821  29.871  29.890
    1STR   H04715758  33.829  29.832  29.788
    1STR   H04815759  33.808  29.979  29.882
    1STR   O04915760  33.939  29.840  29.964
    1STR   C05015761  34.061  29.887  29.908
    1STR   H05115762  34.062  29.869  29.800
    1STR   C05215763  34.077  30.038  29.935
    1STR   H05315764  34.072  30.059  30.042
    1STR   H05415765  34.001  30.097  29.885
    1STR   H05515766  34.174  30.073  29.900
    1STR   C05615767  34.176  29.807  29.971
    1STR   H05715768  34.179  29.824  30.078
    1STR   H05815769  34.157  29.700  29.956
    1STR   O05915770  34.300  29.844  29.910
    1STR   C06015771  34.416  29.779  29.963
    1STR   H06115772  34.411  29.776  30.072
    1STR   C06215773  34.426  29.637  29.906
    1STR   H06315774  34.427  29.639  29.797
    1STR   H06415775  34.344  29.573  29.938
    1STR   H06515776  34.519  29.589  29.938
    1STR   C06615777  34.538  29.864  29.924
    1STR   H06715778  34.547  29.869  29.816
    1STR   H06815779  34.523  29.966  29.960
    1STR   O06915780  34.655  29.808  29.982
    1STR   C07015781  34.777  29.876  29.951
    1STR   H07115782  34.779  29.901  29.845
    1STR   C07215783  34.790  30.003  30.036
    1STR   H07315784  34.784  29.979  30.143
    1STR   H07415785  34.714  30.076  30.013
    1STR   H07515786  34.887  30.050  30.019
    1STR   C07615787  34.892  29.777  29.978
    1STR   H07715788  34.894  29.750  30.083
    1STR   H07815789  34.875  29.686  29.921
    1STR   O07915790  35.016  29.837  29.939
    1STR   C08015791  35.132  29.758  29.963
    1STR   H08115792  35.126  29.711  30.061
    1STR   C08215793  35.145  29.650  29.854
    1STR   H08315794  35.146  29.695  29.754
    1STR   H08415795  35.064  29.578  29.857
    1STR   H08515796  35.238  29.594  29.866
    1STR   C08615797  35.253  29.853  29.963
    1STR   H08715798  35.263  29.900  29.865
    1STR   H08815799  35.236  29.932  30.036
    1STR   O08915800  35.371  29.779  29.996
    1STR   C09015801  35.491  29.855  29.995
    1STR   H09115802  35.494  29.921  29.908
    1STR   C09215803  35.502  29.937  30.125
    1STR   H09315804  35.495  29.873  30.213
    1STR   H09415805  35.424  30.013  30.132
    1STR   H09515806  35.598  29.989  30.130
    1STR   C09615807  35.608  29.755  29.982
    1STR   H09715808  35.609  29.688  30.068
    1STR   H09815809  35.592  29.693  29.894
    1STR   O09915810  35.731  29.827  29.972
    1STR   C10015811  35.848  29.746  29.964
    1STR   H10115812  35.842  29.663  30.035
    1STR   C10215813  35.863  29.691  29.821
    1STR   H10315814  35.864  29.772  29.748
    1STR   H10415815  35.783  29.623  29.794
    1STR   H10515816  35.956  29.636  29.811
    1STR   C10615817  35.967  29.834  30.003
    1STR   H10715818  35.977  29.917  29.933
    1STR   H10815819  35.948  29.877  30.101
    1STR   O10915820  36.086  29.755  30.005
    1STR   C11015821  36.205  29.825  30.037
    1STR   H11115822  36.208  29.921  29.984
    1STR   C11215823  36.214  29.849  30.188
    1STR   H11315824  36.207  29.755  30.243
    1STR   H11415825  36.135  29.915  30.224
    1STR   H11515826  36.309  29.896  30.215
    1STR   C11615827  36.323  29.740  29.987
    1STR   H11715828  36.325  29.645  30.039
    1STR   H11815829  36.309  29.719  29.881
    1STR   O11915830  36.445  29.811  30.007
    1STR   C12015831  36.563  29.742  29.969
    1STR   H12115832  36.558  29.637  30.001
    1STR   C12215833  36.580  29.749  29.816
    1STR   H12315834  36.581  29.852  29.782
    1STR   H12415835  36.501  29.696  29.763
    1STR   H12515836  36.675  29.703  29.786
    1STR   C12615837  36.681  29.808  30.042
    1STR   H12715838  36.691  29.912  30.011
    1STR   H12815839  36.661  29.808  30.149
    1STR   O12915840  36.801  29.735  30.014
    1STR   C13015841  36.919  29.789  30.072
    1STR   H13115842  36.920  29.897  30.062
    1STR   C13215843  36.926  29.750  30.221
    1STR   H13315844  36.919  29.642  30.234
    1STR   H13415845  36.845  29.795  30.279
    1STR   H13515846  37.020  29.783  30.265
    1STR   C13615847  37.038  29.732  29.994
    1STR   H13715848  37.041  29.623  30.004
    1STR   H13815849  37.025  29.755  29.888
    1STR   O13915850  37.159  29.790  30.043
    1STR   C14015851  37.278  29.743  29.981
    1STR   H14115852  37.274  29.634  29.969
    1STR   C14215853  37.297  29.811  29.845
    1STR   H14315854  37.296  29.919  29.854
    1STR   H14415855  37.219  29.783  29.774
    1STR   H14515856  37.392  29.782  29.800
    1STR   C14615857  37.395  29.775  30.076
    1STR   H14715858  37.403  29.883  30.089
    1STR   H14815859  37.374  29.733  30.174
    1STR   O14915860  37.516  29.722  30.023
    1STR   C15015861  37.633  29.748  30.100
    1STR   H15115862  37.633  29.852  30.133
    1STR   C15215863  37.639  29.653  30.220
    1STR   H15315864  37.634  29.549  30.189
    1STR   H15415865  37.558  29.671  30.291
    1STR   H15515866  37.732  29.667  30.275
    1STR   C15615867  37.753  29.729  30.007
    1STR   H15715868  37.758  29.626  29.972
    1STR   H15815869  37.741  29.792  29.918
    1STR   O15915870  37.873  29.764  30.076
    1STR   C16015871  37.993  29.746  30.002
    1STR   H16115872  37.991  29.652  29.948
    1STR   C16215873  38.012  29.863  29.904
    1STR   H16315874  38.010  29.959  29.956
    1STR   H16415875  37.935  29.865  29.827
    1STR   H16515876  38.108  29.855  29.853
    1STR   C16615877  38.109  29.740  30.104
    1STR   H16715878  38.115  29.833  30.159
    1STR   H16815879  38.087  29.661  30.176
    1STR   O16915880  38.231  29.712  30.035
    1STR   C17015881  38.347  29.708  30.118
    1STR   H17115882  38.345  29.789  30.190
    1STR   C17215883  38.353  29.572  30.190
    1STR   H17315884  38.350  29.489  30.120
    1STR   H17415885  38.271  29.559  30.261
    1STR   H17515886  38.446  29.564  30.247
    1STR   C17615887  38.468  29.728  30.026
    1STR   H17715888  38.474  29.647  29.953
    1STR   H17815889  38.456  29.821  29.970
    1STR   O17915890  38.587  29.733  30.106
    1STR   C18015891  38.708  29.748  30.032
    1STR   H18115892  38.707  29.683  29.945
    1STR   C18215893  38.726  29.895  29.989
    1STR   H18315894  38.722  29.962  30.075
    1STR   H18415895  38.649  29.926  29.919
    1STR   H18515896  38.822  29.909  29.941
    1STR   C18615897  38.823  29.703  30.124
    1STR   H18715898  38.827  29.767  30.212
    1STR   H18815899  38.802  29.601  30.159
    1STR   O18915900  38.946  29.706  30.052
    1STR   C19015901  39.061  29.670  30.128
    1STR   H19115902  39.057  29.716  30.227
    1STR   C19215903  39.069  29.517  30.140
    1STR   H19315904  39.068  29.469  30.042
    1STR   H19415905  38.986  29.476  30.199
    1STR   H19515906  39.161  29.487  30.190
    1STR   C19615907  39.183  29.727  30.054
    1STR   H19715908  39.191  29.682  29.954
    1STR   H19815909  39.170  29.834  30.039
    1STR   O19915910  39.301  29.701  30.130
    1STR   C20015911  39.422  29.745  30.071
    1STR   H20115912  39.423  29.721  29.964
    1STR   C20215913  39.438  29.897  30.090
    1STR   H20315914  39.433  29.923  30.196
    1STR   H20415915  39.362  29.953  30.037
    1STR   H20515916  39.535  29.931  30.053
    1STR   C20615917  39.537  29.668  30.138
    1STR   H20715918  39.540  29.691  30.244
    1STR   H20815919  39.517  29.561  30.129
    1STR   O20915920  39.660  29.701  30.075
    1STR   C21015921  39.776  29.639  30.131
    1STR   H21115922  39.771  29.641  30.240
    1STR   C21215923  39.786  29.494  30.082
    1STR   H21315924  39.786  29.489  29.973
    1STR   H21415925  39.703  29.432  30.118
    1STR   H21515926  39.878  29.447  30.117
    1STR   C21615927  39.898  29.722  30.087
    1STR   H21715928  39.907  29.720  29.979
    1STR   H21815929  39.883  29.825  30.117
    1STR   O21915930  40.015  29.669  30.149
    1STR   C22015931  40.137  29.734  30.113
    1STR   H22115932  40.139  29.754  30.006
    1STR   C22215933  40.150  29.865  30.192
    1STR   H22315934  40.143  29.848  30.300
    1STR   H22415935  40.073  29.938  30.165
    1STR   H22515936  40.246  29.912  30.173
    1STR   C22615937  40.252  29.637  30.146
    1STR   H22715938  40.253  29.616  30.253
    1STR   H22815939  40.234  29.543  30.094
    1STR   O22915940  40.375  29.695  30.103
    1STR   C23015941  40.491  29.616  30.131
    1STR   H23115942  40.485  29.575  30.232
    1STR   C23215943  40.503  29.503  30.028
    1STR   H23315944  40.505  29.543  29.926
    1STR   H23415945  40.422  29.432  30.035
    1STR   H23515946  40.596  29.448  30.043
    1STR   C23615947  40.612  29.711  30.126
    1STR   H23715948  40.622  29.753  30.026
    1STR   H23815949  40.596  29.794  30.194
    1STR   O23915950  40.730  29.639  30.162
    1STR   C24015951  40.851  29.714  30.158
    1STR   H24115952  40.854  29.776  30.068
    1STR   C24215953  40.861  29.803  30.283
    1STR   H24315954  40.854  29.744  30.374
    1STR   H24415955  40.784  29.880  30.286
    1STR   H24515956  40.957  29.855  30.285
    1STR   C24615957  40.967  29.614  30.150
    1STR   H24715958  40.969  29.552  30.240
    1STR   H24815959  40.952  29.548  30.065
    1STR   O24915960  41.090  29.685  30.136
    1STR   C25015961  41.207  29.603  30.132
    1STR   H25115962  41.201  29.525  30.207
    1STR   C25215963  41.222  29.541  29.992
    1STR   H25315964  41.223  29.618  29.914
    1STR   H25415965  41.141  29.471  29.969
    1STR   H25515966  41.315  29.485  29.984
    1STR   C25615967  41.328  29.693  30.166
    1STR   H25715968  41.338  29.772  30.091
    1STR   H25815969  41.309  29.741  30.262
    1STR   O25915970  41.446  29.614  30.172
    1STR   C26015971  41.566  29.686  30.200
    1STR   H26115972  41.569  29.778  30.141
    1STR   C26215973  41.574  29.718  30.350
    1STR   H26315974  41.566  29.627  30.410
    1STR   H26415975  41.495  29.786  30.382
    1STR   H26515976  41.669  29.765  30.374
    1STR   C26615977  41.685  29.598  30.155
    1STR   H26715978  41.686  29.505  30.212
    1STR   H26815979  41.671  29.571  30.050
    1STR   O26915980  41.807  29.669  30.172
    1STR   C27015981  41.925  29.598  30.137
    1STR   H27115982  41.920  29.496  30.175
    1STR   C27215983  41.941  29.597  29.984
    1STR   H27315984  41.941  29.698  29.943
    1STR   H27415985  41.862  29.541  29.934
    1STR   H27515986  42.035  29.550  29.955
    1STR   C27615987  42.045  29.667  30.205
    1STR   H27715988  42.054  29.770  30.169
    1STR   H27815989  42.025  29.673  30.312
    1STR   O27915990  42.165  29.594  30.179
    1STR   C28015991  42.284  29.650  30.236
    1STR   H28115992  42.286  29.758  30.220
    1STR   C28215993  42.289  29.619  30.386
    1STR   H28315994  42.281  29.512  30.405
    1STR   H28415995  42.210  29.668  30.442
    1STR   H28515996  42.384  29.653  30.429
    1STR   C28615997  42.405  29.589  30.162
    1STR   H28715998  42.406  29.481  30.176
    1STR   H28815999  42.392  29.606  30.055
    1STR   O28916000  42.527  29.647  30.209
    1STR   C29016001  42.646  29.598  30.148
    1STR   H29116002  42.642  29.489  30.142
    1STR   C29216003  42.662  29.658  30.008
    1STR   H29316004  42.660  29.767  30.012
    1STR   H29416005  42.584  29.625  29.940
    1STR   H29516006  42.757  29.628  29.964
    1STR   C29616007  42.765  29.636  30.240
    1STR   H29716008  42.771  29.745  30.248
    1STR   H29816009  42.746  29.597  30.340
    1STR   O29916010  42.888  29.583  30.188
    1STR   C30016011  43.005  29.614  30.265
    1STR   H30116012  43.002  29.719  30.295
    1STR   C30216013  43.011  29.524  30.389
    1STR   H30316014  43.005  29.419  30.361
    1STR   H30416015  42.929  29.544  30.458
    1STR   H30516016  43.104  29.539  30.443
    1STR   C30616017  43.129  29.595  30.175
    1STR   H30716018  43.139  29.490  30.148
    1STR   H30816019  43.113  29.650  30.083
    1STR   O30916020  43.248  29.641  30.241
    1STR    H1R16021  43.377  29.528  30.126
    1STR    H1S16022  43.470  29.731  30.002
    1STR    H1T16023  43.360  29.834  30.093
    1STR    H1U16024  43.297  29.716  29.979
    1STR    H1V16025  43.480  29.586  30.350
    1STR    H1W16026  43.490  29.753  30.301
    1STR    H1X16027  43.793  29.550  30.102
    1STR    H1Y16028  43.970  29.523  29.958
    1STR    H1Z16029  44.188  29.595  29.874
    1STR    H2016030  44.340  29.920  29.942
    1STR    H2116031  44.422  29.768  29.982
    1STR    H2216032  44.331  29.784  29.832
    1STR    H2316033  44.145  30.025  30.181
    1STR    H2716034  43.973  29.847  30.242
    1STR    H2816035  31.428  29.763  29.749
    1STR    H2916036  31.202  29.682  29.743
    1STR    H2A16037  30.960  29.711  30.011
    1STR    H2B16038  31.001  29.634  29.859
    1STR    H2C16039  30.926  29.793  29.858
    1STR   BCK116040  30.942  30.096  45.188
    1STR    O0316041  30.888  30.187  45.250
    1STR    N0416042  31.067  30.101  45.137
    1STR    C0516043  31.158  30.209  45.128
    1STR    C0616044  31.299  30.189  45.150
    1STR    C0716045  31.396  30.293  45.134
    1STR    N0816046  31.535  30.269  45.152
    1STR    C0916047  31.640  30.355  45.151
    1STR    O0A16048  31.630  30.477  45.142
    1STR    O0B16049  31.761  30.293  45.163
    1STR    C0C16050  31.883  30.371  45.170
    1STR    C0D16051  31.901  30.425  45.313
    1STR    C0E16052  32.009  30.292  45.125
    1STR    O0F16053  32.128  30.372  45.136
    1STR    C0G16054  32.251  30.311  45.095
    1STR    C0H16055  32.260  30.312  44.941
    1STR    C0I16056  32.372  30.386  45.156
    1STR    O0J16057  32.495  30.321  45.121
    1STR    C0K16058  43.381  30.342  44.777
    1STR    C0M16059  43.372  30.353  44.930
    1STR    C0N16060  43.504  30.254  44.739
    1STR    O0O16061  43.627  30.319  44.772
    1STR    C0P16062  43.726  30.258  44.843
    1STR    O0Q16063  43.720  30.148  44.897
    1STR    N0R16064  43.832  30.340  44.846
    1STR    C0S16065  43.959  30.340  44.905
    1STR    C0T16066  44.033  30.457  44.881
    1STR    C0U16067  44.157  30.479  44.941
    1STR    C0V16068  44.213  30.382  45.026
    1STR    C0W16069  44.340  30.420  45.100
    1STR    C0X16070  44.148  30.257  45.046
    1STR    N0Y16071  44.208  30.161  45.130
    1STR   BCK216072  44.335  30.117  45.123
    1STR    O1016073  44.408  30.135  45.026
    1STR    C1316074  44.018  30.239  44.987
    1STR    C1416075  31.347  30.420  45.096
    1STR    C1516076  31.211  30.442  45.071
    1STR    C1616077  31.117  30.338  45.083
    1STR    C1716078  30.975  30.369  45.039
    1STR    H1B16079  31.099  30.013  45.101
    1STR    H1C16080  31.332  30.091  45.181
    1STR    H1D16081  31.565  30.175  45.166
    1STR    H1E16082  31.874  30.456  45.102
    1STR    H1F16083  31.911  30.344  45.385
    1STR    H1G16084  31.990  30.488  45.320
    1STR    H1H16085  31.816  30.487  45.343
    1STR    H1I16086  31.995  30.259  45.022
    1STR    H1J16087  32.020  30.202  45.185
    1STR    H1K16088  32.255  30.208  45.131
    1STR    H1M16089  32.254  30.413  44.902
    1STR    H1N16090  32.182  30.253  44.894
    1STR    H1O16091  32.356  30.270  44.908
    1STR    H1P16092  32.373  30.490  45.121
    1STR    H1Q16093  32.360  30.390  45.264
    1STR   C01016094  32.616  30.383  45.167
    1STR   H01116095  32.612  30.490  45.149
    1STR   C01216096  32.635  30.357  45.318
    1STR   H01316097  32.635  30.250  45.339
    1STR   H01416098  32.557  30.403  45.378
    1STR   H01516099  32.730  30.397  45.352
    1STR   C01616100  32.735  30.326  45.087
    1STR   H01716101  32.741  30.218  45.102
    1STR   H01816102  32.716  30.342  44.980
    1STR   O01916103  32.858  30.388  45.125
    1STR   C02016104  32.976  30.339  45.060
    1STR   H02116105  32.974  30.230  45.055
    1STR   C02216106  32.984  30.397  44.917
    1STR   H02316107  32.982  30.506  44.919
    1STR   H02416108  32.903  30.363  44.854
    1STR   H02516109  33.077  30.367  44.869
    1STR   C02616110  33.100  30.380  45.142
    1STR   H02716111  33.106  30.489  45.149
    1STR   H02816112  33.089  30.343  45.244
    1STR   O02916113  33.219  30.327  45.083
    1STR   C03016114  33.342  30.362  45.148
    1STR   H03116115  33.341  30.468  45.175
    1STR   C03216116  33.360  30.276  45.274
    1STR   H03316117  33.356  30.170  45.250
    1STR   H03416118  33.284  30.296  45.349
    1STR   H03516119  33.457  30.296  45.320
    1STR   C03616120  33.457  30.339  45.048
    1STR   H03716121  33.462  30.234  45.020
    1STR   H03816122  33.438  30.396  44.958
    1STR   O03916123  33.581  30.380  45.107
    1STR   C04016124  33.697  30.360  45.026
    1STR   H04116125  33.694  30.262  44.979
    1STR   C04216126  33.706  30.470  44.919
    1STR   H04316127  33.706  30.569  44.964
    1STR   H04416128  33.624  30.465  44.848
    1STR   H04516129  33.799  30.460  44.862
    1STR   C04616130  33.821  30.363  45.118
    1STR   H04716131  33.828  30.460  45.167
    1STR   H04816132  33.808  30.289  45.197
    1STR   O04916133  33.939  30.335  45.043
    1STR   C05016134  34.061  30.338  45.117
    1STR   H05116135  34.062  30.425  45.184
    1STR   C05216136  34.077  30.209  45.198
    1STR   H05316137  34.071  30.121  45.134
    1STR   H05416138  34.001  30.199  45.275
    1STR   H05516139  34.174  30.207  45.248
    1STR   C05616140  34.176  30.355  45.016
    1STR   H05716141  34.179  30.270  44.948
    1STR   H05816142  34.157  30.444  44.955
    1STR   O05916143  34.300  30.368  45.086
    1STR   C06016144  34.415  30.381  45.003
    1STR   H06116145  34.410  30.310  44.920
    1STR   C06216146  34.426  30.524  44.950
    1STR   H06316147  34.427  30.597  45.031
    1STR   H06416148  34.344  30.550  44.883
    1STR   H06516149  34.518  30.538  44.893
    1STR   C06616150  34.538  30.344  45.089
    1STR   H06716151  34.547  30.414  45.173
    1STR   H06816152  34.523  30.245  45.132
    1STR   O06916153  34.655  30.346  45.008
    1STR   C07016154  34.777  30.318  45.077
    1STR   H07116155  34.779  30.370  45.173
    1STR   C07216156  34.790  30.167  45.100
    1STR   H07316157  34.783  30.112  45.005
    1STR   H07416158  34.714  30.128  45.166
    1STR   H07516159  34.887  30.143  45.145
    1STR   C07616160  34.892  30.372  44.991
    1STR   H07716161  34.894  30.321  44.895
    1STR   H07816162  34.875  30.478  44.971
    1STR   O07916163  35.016  30.354  45.060
    1STR   C08016164  35.132  30.397  44.989
    1STR   H08116165  35.126  30.365  44.885
    1STR   C08216166  35.145  30.550  44.997
    1STR   H08316167  35.146  30.584  45.101
    1STR   H08416168  35.064  30.601  44.946
    1STR   H08516169  35.238  30.583  44.950
    1STR   C08616170  35.253  30.327  45.053
    1STR   H08716171  35.263  30.357  45.157
    1STR   H08816172  35.236  30.219  45.052
    1STR   O08916173  35.371  30.359  44.979
    1STR   C09016174  35.491  30.303  45.030
    1STR   H09116175  35.494  30.313  45.139
    1STR   C09216176  35.502  30.155  44.991
    1STR   H09316177  35.495  30.143  44.883
    1STR   H09416178  35.424  30.094  45.037
    1STR   H09516179  35.598  30.114  45.022
    1STR   C09616180  35.608  30.385  44.973
    1STR   H09716181  35.609  30.376  44.864
    1STR   H09816182  35.592  30.491  44.996
    1STR   O09916183  35.731  30.340  45.029
    1STR   C10016184  35.847  30.405  44.980
    1STR   H10116185  35.842  30.418  44.872
    1STR   C10216186  35.863  30.542  45.048
    1STR   H10316187  35.864  30.532  45.157
    1STR   H10416188  35.782  30.610  45.022
    1STR   H10516189  35.956  30.590  45.019
    1STR   C10616190  35.967  30.314  45.010
    1STR   H10716191  35.977  30.300  45.118
    1STR   H10816192  35.949  30.215  44.967
    1STR   O10916193  36.086  30.371  44.955
    1STR   C11016194  36.205  30.297  44.980
    1STR   H11116195  36.208  30.262  45.083
    1STR   C11216196  36.214  30.177  44.884
    1STR   H11316197  36.207  30.210  44.780
    1STR   H11416198  36.135  30.104  44.902
    1STR   H11516199  36.309  30.125  44.896
    1STR   C11616200  36.323  30.394  44.959
    1STR   H11716201  36.325  30.429  44.856
    1STR   H11816202  36.309  30.481  45.023
    1STR   O11916203  36.445  30.327  44.992
    1STR   C12016204  36.563  30.405  44.973
    1STR   H12116205  36.558  30.460  44.879
    1STR   C12216206  36.580  30.502  45.091
    1STR   H12316207  36.581  30.449  45.186
    1STR   H12416208  36.501  30.577  45.095
    1STR   H12516209  36.675  30.556  45.083
    1STR   C12616210  36.681  30.307  44.964
    1STR   H12716211  36.691  30.251  45.058
    1STR   H12816212  36.661  30.234  44.885
    1STR   O12916213  36.801  30.379  44.936
    1STR   C13016214  36.919  30.300  44.929
    1STR   H13116215  36.920  30.227  45.010
    1STR   C13216216  36.926  30.229  44.793
    1STR   H13316217  36.920  30.300  44.711
    1STR   H13416218  36.845  30.156  44.780
    1STR   H13516219  37.020  30.174  44.783
    1STR   C13616220  37.038  30.395  44.949
    1STR   H13716221  37.041  30.468  44.868
    1STR   H13816222  37.025  30.449  45.042
    1STR   O13916223  37.159  30.319  44.952
    1STR   C14016224  37.278  30.395  44.965
    1STR   H14116225  37.274  30.483  44.901
    1STR   C14216226  37.297  30.437  45.112
    1STR   H14316227  37.296  30.351  45.178
    1STR   H14416228  37.219  30.506  45.146
    1STR   H14516229  37.392  30.489  45.126
    1STR   C14616230  37.395  30.307  44.917
    1STR   H14716231  37.403  30.219  44.980
    1STR   H14816232  37.374  30.273  44.816
    1STR   O14916233  37.516  30.383  44.920
    1STR   C15016234  37.633  30.311  44.882
    1STR   H15116235  37.633  30.212  44.927
    1STR   C15216236  37.639  30.300  44.728
    1STR   H15316237  37.634  30.398  44.681
    1STR   H15416238  37.558  30.239  44.688
    1STR   H15516239  37.732  30.253  44.697
    1STR   C15616240  37.753  30.388  44.937
    1STR   H15716241  37.758  30.488  44.893
    1STR   H15816242  37.741  30.402  45.044
    1STR   O15916243  37.873  30.316  44.909
    1STR   C16016244  37.993  30.379  44.952
    1STR   H16116245  37.991  30.485  44.928
    1STR   C16216246  38.012  30.359  45.103
    1STR   H16316247  38.010  30.253  45.129
    1STR   H16416248  37.935  30.409  45.161
    1STR   H16516249  38.108  30.399  45.136
    1STR   C16616250  38.109  30.315  44.873
    1STR   H16716251  38.115  30.209  44.895
    1STR   H16816252  38.087  30.324  44.766
    1STR   O16916253  38.231  30.381  44.905
    1STR   C17016254  38.347  30.329  44.841
    1STR   H17116255  38.345  30.220  44.842
    1STR   C17216256  38.353  30.380  44.696
    1STR   H17316257  38.350  30.489  44.692
    1STR   H17416258  38.271  30.342  44.635
    1STR   H17516259  38.446  30.348  44.648
    1STR   C17616260  38.469  30.376  44.922
    1STR   H17716261  38.474  30.485  44.921
    1STR   H17816262  38.456  30.345  45.026
    1STR   O17916263  38.587  30.318  44.867
    1STR   C18016264  38.708  30.357  44.931
    1STR   H18116265  38.707  30.464  44.952
    1STR   C18216266  38.726  30.278  45.062
    1STR   H18316267  38.722  30.170  45.043
    1STR   H18416268  38.649  30.302  45.135
    1STR   H18516269  38.822  30.300  45.107
    1STR   C18616270  38.823  30.329  44.832
    1STR   H18716271  38.827  30.222  44.810
    1STR   H18816272  38.802  30.380  44.738
    1STR   O18916273  38.946  30.374  44.888
    1STR   C19016274  39.061  30.350  44.808
    1STR   H19116275  39.057  30.249  44.766
    1STR   C19216276  39.069  30.454  44.695
    1STR   H19316277  39.068  30.556  44.735
    1STR   H19416278  38.986  30.445  44.625
    1STR   H19516279  39.161  30.442  44.638
    1STR   C19616280  39.183  30.359  44.901
    1STR   H19716281  39.191  30.459  44.943
    1STR   H19816282  39.170  30.289  44.984
    1STR   O19916283  39.301  30.326  44.827
    1STR   C20016284  39.422  30.333  44.901
    1STR   H20116285  39.423  30.423  44.963
    1STR   C20216286  39.438  30.208  44.989
    1STR   H20316287  39.433  30.117  44.929
    1STR   H20416288  39.362  30.203  45.066
    1STR   H20516289  39.535  30.209  45.039
    1STR   C20616290  39.537  30.345  44.799
    1STR   H20716291  39.540  30.256  44.736
    1STR   H20816292  39.518  30.430  44.733
    1STR   O20916293  39.660  30.363  44.868
    1STR   C21016294  39.776  30.371  44.785
    1STR   H21116295  39.771  30.295  44.706
    1STR   C21216296  39.786  30.511  44.723
    1STR   H21316297  39.786  30.588  44.800
    1STR   H21416298  39.703  30.532  44.655
    1STR   H21516299  39.878  30.522  44.666
    1STR   C21616300  39.898  30.339  44.873
    1STR   H21716301  39.907  30.414  44.952
    1STR   H21816302  39.883  30.243  44.921
    1STR   O21916303  40.015  30.337  44.792
    1STR   C22016304  40.137  30.312  44.862
    1STR   H22116305  40.139  30.370  44.955
    1STR   C22216306  40.150  30.162  44.892
    1STR   H22316307  40.143  30.103  44.801
    1STR   H22416308  40.073  30.127  44.961
    1STR   H22516309  40.246  30.141  44.939
    1STR   C22616310  40.252  30.362  44.773
    1STR   H22716311  40.254  30.305  44.679
    1STR   H22816312  40.235  30.466  44.747
    1STR   O22916313  40.376  30.348  44.843
    1STR   C23016314  40.492  30.387  44.769
    1STR   H23116315  40.486  30.350  44.667
    1STR   C23216316  40.504  30.540  44.769
    1STR   H23316317  40.505  30.580  44.871
    1STR   H23416318  40.422  30.588  44.715
    1STR   H23516319  40.596  30.572  44.721
    1STR   C23616320  40.613  30.321  44.837
    1STR   H23716321  40.623  30.358  44.939
    1STR   H23816322  40.597  30.214  44.842
    1STR   O23916323  40.731  30.350  44.762
    1STR   C24016324  40.852  30.297  44.816
    1STR   H24116325  40.855  30.313  44.924
    1STR   C24216326  40.862  30.147  44.783
    1STR   H24316327  40.855  30.129  44.676
    1STR   H24416328  40.785  30.089  44.833
    1STR   H24516329  40.958  30.107  44.817
    1STR   C24616330  40.969  30.376  44.753
    1STR   H24716331  40.970  30.362  44.645
    1STR   H24816332  40.953  30.482  44.772
    1STR   O24916333  41.092  30.333  44.811
    1STR   C25016334  41.209  30.397  44.760
    1STR   H25116335  41.203  30.403  44.651
    1STR   C25216336  41.223  30.537  44.821
    1STR   H25316337  41.224  30.533  44.930
    1STR   H25416338  41.143  30.603  44.790
    1STR   H25516339  41.317  30.584  44.789
    1STR   C25616340  41.330  30.308  44.795
    1STR   H25716341  41.340  30.300  44.903
    1STR   H25816342  41.312  30.207  44.757
    1STR   O25916343  41.449  30.362  44.738
    1STR   C26016344  41.569  30.290  44.765
    1STR   H26116345  41.572  30.261  44.871
    1STR   C26216346  41.576  30.165  44.676
    1STR   H26316347  41.568  30.191  44.571
    1STR   H26416348  41.497  30.093  44.699
    1STR   H26516349  41.671  30.113  44.690
    1STR   C26616350  41.688  30.384  44.739
    1STR   H26716351  41.689  30.415  44.634
    1STR   H26816352  41.675  30.475  44.798
    1STR   O26916353  41.811  30.320  44.774
    1STR   C27016354  41.930  30.397  44.752
    1STR   H27116355  41.924  30.447  44.655
    1STR   C27216356  41.944  30.501  44.864
    1STR   H27316357  41.944  30.454  44.962
    1STR   H27416358  41.865  30.576  44.862
    1STR   H27516359  42.039  30.555  44.854
    1STR   C27616360  42.050  30.301  44.749
    1STR   H27716361  42.059  30.249  44.845
    1STR   H27816362  42.031  30.224  44.674
    1STR   O27916363  42.171  30.372  44.719
    1STR   C28016364  42.290  30.292  44.715
    1STR   H28116365  42.292  30.223  44.799
    1STR   C28216366  42.294  30.213  44.583
    1STR   H28316367  42.285  30.280  44.497
    1STR   H28416368  42.214  30.139  44.576
    1STR   H28516369  42.388  30.159  44.573
    1STR   C28616370  42.412  30.386  44.727
    1STR   H28716371  42.413  30.457  44.644
    1STR   H28816372  42.401  30.445  44.818
    1STR   O28916373  42.535  30.312  44.731
    1STR   C29016374  42.655  30.388  44.743
    1STR   H29116375  42.652  30.473  44.674
    1STR   C29216376  42.670  30.439  44.887
    1STR   H29316377  42.666  30.357  44.958
    1STR   H29416378  42.592  30.510  44.914
    1STR   H29516379  42.765  30.490  44.901
    1STR   C29616380  42.775  30.299  44.703
    1STR   H29716381  42.779  30.212  44.770
    1STR   H29816382  42.758  30.260  44.603
    1STR   O29916383  42.899  30.371  44.708
    1STR   C30016384  43.017  30.296  44.675
    1STR   H30116385  43.012  30.198  44.723
    1STR   C30216386  43.025  30.280  44.522
    1STR   H30316387  43.020  30.376  44.472
    1STR   H30416388  42.944  30.218  44.483
    1STR   H30516389  43.118  30.232  44.493
    1STR   C30616390  43.142  30.369  44.731
    1STR   H30716391  43.157  30.463  44.678
    1STR   H30816392  43.121  30.394  44.834
    1STR   O30916393  43.260  30.286  44.723
    1STR    H1R16394  43.396  30.442  44.734
    1STR    H1S16395  43.467  30.388  44.972
    1STR    H1T16396  43.350  30.256  44.974
    1STR    H1U16397  43.296  30.423  44.963
    1STR    H1V16398  43.504  30.238  44.631
    1STR    H1W16399  43.496  30.155  44.784
    1STR    H1X16400  43.809  30.421  44.791
    1STR    H1Y16401  43.993  30.535  44.817
    1STR    H1Z16402  44.209  30.571  44.923
    1STR    H2016403  44.341  30.379  45.201
    1STR    H2116404  44.428  30.384  45.046
    1STR    H2216405  44.349  30.528  45.110
    1STR    H2316406  44.153  30.124  45.206
    1STR    H2716407  43.963  30.147  45.005
    1STR    H2816408  31.412  30.505  45.082
    1STR    H2916409  31.179  30.540  45.040
    1STR    H2A16410  30.927  30.283  44.994
    1STR    H2B16411  30.974  30.449  44.964
    1STR    H2C16412  30.916  30.403  45.124
    1STR   BCK116413  30.929  44.988   0.073
    1STR    O0316414  30.914  44.872   0.035
    1STR    N0416415  31.046  45.040   0.115
    1STR    C0516416  31.155  44.969   0.169
    1STR    C0616417  31.289  44.983   0.122
    1STR    C0716418  31.400  44.919   0.187
    1STR    N0816419  31.534  44.937   0.144
    1STR    C0916420  31.649  44.879   0.187
    1STR    O0A16421  31.653  44.790   0.272
    1STR    O0B16422  31.763  44.927   0.128
    1STR    C0C16423  31.891  44.868   0.163
    1STR    C0D16424  31.909  44.735   0.087
    1STR    C0E16425  32.013  44.961   0.139
    1STR    O0F16426  32.133  44.896   0.183
    1STR    C0G16427  32.256  44.970   0.172
    1STR    C0H16428  32.265  45.072   0.287
    1STR    C0I16429  32.376  44.872   0.178
    1STR    O0J16430  32.499  44.943   0.160
    1STR    C0K16431  43.373  45.168   0.458
    1STR    C0M16432  43.379  45.063   0.345
    1STR    C0N16433  43.494  45.264   0.447
    1STR    O0O16434  43.615  45.199   0.490
    1STR    C0P16435  43.724  45.189   0.410
    1STR    O0Q16436  43.734  45.233   0.296
    1STR    N0R16437  43.817  45.119   0.475
    1STR    C0S16438  43.939  45.065   0.433
    1STR    C0T16439  43.980  44.948   0.498
    1STR    C0U16440  44.095  44.879   0.455
    1STR    C0V16441  44.173  44.927   0.349
    1STR    C0W16442  44.281  44.835   0.294
    1STR    C0X16443  44.143  45.054   0.292
    1STR    N0Y16444  44.221  45.111   0.191
    1STR   BCK216445  44.354  45.130   0.178
    1STR    O1016446  44.397  45.176   0.073
    1STR    C1316447  44.022  45.119   0.331
    1STR    C1416448  31.370  44.839   0.300
    1STR    C1516449  31.239  44.826   0.348
    1STR    C1616450  31.132  44.892   0.286
    1STR    C1716451  30.995  44.884   0.352
    1STR    H1B16452  31.047  45.140   0.127
    1STR    H1C16453  31.307  45.045   0.035
    1STR    H1D16454  31.552  45.003   0.069
    1STR    H1E16455  31.890  44.846   0.270
    1STR    H1F16456  31.913  44.751  60.139
    1STR    H1G16457  32.002  44.686   0.117
    1STR    H1H16458  31.828  44.666   0.109
    1STR    H1I16459  31.997  45.054   0.194
    1STR    H1J16460  32.021  44.987   0.034
    1STR    H1K16461  32.259  45.021   0.076
    1STR    H1M16462  32.258  45.023   0.384
    1STR    H1N16463  32.186  45.147   0.281
    1STR    H1O16464  32.360  45.125   0.283
    1STR    H1P16465  32.377  44.820   0.274
    1STR    H1Q16466  32.364  44.796   0.101
    1STR   C01016467  32.620  44.866   0.169
    1STR   H01116468  32.615  44.799   0.256
    1STR   C01216469  32.639  44.783   0.041
    1STR   H01316470  32.639  44.847  60.112
    1STR   H01416471  32.561  44.708   0.028
    1STR   H01516472  32.734  44.730   0.043
    1STR   C01616473  32.738  44.962   0.190
    1STR   H01716474  32.745  45.031   0.106
    1STR   H01816475  32.720  45.023   0.279
    1STR   O01916476  32.861  44.890   0.205
    1STR   C02016477  32.979  44.970   0.220
    1STR   H02116478  32.977  45.053   0.150
    1STR   C02216479  32.987  45.023   0.364
    1STR   H02316480  32.985  44.941   0.437
    1STR   H02416481  32.905  45.091   0.388
    1STR   H02516482  33.080  45.078   0.380
    1STR   C02616483  33.102  44.883   0.187
    1STR   H02716484  33.109  44.799   0.256
    1STR   H02816485  33.091  44.842   0.087
    1STR   O02916486  33.221  44.963   0.195
    1STR   C03016487  33.344  44.893   0.170
    1STR   H03116488  33.343  44.797   0.221
    1STR   C03216489  33.362  44.872   0.019
    1STR   H03316490  33.358  44.966  60.125
    1STR   H03416491  33.286  44.806  60.137
    1STR   H03516492  33.459  44.826  60.158
    1STR   C03616493  33.459  44.977   0.228
    1STR   H03716494  33.463  45.074   0.178
    1STR   H03816495  33.439  44.997   0.333
    1STR   O03916496  33.583  44.907   0.212
    1STR   C04016497  33.699  44.977   0.258
    1STR   H04116498  33.695  45.081   0.227
    1STR   C04216499  33.707  44.968   0.412
    1STR   H04316500  33.707  44.864   0.445
    1STR   H04416501  33.625  45.020   0.461
    1STR   H04516502  33.800  45.013   0.448
    1STR   C04616503  33.822  44.912   0.192
    1STR   H04716504  33.830  44.808   0.222
    1STR   H04816505  33.809  44.914   0.084
    1STR   O04916506  33.940  44.984   0.229
    1STR   C05016507  34.062  44.931   0.177
    1STR   H05116508  34.063  44.823   0.186
    1STR   C05216509  34.078  44.972   0.029
    1STR   H05316510  34.072  45.080   0.018
    1STR   H05416511  34.001  44.927  60.126
    1STR   H05516512  34.174  44.940  60.151
    1STR   C05616513  34.177  44.987   0.263
    1STR   H05716514  34.180  45.096   0.255
    1STR   H05816515  34.158  44.963   0.367
    1STR   O05916516  34.300  44.930   0.220
    1STR   C06016517  34.416  44.977   0.289
    1STR   H06116518  34.411  45.085   0.303
    1STR   C06216519  34.427  44.907   0.426
    1STR   H06316520  34.427  44.799   0.415
    1STR   H06416521  34.345  44.934   0.492
    1STR   H06516522  34.519  44.936   0.476
    1STR   C06616523  34.538  44.946   0.201
    1STR   H06716524  34.548  44.838   0.187
    1STR   H06816525  34.523  44.990   0.103
    1STR   O06916526  34.656  44.999   0.262
    1STR   C07016527  34.777  44.974   0.192
    1STR   H07116528  34.780  44.870   0.157
    1STR   C07216529  34.791  45.070   0.073
    1STR   H07316530  34.784  45.174   0.106
    1STR   H07416531  34.714  45.054  60.158
    1STR   H07516532  34.887  45.058   0.024
    1STR   C07616533  34.893  44.992   0.292
    1STR   H07716534  34.895  45.095   0.329
    1STR   H07816535  34.875  44.928   0.379
    1STR   O07916536  35.016  44.958   0.229
    1STR   C08016537  35.132  44.975   0.311
    1STR   H08116538  35.126  45.069   0.366
    1STR   C08216539  35.145  44.857   0.408
    1STR   H08316540  35.146  44.762   0.354
    1STR   H08416541  35.064  44.854   0.480
    1STR   H08516542  35.238  44.864   0.465
    1STR   C08616543  35.253  44.984   0.216
    1STR   H08716544  35.263  44.891   0.160
    1STR   H08816545  35.236  45.063   0.144
    1STR   O08916546  35.371  45.010   0.292
    1STR   C09016547  35.492  45.016   0.217
    1STR   H09116548  35.494  44.935   0.144
    1STR   C09216549  35.502  45.152   0.146
    1STR   H09316550  35.495  45.234   0.218
    1STR   H09416551  35.425  45.166   0.071
    1STR   H09516552  35.598  45.161   0.095
    1STR   C09616553  35.608  44.994   0.315
    1STR   H09716554  35.609  45.074   0.389
    1STR   H09816555  35.592  44.901   0.369
    1STR   O09916556  35.731  44.990   0.243
    1STR   C10016557  35.848  44.975   0.323
    1STR   H10116558  35.842  45.038   0.411
    1STR   C10216559  35.863  44.828   0.365
    1STR   H10316560  35.864  44.762   0.278
    1STR   H10416561  35.782  44.795   0.431
    1STR   H10516562  35.956  44.812   0.419
    1STR   C10616563  35.967  45.022   0.239
    1STR   H10716564  35.977  44.959   0.150
    1STR   H10816565  35.949  45.123   0.204
    1STR   O10916566  36.086  45.017   0.318
    1STR   C11016567  36.205  45.055   0.250
    1STR   H11116568  36.208  45.010   0.150
    1STR   C11216569  36.214  45.208   0.240
    1STR   H11316570  36.207  45.254   0.338
    1STR   H11416571  36.135  45.249   0.177
    1STR   H11516572  36.309  45.238   0.196
    1STR   C11616573  36.323  44.997   0.330
    1STR   H11716574  36.325  45.041   0.430
    1STR   H11816575  36.309  44.890   0.342
    1STR   O11916576  36.445  45.024   0.261
    1STR   C12016577  36.563  44.979   0.327
    1STR   H12116578  36.558  45.002   0.434
    1STR   C12216579  36.580  44.828   0.307
    1STR   H12316580  36.581  44.802   0.201
    1STR   H12416581  36.501  44.771   0.355
    1STR   H12516582  36.675  44.794   0.350
    1STR   C12616583  36.681  45.058   0.268
    1STR   H12716584  36.691  45.036   0.161
    1STR   H12816585  36.661  45.165   0.277
    1STR   O12916586  36.801  45.024   0.337
    1STR   C13016587  36.919  45.087   0.289
    1STR   H13116588  36.920  45.086   0.180
    1STR   C13216589  36.925  45.231   0.341
    1STR   H13316590  36.919  45.235   0.450
    1STR   H13416591  36.845  45.293   0.301
    1STR   H13516592  37.020  45.278   0.312
    1STR   C13616593  37.038  45.004   0.339
    1STR   H13716594  37.041  45.004   0.448
    1STR   H13816595  37.025  44.901   0.307
    1STR   O13916596  37.159  45.058   0.286
    1STR   C14016597  37.278  44.992   0.327
    1STR   H14116598  37.274  44.971   0.434
    1STR   C14216599  37.297  44.862   0.248
    1STR   H14316600  37.296  44.881   0.140
    1STR   H14416601  37.219  44.789   0.269
    1STR   H14516602  37.392  44.815   0.273
    1STR   C14616603  37.395  45.090   0.303
    1STR   H14716604  37.403  45.112   0.197
    1STR   H14816605  37.374  45.184   0.354
    1STR   O14916606  37.516  45.032   0.352
    1STR   C15016607  37.633  45.111   0.332
    1STR   H15116608  37.633  45.154   0.232
    1STR   C15216609  37.639  45.223   0.437
    1STR   H15316610  37.634  45.182   0.538
    1STR   H15416611  37.558  45.294   0.426
    1STR   H15516612  37.732  45.279   0.428
    1STR   C15616613  37.753  45.016   0.343
    1STR   H15716614  37.758  44.973   0.443
    1STR   H15816615  37.741  44.934   0.273
    1STR   O15916616  37.873  45.089   0.315
    1STR   C16016617  37.993  45.014   0.326
    1STR   H16116618  37.991  44.951   0.415
    1STR   C16216619  38.012  44.926   0.201
    1STR   H16316620  38.010  44.986   0.110
    1STR   H16416621  37.935  44.850   0.192
    1STR   H16516622  38.108  44.874   0.204
    1STR   C16616623  38.109  45.114   0.341
    1STR   H16716624  38.115  45.177   0.253
    1STR   H16816625  38.087  45.179   0.426
    1STR   O16916626  38.231  45.043   0.362
    1STR   C17016627  38.347  45.125   0.374
    1STR   H17116628  38.345  45.204   0.299
    1STR   C17216629  38.353  45.186   0.516
    1STR   H17316630  38.350  45.108   0.592
    1STR   H17416631  38.271  45.255   0.535
    1STR   H17516632  38.446  45.242   0.529
    1STR   C17616633  38.468  45.036   0.346
    1STR   H17716634  38.474  44.956   0.420
    1STR   H17816635  38.456  44.988   0.249
    1STR   O17916636  38.587  45.115   0.348
    1STR   C18016637  38.708  45.044   0.327
    1STR   H18116638  38.707  44.951   0.384
    1STR   C18216639  38.726  45.013   0.177
    1STR   H18316640  38.722  45.105   0.118
    1STR   H18416641  38.649  44.946   0.139
    1STR   H18516642  38.822  44.966   0.158
    1STR   C18616643  38.823  45.131   0.380
    1STR   H18716644  38.827  45.225   0.324
    1STR   H18816645  38.802  45.157   0.484
    1STR   O18916646  38.945  45.060   0.370
    1STR   C19016647  39.061  45.131   0.413
    1STR   H19116648  39.057  45.234   0.375
    1STR   C19216649  39.069  45.131   0.566
    1STR   H19316650  39.068  45.029   0.605
    1STR   H19416651  38.986  45.185   0.612
    1STR   H19516652  39.161  45.178   0.600
    1STR   C19616653  39.183  45.063   0.350
    1STR   H19716654  39.191  44.960   0.386
    1STR   H19816655  39.170  45.058   0.242
    1STR   O19916656  39.301  45.137   0.382
    1STR   C20016657  39.422  45.081   0.333
    1STR   H20116658  39.423  44.973   0.348
    1STR   C20216659  39.438  45.114   0.183
    1STR   H20316660  39.433  45.222   0.166
    1STR   H20416661  39.362  45.066   0.122
    1STR   H20516662  39.535  45.080   0.146
    1STR   C20616663  39.537  45.142   0.416
    1STR   H20716664  39.540  45.250   0.402
    1STR   H20816665  39.517  45.123   0.522
    1STR   O20916666  39.660  45.082   0.377
    1STR   C21016667  39.776  45.132   0.444
    1STR   H21116668  39.771  45.241   0.451
    1STR   C21216669  39.786  45.070   0.584
    1STR   H21316670  39.786  44.961   0.579
    1STR   H21416671  39.703  45.101   0.649
    1STR   H21516672  39.878  45.101   0.633
    1STR   C21616673  39.898  45.096   0.358
    1STR   H21716674  39.907  44.988   0.349
    1STR   H21816675  39.883  45.135   0.257
    1STR   O21916676  40.015  45.152   0.416
    1STR   C22016677  40.137  45.123   0.347
    1STR   H22116678  40.139  45.018   0.318
    1STR   C22216679  40.150  45.213   0.223
    1STR   H22316680  40.143  45.318   0.250
    1STR   H22416681  40.073  45.192   0.149
    1STR   H22516682  40.246  45.198   0.175
    1STR   C22616683  40.252  45.147   0.446
    1STR   H22716684  40.254  45.251   0.477
    1STR   H22816685  40.234  45.087   0.536
    1STR   O22916686  40.375  45.110   0.386
    1STR   C23016687  40.491  45.130   0.466
    1STR   H23116688  40.485  45.227   0.516
    1STR   C23216689  40.503  45.018   0.570
    1STR   H23316690  40.505  44.920   0.522
    1STR   H23416691  40.422  45.019   0.642
    1STR   H23516692  40.596  45.028   0.627
    1STR   C23616693  40.612  45.133   0.372
    1STR   H23716694  40.622  45.037   0.321
    1STR   H23816695  40.596  45.209   0.295
    1STR   O23916696  40.730  45.163   0.446
    1STR   C24016697  40.851  45.165   0.371
    1STR   H24116698  40.854  45.081   0.302
    1STR   C24216699  40.862  45.297   0.293
    1STR   H24316700  40.854  45.383   0.360
    1STR   H24416701  40.784  45.307   0.217
    1STR   H24516702  40.957  45.304   0.241
    1STR   C24616703  40.968  45.149   0.470
    1STR   H24716704  40.969  45.233   0.540
    1STR   H24816705  40.952  45.059   0.529
    1STR   O24916706  41.091  45.142   0.398
    1STR   C25016707  41.208  45.130   0.479
    1STR   H25116708  41.202  45.198   0.564
    1STR   C25216709  41.222  44.985   0.529
    1STR   H25316710  41.223  44.915   0.446
    1STR   H25416711  41.141  44.957   0.597
    1STR   H25516712  41.315  44.973   0.584
    1STR   C25616713  41.328  45.172   0.393
    1STR   H25716714  41.338  45.104   0.308
    1STR   H25816715  41.310  45.272   0.353
    1STR   O25916716  41.447  45.171   0.472
    1STR   C26016717  41.567  45.205   0.403
    1STR   H26116718  41.569  45.155   0.306
    1STR   C26216719  41.574  45.357   0.385
    1STR   H26316720  41.566  45.409   0.480
    1STR   H26416721  41.496  45.395   0.319
    1STR   H26516722  41.669  45.386   0.339
    1STR   C26616723  41.685  45.153   0.486
    1STR   H26716724  41.686  45.201   0.584
    1STR   H26816725  41.671  45.046   0.504
    1STR   O26916726  41.808  45.176   0.417
    1STR   C27016727  41.926  45.134   0.485
    1STR   H27116728  41.921  45.163   0.591
    1STR   C27216729  41.942  44.982   0.473
    1STR   H27316730  41.941  44.951   0.369
    1STR   H27416731  41.862  44.928   0.524
    1STR   H27516732  42.036  44.949   0.517
    1STR   C27616733  42.046  45.208   0.422
    1STR   H27716734  42.055  45.181   0.317
    1STR   H27816735  42.027  45.315   0.426
    1STR   O27916736  42.166  45.176   0.493
    1STR   C28016737  42.285  45.237   0.442
    1STR   H28116738  42.287  45.231   0.333
    1STR   C28216739  42.290  45.385   0.486
    1STR   H28316740  42.282  45.394   0.594
    1STR   H28416741  42.210  45.444   0.441
    1STR   H28516742  42.384  45.431   0.456
    1STR   C28616743  42.406  45.159   0.497
    1STR   H28716744  42.408  45.164   0.606
    1STR   H28816745  42.394  45.054   0.470
    1STR   O28916746  42.528  45.211   0.442
    1STR   C29016747  42.648  45.147   0.486
    1STR   H29116748  42.645  45.131   0.594
    1STR   C29216749  42.664  45.012   0.414
    1STR   H29316750  42.661  45.024   0.306
    1STR   H29416751  42.586  44.941   0.441
    1STR   H29516752  42.759  44.965   0.440
    1STR   C29616753  42.767  45.240   0.456
    1STR   H29716754  42.773  45.259   0.348
    1STR   H29816755  42.748  45.337   0.503
    1STR   O29916756  42.890  45.185   0.503
    1STR   C30016757  43.007  45.264   0.478
    1STR   H30116758  43.004  45.303   0.377
    1STR   C30216759  43.013  45.379   0.580
    1STR   H30316760  43.008  45.342   0.682
    1STR   H30416761  42.932  45.450   0.565
    1STR   H30516762  43.107  45.435   0.569
    1STR   C30616763  43.132  45.173   0.490
    1STR   H30716764  43.142  45.136   0.592
    1STR   H30816765  43.116  45.086   0.426
    1STR   O30916766  43.251  45.242   0.450
    1STR    H1R16767  43.378  45.118   0.555
    1STR    H1S16768  43.475  45.012   0.344
    1STR    H1T16769  43.366  45.110   0.248
    1STR    H1U16770  43.302  44.986   0.356
    1STR    H1V16771  43.479  45.350   0.513
    1STR    H1W16772  43.503  45.305   0.347
    1STR    H1X16773  43.786  45.095   0.567
    1STR    H1Y16774  43.922  44.905   0.578
    1STR    H1Z16775  44.120  44.785   0.501
    1STR    H2016776  44.309  44.862   0.192
    1STR    H2116777  44.369  44.838   0.357
    1STR    H2216778  44.244  44.733   0.291
    1STR    H2316779  44.172  45.149   0.112
    1STR    H2716780  43.993  45.211   0.283
    1STR    H2816781  31.445  44.786   0.356
    1STR    H2916782  31.222  44.766   0.436
    1STR    H2A16783  30.950  44.983   0.358
    1STR    H2B16784  31.002  44.845   0.453
    1STR    H2C16785  30.929  44.819   0.295
    1STR   BCK116786  30.948  45.059  15.014
    1STR    O0316787  30.893  45.158  14.968
    1STR    N0416788  31.076  45.024  14.991
    1STR    C0516789  31.165  45.069  14.891
    1STR    C0616790  31.303  45.092  14.920
    1STR    C0716791  31.398  45.127  14.819
    1STR    N0816792  31.536  45.143  14.848
    1STR    C0916793  31.642  45.149  14.765
    1STR    O0A16794  31.635  45.138  14.643
    1STR    O0B16795  31.761  45.168  14.830
    1STR    C0C16796  31.883  45.187  14.754
    1STR    C0D16797  31.895  45.335  14.715
    1STR    C0E16798  32.010  45.140  14.831
    1STR    O0F16799  32.128  45.160  14.752
    1STR    C0G16800  32.252  45.114  14.809
    1STR    C0H16801  32.262  44.961  14.794
    1STR    C0I16802  32.372  45.183  14.739
    1STR    O0J16803  32.496  45.143  14.800
    1STR    C0K16804  43.376  44.783  14.747
    1STR    C0M16805  43.376  44.936  14.754
    1STR    C0N16806  43.494  44.726  14.830
    1STR    O0O16807  43.620  44.761  14.771
    1STR    C0P16808  43.724  44.807  14.845
    1STR    O0Q16809  43.723  44.831  14.965
    1STR    N0R16810  43.827  44.828  14.763
    1STR    C0S16811  43.954  44.885  14.777
    1STR    C0T16812  44.016  44.924  14.657
    1STR    C0U16813  44.138  44.992  14.657
    1STR    C0V16814  44.206  45.018  14.778
    1STR    C0W16815  44.329  45.107  14.769
    1STR    C0X16816  44.154  44.968  14.901
    1STR    N0Y16817  44.226  44.983  15.021
    1STR   BCK216818  44.357  44.959  15.043
    1STR    O1016819  44.432  44.912  14.958
    1STR    C1316820  44.025  44.907  14.899
    1STR    C1416821  31.349  45.143  14.687
    1STR    C1516822  31.214  45.118  14.656
    1STR    C1616823  31.123  45.078  14.755
    1STR    C1716824  30.983  45.039  14.709
    1STR    H1B16825  31.110  44.951  15.051
    1STR    H1C16826  31.337  45.082  15.022
    1STR    H1D16827  31.563  45.151  14.945
    1STR    H1E16828  31.879  45.128  14.663
    1STR    H1F16829  31.902  45.400  14.803
    1STR    H1G16830  31.984  45.352  14.654
    1STR    H1H16831  31.809  45.368  14.656
    1STR    H1I16832  31.998  45.034  14.856
    1STR    H1J16833  32.019  45.194  14.925
    1STR    H1K16834  32.256  45.142  14.915
    1STR    H1M16835  32.255  44.932  14.690
    1STR    H1N16836  32.184  44.909  14.849
    1STR    H1O16837  32.358  44.925  14.832
    1STR    H1P16838  32.373  45.157  14.633
    1STR    H1Q16839  32.360  45.291  14.745
    1STR   C01016840  32.616  45.194  14.742
    1STR   H01116841  32.612  45.185  14.634
    1STR   C01216842  32.635  45.341  14.782
    1STR   H01316843  32.635  45.353  14.890
    1STR   H01416844  32.557  45.405  14.740
    1STR   H01516845  32.730  45.379  14.744
    1STR   C01616846  32.735  45.108  14.792
    1STR   H01716847  32.742  45.114  14.901
    1STR   H01816848  32.717  45.004  14.767
    1STR   O01916849  32.859  45.152  14.734
    1STR   C02016850  32.976  45.082  14.776
    1STR   H02116851  32.974  45.068  14.884
    1STR   C02216852  32.984  44.946  14.706
    1STR   H02316853  32.982  44.957  14.598
    1STR   H02416854  32.903  44.880  14.735
    1STR   H02516855  33.077  44.895  14.732
    1STR   C02616856  33.100  45.169  14.743
    1STR   H02716857  33.106  45.185  14.635
    1STR   H02816858  33.089  45.267  14.789
    1STR   O02916859  33.219  45.105  14.790
    1STR   C03016860  33.342  45.172  14.762
    1STR   H03116861  33.341  45.208  14.658
    1STR   C03216862  33.360  45.291  14.858
    1STR   H03316863  33.356  45.257  14.962
    1STR   H03416864  33.284  45.367  14.845
    1STR   H03516865  33.457  45.338  14.842
    1STR   C03616866  33.457  45.071  14.776
    1STR   H03716867  33.462  45.034  14.878
    1STR   H03816868  33.438  44.986  14.711
    1STR   O03916869  33.581  45.133  14.740
    1STR   C04016870  33.697  45.051  14.753
    1STR   H04116871  33.694  44.995  14.847
    1STR   C04216872  33.706  44.954  14.634
    1STR   H04316873  33.705  45.007  14.539
    1STR   H04416874  33.624  44.882  14.633
    1STR   H04516875  33.798  44.896  14.639
    1STR   C04616876  33.821  45.143  14.758
    1STR   H04716877  33.828  45.200  14.665
    1STR   H04816878  33.808  45.215  14.839
    1STR   O04916879  33.939  45.066  14.779
    1STR   C05016880  34.061  45.139  14.782
    1STR   H05116881  34.062  45.213  14.702
    1STR   C05216882  34.077  45.209  14.918
    1STR   H05316883  34.071  45.137  15.000
    1STR   H05416884  34.001  45.285  14.935
    1STR   H05516885  34.173  45.259  14.925
    1STR   C05616886  34.176  45.040  14.756
    1STR   H05716887  34.179  44.965  14.836
    1STR   H05816888  34.157  44.987  14.663
    1STR   O05916889  34.300  45.111  14.750
    1STR   C06016890  34.415  45.030  14.730
    1STR   H06116891  34.410  44.941  14.793
    1STR   C06216892  34.426  44.989  14.582
    1STR   H06316893  34.427  45.077  14.517
    1STR   H06416894  34.344  44.925  14.551
    1STR   H06516895  34.518  44.934  14.564
    1STR   C06616896  34.538  45.112  14.774
    1STR   H06716897  34.547  45.202  14.712
    1STR   H06816898  34.523  45.146  14.877
    1STR   O06916899  34.655  45.032  14.765
    1STR   C07016900  34.777  45.098  14.799
    1STR   H07116901  34.779  45.198  14.755
    1STR   C07216902  34.790  45.107  14.952
    1STR   H07316903  34.783  45.009  14.998
    1STR   H07416904  34.713  45.170  14.996
    1STR   H07516905  34.887  45.150  14.980
    1STR   C07616906  34.892  45.017  14.738
    1STR   H07716907  34.894  44.917  14.780
    1STR   H07816908  34.875  45.006  14.631
    1STR   O07916909  35.016  45.084  14.762
    1STR   C08016910  35.132  45.017  14.713
    1STR   H08116911  35.126  44.910  14.736
    1STR   C08216912  35.145  45.039  14.561
    1STR   H08316913  35.146  45.145  14.537
    1STR   H08416914  35.064  44.992  14.506
    1STR   H08516915  35.238  44.995  14.524
    1STR   C08616916  35.253  45.075  14.788
    1STR   H08716917  35.263  45.181  14.767
    1STR   H08816918  35.236  45.065  14.896
    1STR   O08916919  35.371  45.004  14.750
    1STR   C09016920  35.491  45.050  14.810
    1STR   H09116921  35.494  45.159  14.809
    1STR   C09216922  35.502  44.997  14.954
    1STR   H09316923  35.495  44.889  14.956
    1STR   H09416924  35.424  45.038  15.018
    1STR   H09516925  35.598  45.025  14.998
    1STR   C09616926  35.608  45.000  14.723
    1STR   H09716927  35.609  44.891  14.722
    1STR   H09816928  35.592  45.032  14.620
    1STR   O09916929  35.731  45.052  14.773
    1STR   C10016930  35.847  45.009  14.704
    1STR   H10116931  35.842  44.902  14.682
    1STR   C10216932  35.863  45.089  14.574
    1STR   H10316933  35.864  45.196  14.593
    1STR   H10416934  35.782  45.069  14.503
    1STR   H10516935  35.956  45.064  14.523
    1STR   C10616936  35.967  45.031  14.798
    1STR   H10716937  35.977  45.137  14.821
    1STR   H10816938  35.948  44.980  14.892
    1STR   O10916939  36.086  44.981  14.736
    1STR   C11016940  36.205  44.999  14.812
    1STR   H11116941  36.208  45.099  14.855
    1STR   C11216942  36.214  44.893  14.923
    1STR   H11316943  36.207  44.793  14.881
    1STR   H11416944  36.135  44.905  14.997
    1STR   H11516945  36.308  44.901  14.976
    1STR   C11616946  36.323  44.987  14.714
    1STR   H11716947  36.325  44.888  14.669
    1STR   H11816948  36.309  45.058  14.632
    1STR   O11916949  36.445  45.014  14.783
    1STR   C12016950  36.563  45.003  14.704
    1STR   H12116951  36.558  44.914  14.641
    1STR   C12216952  36.580  45.128  14.617
    1STR   H12316953  36.581  45.218  14.678
    1STR   H12416954  36.501  45.138  14.543
    1STR   H12516955  36.675  45.124  14.562
    1STR   C12616956  36.681  44.985  14.801
    1STR   H12716957  36.691  45.073  14.864
    1STR   H12816958  36.661  44.900  14.866
    1STR   O12916959  36.801  44.963  14.726
    1STR   C13016960  36.919  44.949  14.804
    1STR   H13116961  36.920  45.023  14.884
    1STR   C13216962  36.926  44.807  14.864
    1STR   H13316963  36.919  44.732  14.786
    1STR   H13416964  36.846  44.789  14.935
    1STR   H13516965  37.020  44.792  14.917
    1STR   C13616966  37.038  44.977  14.712
    1STR   H13716967  37.041  44.903  14.631
    1STR   H13816968  37.025  45.074  14.665
    1STR   O13916969  37.159  44.973  14.788
    1STR   C14016970  37.278  44.993  14.712
    1STR   H14116971  37.274  44.937  14.619
    1STR   C14216972  37.297  45.143  14.683
    1STR   H14316973  37.296  45.202  14.775
    1STR   H14416974  37.219  45.182  14.618
    1STR   H14516975  37.392  45.161  14.633
    1STR   C14616976  37.395  44.938  14.796
    1STR   H14716977  37.403  44.993  14.890
    1STR   H14816978  37.374  44.834  14.822
    1STR   O14916979  37.516  44.947  14.721
    1STR   C15016980  37.633  44.903  14.789
    1STR   H15116981  37.633  44.939  14.892
    1STR   C15216982  37.639  44.749  14.787
    1STR   H15316983  37.634  44.711  14.685
    1STR   H15416984  37.558  44.704  14.844
    1STR   H15516985  37.732  44.714  14.831
    1STR   C15616986  37.753  44.965  14.717
    1STR   H15716987  37.758  44.929  14.614
    1STR   H15816988  37.741  45.073  14.713
    1STR   O15916989  37.873  44.931  14.787
    1STR   C16016990  37.993  44.979  14.728
    1STR   H16116991  37.991  44.964  14.620
    1STR   C16216992  38.012  45.128  14.761
    1STR   H16316993  38.010  45.144  14.869
    1STR   H16416994  37.935  45.190  14.716
    1STR   H16516995  38.108  45.164  14.724
    1STR   C16616996  38.109  44.894  14.784
    1STR   H16716997  38.115  44.907  14.892
    1STR   H16816998  38.087  44.789  14.766
    1STR   O16916999  38.231  44.932  14.721
    1STR   C17017000  38.347  44.863  14.767
    1STR   H17117001  38.345  44.856  14.876
    1STR   C17217002  38.353  44.723  14.704
    1STR   H17317003  38.350  44.729  14.596
    1STR   H17417004  38.271  44.660  14.737
    1STR   H17517005  38.446  44.673  14.732
    1STR   C17617006  38.468  44.948  14.728
    1STR   H17717007  38.474  44.957  14.619
    1STR   H17817008  38.456  45.049  14.768
    1STR   O17917009  38.587  44.889  14.781
    1STR   C18017010  38.708  44.956  14.748
    1STR   H18117011  38.707  44.986  14.643
    1STR   C18217012  38.726  45.079  14.838
    1STR   H18317013  38.722  45.052  14.943
    1STR   H18417014  38.649  45.155  14.820
    1STR   H18517015  38.822  45.127  14.820
    1STR   C18617016  38.823  44.855  14.767
    1STR   H18717017  38.827  44.824  14.872
    1STR   H18817018  38.802  44.766  14.708
    1STR   O18917019  38.945  44.915  14.727
    1STR   C19017020  39.061  44.833  14.744
    1STR   H19117021  39.057  44.782  14.840
    1STR   C19217022  39.069  44.730  14.630
    1STR   H19317023  39.068  44.778  14.533
    1STR   H19417024  38.986  44.658  14.633
    1STR   H19517025  39.161  44.672  14.637
    1STR   C19617026  39.183  44.926  14.743
    1STR   H19717027  39.191  44.977  14.647
    1STR   H19817028  39.170  45.003  14.820
    1STR   O19917029  39.301  44.850  14.770
    1STR   C20017030  39.422  44.924  14.768
    1STR   H20117031  39.423  44.993  14.684
    1STR   C20217032  39.438  45.001  14.901
    1STR   H20317033  39.433  44.933  14.986
    1STR   H20417034  39.362  45.077  14.913
    1STR   H20517035  39.535  45.051  14.904
    1STR   C20617036  39.537  44.823  14.748
    1STR   H20717037  39.540  44.753  14.831
    1STR   H20817038  39.517  44.765  14.658
    1STR   O20917039  39.660  44.894  14.736
    1STR   C21017040  39.776  44.811  14.721
    1STR   H21117041  39.771  44.726  14.789
    1STR   C21217042  39.786  44.762  14.576
    1STR   H21317043  39.786  44.846  14.506
    1STR   H21417044  39.703  44.696  14.549
    1STR   H21517045  39.878  44.706  14.560
    1STR   C21617046  39.898  44.896  14.760
    1STR   H21717047  39.907  44.981  14.693
    1STR   H21817048  39.883  44.936  14.860
    1STR   O21917049  40.015  44.815  14.755
    1STR   C22017050  40.137  44.883  14.786
    1STR   H22117051  40.139  44.981  14.737
    1STR   C22217052  40.150  44.900  14.938
    1STR   H22317053  40.143  44.804  14.989
    1STR   H22417054  40.073  44.966  14.979
    1STR   H22517055  40.246  44.945  14.964
    1STR   C22617056  40.252  44.799  14.729
    1STR   H22717057  40.254  44.701  14.777
    1STR   H22817058  40.234  44.782  14.623
    1STR   O22917059  40.375  44.867  14.749
    1STR   C23017060  40.491  44.797  14.703
    1STR   H23117061  40.485  44.692  14.732
    1STR   C23217062  40.504  44.811  14.551
    1STR   H23317063  40.505  44.915  14.520
    1STR   H23417064  40.422  44.761  14.498
    1STR   H23517065  40.596  44.765  14.516
    1STR   C23617066  40.613  44.859  14.775
    1STR   H23717067  40.623  44.964  14.748
    1STR   H23817068  40.596  44.855  14.883
    1STR   O23917069  40.731  44.786  14.740
    1STR   C24017070  40.852  44.836  14.797
    1STR   H24117071  40.854  44.945  14.791
    1STR   C24217072  40.862  44.791  14.944
    1STR   H24317073  40.854  44.682  14.952
    1STR   H24417074  40.784  44.835  15.006
    1STR   H24517075  40.958  44.820  14.986
    1STR   C24617076  40.968  44.781  14.713
    1STR   H24717077  40.969  44.672  14.718
    1STR   H24817078  40.952  44.808  14.609
    1STR   O24917079  41.091  44.835  14.761
    1STR   C25017080  41.208  44.789  14.693
    1STR   H25117081  41.202  44.681  14.677
    1STR   C25217082  41.222  44.862  14.559
    1STR   H25317083  41.223  44.970  14.572
    1STR   H25417084  41.142  44.837  14.490
    1STR   H25517085  41.316  44.834  14.509
    1STR   C25617086  41.329  44.816  14.785
    1STR   H25717087  41.339  44.924  14.802
    1STR   H25817088  41.311  44.770  14.882
    1STR   O25917089  41.448  44.764  14.725
    1STR   C26017090  41.568  44.785  14.800
    1STR   H26117091  41.570  44.888  14.838
    1STR   C26217092  41.575  44.686  14.917
    1STR   H26317093  41.567  44.583  14.881
    1STR   H26417094  41.496  44.702  14.990
    1STR   H26517095  41.670  44.695  14.969
    1STR   C26617096  41.686  44.768  14.703
    1STR   H26717097  41.687  44.666  14.664
    1STR   H26817098  41.673  44.834  14.618
    1STR   O26917099  41.809  44.797  14.771
    1STR   C27017100  41.927  44.782  14.692
    1STR   H27117101  41.922  44.689  14.634
    1STR   C27217102  41.943  44.902  14.598
    1STR   H27317103  41.943  44.996  14.654
    1STR   H27417104  41.863  44.907  14.523
    1STR   H27517105  42.037  44.896  14.543
    1STR   C27617106  42.047  44.770  14.788
    1STR   H27717107  42.056  44.861  14.847
    1STR   H27817108  42.028  44.688  14.858
    1STR   O27917109  42.168  44.746  14.715
    1STR   C28017110  42.287  44.735  14.793
    1STR   H28117111  42.289  44.813  14.869
    1STR   C28217112  42.292  44.597  14.860
    1STR   H28317113  42.283  44.517  14.787
    1STR   H28417114  42.212  44.583  14.933
    1STR   H28517115  42.386  44.583  14.914
    1STR   C28617116  42.408  44.756  14.700
    1STR   H28717117  42.410  44.679  14.623
    1STR   H28817118  42.396  44.851  14.649
    1STR   O28917119  42.530  44.754  14.775
    1STR   C29017120  42.650  44.772  14.699
    1STR   H29117121  42.647  44.710  14.609
    1STR   C29217122  42.666  44.920  14.661
    1STR   H29317123  42.663  44.984  14.750
    1STR   H29417124  42.587  44.954  14.593
    1STR   H29517125  42.761  44.937  14.611
    1STR   C29617126  42.770  44.724  14.785
    1STR   H29717127  42.775  44.783  14.876
    1STR   H29817128  42.751  44.621  14.815
    1STR   O29917129  42.893  44.733  14.713
    1STR   C30017130  43.010  44.692  14.785
    1STR   H30117131  43.006  44.731  14.886
    1STR   C30217132  43.017  44.538  14.788
    1STR   H30317133  43.011  44.497  14.687
    1STR   H30417134  42.935  44.495  14.846
    1STR   H30517135  43.110  44.504  14.833
    1STR   C30617136  43.136  44.752  14.717
    1STR   H30717137  43.149  44.708  14.618
    1STR   H30817138  43.118  44.858  14.703
    1STR   O30917139  43.253  44.730  14.798
    1STR    H1R17140  43.389  44.750  14.643
    1STR    H1S17141  43.472  44.977  14.723
    1STR    H1T17142  43.357  44.970  14.856
    1STR    H1U17143  43.301  44.981  14.689
    1STR    H1V17144  43.488  44.617  14.833
    1STR    H1W17145  43.487  44.760  14.934
    1STR    H1X17146  43.802  44.799  14.670
    1STR    H1Y17147  43.967  44.907  14.562
    1STR    H1Z17148  44.181  45.025  14.564
    1STR    H2017149  44.345  45.162  14.861
    1STR    H2117150  44.418  45.046  14.749
    1STR    H2217151  44.319  45.180  14.689
    1STR    H2317152  44.173  45.010  15.103
    1STR    H2717153  43.980  44.873  14.992
    1STR    H2817154  31.412  45.173  14.605
    1STR    H2917155  31.182  45.128  14.554
    1STR    H2A17156  30.944  44.956  14.768
    1STR    H2B17157  30.984  45.008  14.605
    1STR    H2C17158  30.916  45.124  14.719
    1STR   BCK117159  30.947  45.076  30.221
    1STR    O0317160  30.921  45.084  30.341
    1STR    N0417161  31.060  45.124  30.166
    1STR    C0517162  31.159  45.204  30.227
    1STR    C0617163  31.298  45.172  30.218
    1STR    C0717164  31.400  45.254  30.277
    1STR    N0817165  31.537  45.222  30.264
    1STR    C0917166  31.645  45.271  30.330
    1STR    O0A17167  31.638  45.352  30.423
    1STR    O0B17168  31.764  45.222  30.284
    1STR    C0C17169  31.888  45.261  30.348
    1STR    C0D17170  31.907  45.177  30.476
    1STR    C0E17171  32.011  45.247  30.255
    1STR    O0F17172  32.131  45.286  30.323
    1STR    C0G17173  32.253  45.281  30.248
    1STR    C0H17174  32.262  45.403  30.155
    1STR    C0I17175  32.374  45.278  30.345
    1STR    O0J17176  32.497  45.265  30.272
    1STR    C0K17177  43.374  45.558  30.083
    1STR    C0M17178  43.366  45.440  30.181
    1STR    C0N17179  43.500  45.541  29.993
    1STR    O0O17180  43.618  45.563  30.071
    1STR    C0P17181  43.721  45.475  30.075
    1STR    O0Q17182  43.728  45.368  30.016
    1STR    N0R17183  43.815  45.527  30.154
    1STR    C0S17184  43.942  45.487  30.199
    1STR    C0T17185  44.004  45.577  30.287
    1STR    C0U17186  44.132  45.552  30.338
    1STR    C0V17187  44.203  45.436  30.301
    1STR    C0W17188  44.343  45.425  30.358
    1STR    C0X17189  44.145  45.341  30.212
    1STR    N0Y17190  44.213  45.231  30.155
    1STR   BCK217191  44.320  45.150  30.170
    1STR    O1017192  44.350  45.082  30.073
    1STR    C1317193  44.013  45.369  30.163
    1STR    C1417194  31.357  45.370  30.346
    1STR    C1517195  31.221  45.405  30.352
    1STR    C1617196  31.122  45.325  30.291
    1STR    C1717197  30.980  45.378  30.292
    1STR    H1B17198  31.073  45.100  30.069
    1STR    H1C17199  31.327  45.082  30.165
    1STR    H1D17200  31.564  45.151  30.198
    1STR    H1E17201  31.881  45.366  30.377
    1STR    H1F17202  31.915  45.071  30.453
    1STR    H1G17203  31.998  45.207  30.528
    1STR    H1H17204  31.824  45.191  30.545
    1STR    H1I17205  31.995  45.310  30.167
    1STR    H1J17206  32.020  45.145  30.219
    1STR    H1K17207  32.256  45.189  30.189
    1STR    H1M17208  32.257  45.496  30.211
    1STR    H1N17209  32.183  45.404  30.080
    1STR    H1O17210  32.357  45.403  30.101
    1STR    H1P17211  32.376  45.369  30.405
    1STR    H1Q17212  32.363  45.194  30.414
    1STR   C01017213  32.618  45.267  30.349
    1STR   H01117214  32.614  45.347  30.423
    1STR   C01217215  32.637  45.131  30.420
    1STR   H01317216  32.637  45.049  30.348
    1STR   H01417217  32.559  45.112  30.493
    1STR   H01517218  32.732  45.129  30.472
    1STR   C01617219  32.737  45.296  30.254
    1STR   H01717220  32.743  45.218  30.178
    1STR   H01817221  32.718  45.390  30.202
    1STR   O01917222  32.860  45.303  30.327
    1STR   C02017223  32.978  45.326  30.249
    1STR   H02117224  32.975  45.263  30.160
    1STR   C02217225  32.985  45.474  30.208
    1STR   H02317226  32.983  45.539  30.296
    1STR   H02417227  32.904  45.503  30.142
    1STR   H02517228  33.078  45.494  30.155
    1STR   C02617229  33.101  45.285  30.332
    1STR   H02717230  33.107  45.346  30.422
    1STR   H02817231  33.090  45.182  30.364
    1STR   O02917232  33.220  45.300  30.254
    1STR   C03017233  33.343  45.269  30.321
    1STR   H03117234  33.342  45.312  30.421
    1STR   C03217235  33.361  45.117  30.329
    1STR   H03317236  33.357  45.071  30.230
    1STR   H03417237  33.285  45.069  30.391
    1STR   H03517238  33.458  45.092  30.373
    1STR   C03617239  33.458  45.334  30.242
    1STR   H03717240  33.463  45.293  30.141
    1STR   H03817241  33.439  45.441  30.232
    1STR   O03917242  33.582  45.313  30.310
    1STR   C04017243  33.698  45.365  30.245
    1STR   H04117244  33.694  45.343  30.138
    1STR   C04217245  33.707  45.517  30.267
    1STR   H04317246  33.706  45.541  30.374
    1STR   H04417247  33.625  45.570  30.220
    1STR   H04517248  33.799  45.557  30.225
    1STR   C04617249  33.821  45.293  30.304
    1STR   H04717250  33.829  45.314  30.411
    1STR   H04817251  33.808  45.185  30.293
    1STR   O04917252  33.939  45.336  30.236
    1STR   C05017253  34.061  45.280  30.283
    1STR   H05117254  34.062  45.279  30.392
    1STR   C05217255  34.077  45.136  30.230
    1STR   H05317256  34.072  45.134  30.121
    1STR   H05417257  34.001  45.069  30.269
    1STR   H05517258  34.174  45.095  30.259
    1STR   C05617259  34.176  45.370  30.235
    1STR   H05717260  34.179  45.372  30.126
    1STR   H05817261  34.157  45.472  30.269
    1STR   O05917262  34.300  45.323  30.288
    1STR   C06017263  34.416  45.396  30.248
    1STR   H06117264  34.411  45.418  30.141
    1STR   C06217265  34.426  45.526  30.329
    1STR   H06317266  34.427  45.505  30.436
    1STR   H06417267  34.344  45.594  30.308
    1STR   H06517268  34.519  45.579  30.305
    1STR   C06617269  34.538  45.305  30.271
    1STR   H06717270  34.547  45.281  30.377
    1STR   H06817271  34.523  45.211  30.218
    1STR   O06917272  34.656  45.371  30.223
    1STR   C07017273  34.777  45.299  30.243
    1STR   H07117274  34.779  45.255  30.343
    1STR   C07217275  34.790  45.189  30.136
    1STR   H07317276  34.784  45.230  30.036
    1STR   H07417277  34.714  45.112  30.146
    1STR   H07517278  34.887  45.139  30.145
    1STR   C07617279  34.892  45.400  30.233
    1STR   H07717280  34.894  45.445  30.134
    1STR   H07817281  34.875  45.481  30.305
    1STR   O07917282  35.016  45.335  30.261
    1STR   C08017283  35.132  45.417  30.252
    1STR   H08117284  35.126  45.480  30.163
    1STR   C08217285  35.145  45.504  30.378
    1STR   H08317286  35.146  45.442  30.468
    1STR   H08417287  35.064  45.575  30.387
    1STR   H08517288  35.238  45.561  30.376
    1STR   C08617289  35.253  45.324  30.235
    1STR   H08717290  35.263  45.260  30.323
    1STR   H08817291  35.236  45.258  30.149
    1STR   O08917292  35.371  45.402  30.215
    1STR   C09017293  35.492  45.327  30.203
    1STR   H09117294  35.494  45.247  30.277
    1STR   C09217295  35.502  45.269  30.061
    1STR   H09317296  35.495  45.347  29.986
    1STR   H09417297  35.425  45.195  30.041
    1STR   H09517298  35.598  45.218  30.047
    1STR   C09617299  35.608  45.423  30.233
    1STR   H09717300  35.609  45.504  30.160
    1STR   H09817301  35.592  45.468  30.331
    1STR   O09917302  35.731  45.351  30.231
    1STR   C10017303  35.848  45.429  30.253
    1STR   H10117304  35.842  45.523  30.197
    1STR   C10217305  35.863  45.458  30.403
    1STR   H10317306  35.864  45.366  30.461
    1STR   H10417307  35.782  45.520  30.442
    1STR   H10517308  35.956  45.511  30.423
    1STR   C10617309  35.967  45.349  30.199
    1STR   H10717310  35.977  45.255  30.254
    1STR   H10817311  35.948  45.323  30.095
    1STR   O10917312  36.086  45.428  30.210
    1STR   C11017313  36.205  45.363  30.167
    1STR   H11117314  36.208  45.260  30.202
    1STR   C11217315  36.213  45.367  30.013
    1STR   H11317316  36.206  45.469  29.976
    1STR   H11417317  36.135  45.308  29.967
    1STR   H11517318  36.308  45.325  29.979
    1STR   C11617319  36.323  45.438  30.231
    1STR   H11717320  36.325  45.542  30.196
    1STR   H11817321  36.309  45.441  30.339
    1STR   O11917322  36.445  45.372  30.198
    1STR   C12017323  36.563  45.434  30.249
    1STR   H12117324  36.558  45.542  30.235
    1STR   C12217325  36.580  45.400  30.398
    1STR   H12317326  36.581  45.292  30.414
    1STR   H12417327  36.501  45.443  30.459
    1STR   H12517328  36.675  45.440  30.435
    1STR   C12617329  36.681  45.381  30.165
    1STR   H12717330  36.691  45.273  30.178
    1STR   H12817331  36.661  45.400  30.060
    1STR   O12917332  36.801  45.448  30.205
    1STR   C13017333  36.919  45.405  30.138
    1STR   H13117334  36.920  45.297  30.130
    1STR   C13217335  36.926  45.470  29.999
    1STR   H13317336  36.919  45.578  30.005
    1STR   H13417337  36.845  45.435  29.934
    1STR   H13517338  37.020  45.445  29.949
    1STR   C13617339  37.038  45.448  30.225
    1STR   H13717340  37.041  45.556  30.235
    1STR   H13817341  37.025  45.407  30.325
    1STR   O13917342  37.159  45.399  30.167
    1STR   C14017343  37.278  45.435  30.236
    1STR   H14117344  37.274  45.540  30.267
    1STR   C14217345  37.297  45.344  30.359
    1STR   H14317346  37.296  45.239  30.331
    1STR   H14417347  37.219  45.359  30.433
    1STR   H14517348  37.392  45.365  30.408
    1STR   C14617349  37.395  45.419  30.137
    1STR   H14717350  37.403  45.315  30.105
    1STR   H14817351  37.374  45.479  30.048
    1STR   O14917352  37.516  45.463  30.199
    1STR   C15017353  37.633  45.450  30.118
    1STR   H15117354  37.633  45.354  30.067
    1STR   C15217355  37.639  45.565  30.016
    1STR   H15317356  37.634  45.662  30.065
    1STR   H15417357  37.558  45.560  29.944
    1STR   H15517358  37.732  45.561  29.960
    1STR   C15617359  37.753  45.453  30.213
    1STR   H15717360  37.758  45.549  30.265
    1STR   H15817361  37.741  45.376  30.289
    1STR   O15917362  37.873  45.431  30.139
    1STR   C16017363  37.993  45.435  30.215
    1STR   H16117364  37.991  45.519  30.285
    1STR   C16217365  38.012  45.303  30.291
    1STR   H16317366  38.010  45.218  30.223
    1STR   H16417367  37.935  45.287  30.366
    1STR   H16517368  38.108  45.301  30.343
    1STR   C16617369  38.109  45.459  30.116
    1STR   H16717370  38.115  45.377  30.045
    1STR   H16817371  38.087  45.549  30.058
    1STR   O16917372  38.231  45.474  30.188
    1STR   C17017373  38.347  45.493  30.108
    1STR   H17117374  38.345  45.426  30.022
    1STR   C17217375  38.353  45.639  30.060
    1STR   H17317376  38.350  45.709  30.144
    1STR   H17417377  38.271  45.664  29.993
    1STR   H17517378  38.446  45.658  30.005
    1STR   C17617379  38.469  45.457  30.194
    1STR   H17717380  38.474  45.524  30.280
    1STR   H17817381  38.456  45.356  30.233
    1STR   O17917382  38.587  45.466  30.115
    1STR   C18017383  38.708  45.438  30.185
    1STR   H18117384  38.707  45.487  30.282
    1STR   C18217385  38.726  45.287  30.201
    1STR   H18317386  38.722  45.236  30.105
    1STR   H18417387  38.649  45.243  30.265
    1STR   H18517388  38.822  45.264  30.247
    1STR   C18617389  38.823  45.499  30.102
    1STR   H18717390  38.827  45.452  30.004
    1STR   H18817391  38.802  45.605  30.085
    1STR   O18917392  38.945  45.483  30.172
    1STR   C19017393  39.061  45.532  30.105
    1STR   H19117394  39.057  45.504  29.999
    1STR   C19217395  39.069  45.685  30.119
    1STR   H19317396  39.068  45.715  30.224
    1STR   H19417397  38.986  45.735  30.068
    1STR   H19517398  39.161  45.723  30.075
    1STR   C19617399  39.183  45.463  30.168
    1STR   H19717400  39.191  45.490  30.273
    1STR   H19817401  39.170  45.355  30.163
    1STR   O19917402  39.301  45.502  30.097
    1STR   C20017403  39.422  45.448  30.148
    1STR   H20117404  39.423  45.454  30.257
    1STR   C20217405  39.438  45.302  30.102
    1STR   H20317406  39.433  45.294  29.994
    1STR   H20417407  39.362  45.237  30.145
    1STR   H20517408  39.535  45.262  30.133
    1STR   C20617409  39.537  45.536  30.095
    1STR   H20717410  39.540  45.532  29.986
    1STR   H20817411  39.517  45.640  30.122
    1STR   O20917412  39.660  45.492  30.151
    1STR   C21017413  39.776  45.563  30.107
    1STR   H21117414  39.771  45.580  29.999
    1STR   C21217415  39.786  45.697  30.180
    1STR   H21317416  39.786  45.683  30.288
    1STR   H21417417  39.703  45.764  30.156
    1STR   H21517418  39.878  45.749  30.154
    1STR   C21617419  39.898  45.474  30.135
    1STR   H21717420  39.907  45.457  30.242
    1STR   H21817421  39.883  45.377  30.088
    1STR   O21917422  40.015  45.537  30.084
    1STR   C22017423  40.137  45.466  30.107
    1STR   H22117424  40.139  45.428  30.209
    1STR   C22217425  40.150  45.351  30.007
    1STR   H22317426  40.143  45.387  29.904
    1STR   H22417427  40.073  45.275  30.021
    1STR   H22517428  40.246  45.301  30.018
    1STR   C22617429  40.252  45.567  30.092
    1STR   H22717430  40.254  45.607  29.991
    1STR   H22817431  40.234  45.651  30.160
    1STR   O22917432  40.376  45.503  30.124
    1STR   C23017433  40.491  45.585  30.110
    1STR   H23117434  40.486  45.644  30.018
    1STR   C23217435  40.504  45.679  30.231
    1STR   H23317436  40.505  45.623  30.325
    1STR   H23417437  40.422  45.751  30.236
    1STR   H23517438  40.596  45.736  30.226
    1STR   C23617439  40.613  45.492  30.099
    1STR   H23717440  40.623  45.432  30.190
    1STR   H23817441  40.596  45.422  30.017
    1STR   O23917442  40.731  45.569  30.076
    1STR   C24017443  40.852  45.494  30.067
    1STR   H24117444  40.855  45.417  30.145
    1STR   C24217445  40.862  45.428  29.928
    1STR   H24317446  40.854  45.502  29.849
    1STR   H24417447  40.784  45.353  29.912
    1STR   H24517448  40.958  45.377  29.917
    1STR   C24617449  40.968  45.591  30.092
    1STR   H24717450  40.970  45.668  30.015
    1STR   H24817451  40.953  45.641  30.187
    1STR   O24917452  41.092  45.519  30.093
    1STR   C25017453  41.208  45.598  30.112
    1STR   H25117454  41.203  45.689  30.051
    1STR   C25217455  41.223  45.635  30.261
    1STR   H25317456  41.223  45.546  30.323
    1STR   H25417457  41.142  45.700  30.295
    1STR   H25517458  41.316  45.689  30.278
    1STR   C25617459  41.329  45.516  30.063
    1STR   H25717460  41.339  45.425  30.122
    1STR   H25817461  41.311  45.486  29.960
    1STR   O25917462  41.448  45.595  30.071
    1STR   C26017463  41.568  45.529  30.031
    1STR   H26117464  41.571  45.428  30.072
    1STR   C26217465  41.575  45.524  29.878
    1STR   H26317466  41.567  45.624  29.834
    1STR   H26417467  41.497  45.462  29.834
    1STR   H26517468  41.670  45.482  29.845
    1STR   C26617469  41.687  45.607  30.090
    1STR   H26717470  41.688  45.709  30.051
    1STR   H26817471  41.673  45.615  30.198
    1STR   O26917472  41.810  45.541  30.060
    1STR   C27017473  41.928  45.605  30.108
    1STR   H27117474  41.923  45.712  30.089
    1STR   C27217475  41.943  45.579  30.259
    1STR   H27317476  41.943  45.472  30.281
    1STR   H27417477  41.864  45.626  30.317
    1STR   H27517478  42.038  45.620  30.296
    1STR   C27617479  42.048  45.548  30.029
    1STR   H27717480  42.057  45.441  30.047
    1STR   H27817481  42.029  45.562  29.923
    1STR   O27917482  42.169  45.615  30.068
    1STR   C28017483  42.288  45.571  30.002
    1STR   H28117484  42.290  45.462  29.998
    1STR   C28217485  42.292  45.628  29.859
    1STR   H28317486  42.284  45.736  29.860
    1STR   H28417487  42.213  45.588  29.796
    1STR   H28517488  42.386  45.602  29.810
    1STR   C28617489  42.409  45.618  30.084
    1STR   H28717490  42.411  45.727  30.089
    1STR   H28817491  42.398  45.582  30.186
    1STR   O28917492  42.531  45.569  30.027
    1STR   C29017493  42.652  45.607  30.095
    1STR   H29117494  42.649  45.713  30.120
    1STR   C29217495  42.667  45.523  30.223
    1STR   H29317496  42.664  45.416  30.201
    1STR   H29417497  42.590  45.545  30.296
    1STR   H29517498  42.763  45.544  30.271
    1STR   C29617499  42.771  45.584  29.999
    1STR   H29717500  42.776  45.479  29.971
    1STR   H29817501  42.753  45.640  29.907
    1STR   O29917502  42.894  45.625  30.059
    1STR   C30017503  43.012  45.606  29.979
    1STR   H30117504  43.008  45.508  29.931
    1STR   C30217505  43.020  45.717  29.873
    1STR   H30317506  43.016  45.815  29.919
    1STR   H30417507  42.940  45.710  29.800
    1STR   H30517508  43.114  45.710  29.818
    1STR   C30617509  43.136  45.606  30.072
    1STR   H30717510  43.150  45.706  30.115
    1STR   H30817511  43.115  45.539  30.155
    1STR   O30917512  43.255  45.564  30.003
    1STR    H1R17513  43.384  45.652  30.138
    1STR    H1S17514  43.460  45.429  30.236
    1STR    H1T17515  43.348  45.346  30.128
    1STR    H1U17516  43.288  45.452  30.256
    1STR    H1V17517  43.498  45.616  29.914
    1STR    H1W17518  43.500  45.444  29.943
    1STR    H1X17519  43.782  45.616  30.188
    1STR    H1Y17520  43.955  45.669  30.316
    1STR    H1Z17521  44.176  45.624  30.404
    1STR    H2017522  44.343  45.350  30.437
    1STR    H2117523  44.414  45.400  30.280
    1STR    H2217524  44.376  45.518  30.403
    1STR    H2317525  44.169  45.200  30.070
    1STR    H2717526  43.966  45.301  30.094
    1STR    H2817527  31.426  45.437  30.393
    1STR    H2917528  31.194  45.495  30.404
    1STR    H2A17529  30.930  45.356  30.198
    1STR    H2B17530  30.978  45.486  30.306
    1STR    H2C17531  30.923  45.333  30.374
    1STR   BCK117532  30.941  45.001  45.151
    1STR    O0317533  30.915  44.979  45.033
    1STR    N0417534  31.064  44.985  45.205
    1STR    C0517535  31.166  44.903  45.153
    1STR    C0617536  31.300  44.949  45.137
    1STR    C0717537  31.404  44.862  45.091
    1STR    N0817538  31.539  44.905  45.080
    1STR    C0917539  31.651  44.830  45.071
    1STR    O0A17540  31.653  44.707  45.076
    1STR    O0B17541  31.765  44.904  45.055
    1STR    C0C17542  31.891  44.837  45.027
    1STR    C0D17543  31.903  44.815  44.875
    1STR    C0E17544  32.014  44.913  45.082
    1STR    O0F17545  32.134  44.838  45.055
    1STR    C0G17546  32.256  44.891  45.106
    1STR    C0H17547  32.266  44.862  45.257
    1STR    C0I17548  32.376  44.827  45.032
    1STR    O0J17549  32.499  44.885  45.077
    1STR    C0K17550  43.367  44.783  45.437
    1STR    C0M17551  43.373  44.812  45.286
    1STR    C0N17552  43.487  44.849  45.509
    1STR    O0O17553  43.608  44.780  45.476
    1STR    C0P17554  43.718  44.846  45.434
    1STR    O0Q17555  43.727  44.968  45.418
    1STR    N0R17556  43.814  44.757  45.409
    1STR    C0S17557  43.942  44.770  45.353
    1STR    C0T17558  43.998  44.653  45.297
    1STR    C0U17559  44.120  44.658  45.229
    1STR    C0V17560  44.192  44.779  45.217
    1STR    C0W17561  44.312  44.780  45.124
    1STR    C0X17562  44.145  44.895  45.284
    1STR    N0Y17563  44.213  45.017  45.277
    1STR   BCK217564  44.340  45.053  45.300
    1STR    O1017565  44.374  45.168  45.278
    1STR    C1317566  44.018  44.890  45.347
    1STR    C1417567  31.367  44.730  45.056
    1STR    C1517568  31.236  44.683  45.075
    1STR    C1617569  31.137  44.767  45.127
    1STR    C1717570  31.001  44.705  45.159
    1STR    H1B17571  31.077  45.024  45.297
    1STR    H1C17572  31.324  45.052  45.161
    1STR    H1D17573  31.558  45.003  45.080
    1STR    H1E17574  31.891  44.740  45.076
    1STR    H1F17575  31.905  44.909  44.821
    1STR    H1G17576  31.994  44.760  44.851
    1STR    H1H17577  31.819  44.756  44.837
    1STR    H1I17578  32.001  44.928  45.189
    1STR    H1J17579  32.021  45.012  45.037
    1STR    H1K17580  32.260  44.999  45.089
    1STR    H1M17581  32.259  44.755  45.277
    1STR    H1N17582  32.188  44.912  45.314
    1STR    H1O17583  32.361  44.897  45.297
    1STR    H1P17584  32.377  44.719  45.048
    1STR    H1Q17585  32.364  44.842  44.925
    1STR   C01017586  32.619  44.831  45.021
    1STR   H01117587  32.615  44.722  45.021
    1STR   C01217588  32.638  44.882  44.877
    1STR   H01317589  32.638  44.991  44.874
    1STR   H01417590  32.560  44.847  44.810
    1STR   H01517591  32.734  44.848  44.836
    1STR   C01617592  32.738  44.873  45.110
    1STR   H01717593  32.745  44.982  45.114
    1STR   H01817594  32.719  44.839  45.212
    1STR   O01917595  32.861  44.818  45.062
    1STR   C02017596  32.979  44.854  45.135
    1STR   H02117597  32.976  44.960  45.158
    1STR   C02217598  32.986  44.772  45.265
    1STR   H02317599  32.984  44.665  45.244
    1STR   H02417600  32.905  44.795  45.333
    1STR   H02517601  33.079  44.793  45.318
    1STR   C02617602  33.102  44.828  45.046
    1STR   H02717603  33.108  44.722  45.021
    1STR   H02817604  33.090  44.882  44.952
    1STR   O02917605  33.221  44.870  45.113
    1STR   C03017606  33.343  44.847  45.043
    1STR   H03117607  33.343  44.748  44.999
    1STR   C03217608  33.361  44.954  44.934
    1STR   H03317609  33.358  45.054  44.976
    1STR   H03417610  33.285  44.947  44.857
    1STR   H03517611  33.458  44.943  44.885
    1STR   C03617612  33.459  44.853  45.145
    1STR   H03717613  33.463  44.951  45.192
    1STR   H03817614  33.439  44.781  45.225
    1STR   O03917615  33.582  44.822  45.081
    1STR   C04017616  33.698  44.828  45.164
    1STR   H04117617  33.695  44.916  45.227
    1STR   C04217618  33.707  44.701  45.250
    1STR   H04317619  33.706  44.611  45.188
    1STR   H04417620  33.625  44.694  45.321
    1STR   H04517621  33.799  44.700  45.308
    1STR   C04617622  33.821  44.841  45.072
    1STR   H04717623  33.829  44.754  45.007
    1STR   H04817624  33.808  44.928  45.007
    1STR   O04917625  33.939  44.856  45.151
    1STR   C05017626  34.061  44.865  45.078
    1STR   H05117627  34.063  44.792  44.997
    1STR   C05217628  34.077  45.007  45.021
    1STR   H05317629  34.072  45.082  45.100
    1STR   H05417630  34.001  45.030  44.947
    1STR   H05517631  34.174  45.018  44.972
    1STR   C05617632  34.176  44.831  45.174
    1STR   H05717633  34.179  44.903  45.256
    1STR   H05817634  34.158  44.733  45.219
    1STR   O05917635  34.300  44.830  45.103
    1STR   C06017636  34.416  44.804  45.182
    1STR   H06117637  34.411  44.859  45.276
    1STR   C06217638  34.426  44.653  45.210
    1STR   H06317639  34.427  44.595  45.118
    1STR   H06417640  34.344  44.616  45.272
    1STR   H06517641  34.519  44.630  45.264
    1STR   C06617642  34.538  44.855  45.104
    1STR   H06717643  34.547  44.800  45.010
    1STR   H06817644  34.523  44.960  45.079
    1STR   O06917645  34.656  44.838  45.184
    1STR   C07017646  34.777  44.878  45.121
    1STR   H07117647  34.780  44.843  45.017
    1STR   C07217648  34.790  45.031  45.125
    1STR   H07317649  34.784  45.069  45.227
    1STR   H07417650  34.714  45.081  45.066
    1STR   H07517651  34.887  45.063  45.085
    1STR   C07617652  34.892  44.810  45.196
    1STR   H07717653  34.894  44.844  45.300
    1STR   H07817654  34.875  44.702  45.198
    1STR   O07917655  35.016  44.840  45.131
    1STR   C08017656  35.132  44.785  45.194
    1STR   H08117657  35.126  44.798  45.302
    1STR   C08217658  35.145  44.636  45.159
    1STR   H08317659  35.146  44.621  45.052
    1STR   H08417660  35.064  44.577  45.201
    1STR   H08517661  35.238  44.595  45.200
    1STR   C08617662  35.253  44.865  45.143
    1STR   H08717663  35.263  44.853  45.035
    1STR   H08817664  35.236  44.971  45.162
    1STR   O08917665  35.371  44.821  45.210
    1STR   C09017666  35.491  44.885  45.169
    1STR   H09117667  35.494  44.894  45.061
    1STR   C09217668  35.502  45.023  45.235
    1STR   H09317669  35.495  45.016  45.343
    1STR   H09417670  35.424  45.091  45.200
    1STR   H09517671  35.598  45.070  45.211
    1STR   C09617672  35.608  44.794  45.212
    1STR   H09717673  35.609  44.783  45.321
    1STR   H09817674  35.592  44.694  45.170
    1STR   O09917675  35.731  44.848  45.165
    1STR   C10017676  35.848  44.775  45.201
    1STR   H10117677  35.842  44.744  45.305
    1STR   C10217678  35.863  44.652  45.110
    1STR   H10317679  35.864  44.681  45.005
    1STR   H10417680  35.782  44.581  45.124
    1STR   H10517681  35.956  44.600  45.131
    1STR   C10617682  35.967  44.871  45.187
    1STR   H10717683  35.977  44.903  45.083
    1STR   H10817684  35.948  44.960  45.246
    1STR   O10917685  36.086  44.805  45.231
    1STR   C11017686  36.205  44.882  45.220
    1STR   H11117687  36.208  44.934  45.124
    1STR   C11217688  36.213  44.983  45.336
    1STR   H11317689  36.206  44.933  45.432
    1STR   H11417690  36.135  45.058  45.331
    1STR   H11517691  36.308  45.037  45.333
    1STR   C11617692  36.323  44.783  45.223
    1STR   H11717693  36.325  44.730  45.319
    1STR   H11817694  36.309  44.708  45.145
    1STR   O11917695  36.445  44.854  45.203
    1STR   C12017696  36.563  44.775  45.208
    1STR   H12117697  36.558  44.704  45.291
    1STR   C12217698  36.580  44.699  45.075
    1STR   H12317699  36.581  44.767  44.990
    1STR   H12417700  36.501  44.626  45.059
    1STR   H12517701  36.675  44.644  45.074
    1STR   C12617702  36.681  44.870  45.234
    1STR   H12717703  36.691  44.941  45.151
    1STR   H12817704  36.661  44.928  45.324
    1STR   O12917705  36.801  44.794  45.249
    1STR   C13017706  36.919  44.870  45.270
    1STR   H13117707  36.920  44.956  45.203
    1STR   C13217708  36.926  44.917  45.416
    1STR   H13317709  36.919  44.832  45.485
    1STR   H13417710  36.845  44.986  45.441
    1STR   H13517711  37.020  44.969  45.436
    1STR   C13617712  37.038  44.780  45.234
    1STR   H13717713  37.041  44.694  45.300
    1STR   H13817714  37.025  44.743  45.133
    1STR   O13917715  37.159  44.856  45.244
    1STR   C14017716  37.278  44.783  45.217
    1STR   H14117717  37.274  44.685  45.265
    1STR   C14217718  37.297  44.767  45.065
    1STR   H14317719  37.296  44.864  45.015
    1STR   H14417720  37.219  44.705  45.021
    1STR   H14517721  37.392  44.718  45.043
    1STR   C14617722  37.395  44.861  45.280
    1STR   H14717723  37.403  44.959  45.233
    1STR   H14817724  37.374  44.877  45.386
    1STR   O14917725  37.516  44.787  45.264
    1STR   C15017726  37.633  44.851  45.315
    1STR   H15117727  37.633  44.956  45.287
    1STR   C15217728  37.639  44.835  45.467
    1STR   H15317729  37.634  44.730  45.496
    1STR   H15417730  37.558  44.888  45.517
    1STR   H15517731  37.732  44.876  45.506
    1STR   C15617732  37.753  44.784  45.247
    1STR   H15717733  37.758  44.679  45.273
    1STR   H15817734  37.741  44.790  45.138
    1STR   O15917735  37.873  44.851  45.287
    1STR   C16017736  37.993  44.797  45.234
    1STR   H16117737  37.991  44.688  45.238
    1STR   C16217738  38.012  44.843  45.088
    1STR   H16317739  38.010  44.952  45.081
    1STR   H16417740  37.935  44.803  45.022
    1STR   H16517741  38.108  44.809  45.049
    1STR   C16617742  38.109  44.845  45.323
    1STR   H16717743  38.115  44.954  45.319
    1STR   H16817744  38.087  44.818  45.426
    1STR   O16917745  38.231  44.786  45.279
    1STR   C17017746  38.346  44.826  45.352
    1STR   H17117747  38.345  44.934  45.369
    1STR   C17217748  38.353  44.751  45.486
    1STR   H17317749  38.350  44.643  45.471
    1STR   H17417750  38.271  44.778  45.552
    1STR   H17517751  38.446  44.774  45.539
    1STR   C17617752  38.468  44.794  45.264
    1STR   H17717753  38.474  44.687  45.246
    1STR   H17817754  38.456  44.842  45.167
    1STR   O17917755  38.587  44.841  45.328
    1STR   C18017756  38.708  44.815  45.258
    1STR   H18117757  38.707  44.713  45.219
    1STR   C18217758  38.726  44.915  45.143
    1STR   H18317759  38.722  45.018  45.180
    1STR   H18417760  38.649  44.904  45.067
    1STR   H18517761  38.822  44.901  45.094
    1STR   C18617762  38.822  44.825  45.360
    1STR   H18717763  38.827  44.927  45.400
    1STR   H18817764  38.802  44.759  45.444
    1STR   O18917765  38.945  44.790  45.297
    1STR   C19017766  39.061  44.800  45.380
    1STR   H19117767  39.057  44.892  45.439
    1STR   C19217768  39.069  44.678  45.473
    1STR   H19317769  39.068  44.585  45.417
    1STR   H19417770  38.986  44.675  45.544
    1STR   H19517771  39.161  44.680  45.532
    1STR   C19617772  39.183  44.808  45.288
    1STR   H19717773  39.191  44.716  45.228
    1STR   H19817774  39.170  44.890  45.218
    1STR   O19917775  39.301  44.827  45.366
    1STR   C20017776  39.422  44.832  45.292
    1STR   H20117777  39.423  44.755  45.215
    1STR   C20217778  39.438  44.971  45.227
    1STR   H20317779  39.433  45.050  45.302
    1STR   H20417780  39.362  44.990  45.152
    1STR   H20517781  39.535  44.979  45.177
    1STR   C20617782  39.537  44.803  45.390
    1STR   H20717783  39.540  44.880  45.468
    1STR   H20817784  39.517  44.708  45.440
    1STR   O20917785  39.660  44.798  45.319
    1STR   C21017786  39.776  44.775  45.400
    1STR   H21117787  39.771  44.836  45.490
    1STR   C21217788  39.786  44.626  45.436
    1STR   H21317789  39.786  44.564  45.347
    1STR   H21417790  39.703  44.594  45.499
    1STR   H21517791  39.878  44.606  45.490
    1STR   C21617792  39.898  44.821  45.318
    1STR   H21717793  39.907  44.762  45.227
    1STR   H21817794  39.883  44.925  45.288
    1STR   O21917795  40.015  44.810  45.399
    1STR   C22017796  40.136  44.846  45.334
    1STR   H22117797  40.139  44.806  45.232
    1STR   C22217798  40.150  44.999  45.330
    1STR   H22317799  40.143  45.042  45.430
    1STR   H22417800  40.073  45.046  45.268
    1STR   H22517801  40.246  45.029  45.288
    1STR   C22617802  40.252  44.782  45.413
    1STR   H22717803  40.253  44.821  45.514
    1STR   H22817804  40.234  44.675  45.420
    1STR   O22917805  40.375  44.808  45.346
    1STR   C23017806  40.491  44.757  45.412
    1STR   H23117807  40.485  44.776  45.519
    1STR   C23217808  40.503  44.606  45.385
    1STR   H23317809  40.505  44.584  45.279
    1STR   H23417810  40.422  44.549  45.430
    1STR   H23517811  40.596  44.567  45.428
    1STR   C23617812  40.612  44.833  45.357
    1STR   H23717813  40.622  44.815  45.250
    1STR   H23817814  40.595  44.940  45.370
    1STR   O23917815  40.730  44.792  45.426
    1STR   C24017816  40.851  44.853  45.382
    1STR   H24117817  40.854  44.857  45.273
    1STR   C24217818  40.861  44.996  45.439
    1STR   H24317819  40.854  44.995  45.548
    1STR   H24417820  40.784  45.062  45.401
    1STR   H24517821  40.957  45.041  45.413
    1STR   C24617822  40.967  44.765  45.429
    1STR   H24717823  40.969  44.760  45.538
    1STR   H24817824  40.951  44.663  45.393
    1STR   O24917825  41.090  44.817  45.380
    1STR   C25017826  41.207  44.746  45.420
    1STR   H25117827  41.201  44.720  45.526
    1STR   C25217828  41.222  44.618  45.335
    1STR   H25317829  41.223  44.641  45.229
    1STR   H25417830  41.141  44.547  45.354
    1STR   H25517831  41.315  44.567  45.359
    1STR   C25617832  41.327  44.839  45.400
    1STR   H25717833  41.337  44.866  45.295
    1STR   H25817834  41.309  44.932  45.455
    1STR   O25917835  41.446  44.776  45.448
    1STR   C26017836  41.566  44.852  45.432
    1STR   H26117837  41.569  44.898  45.334
    1STR   C26217838  41.574  44.959  45.542
    1STR   H26317839  41.566  44.915  45.641
    1STR   H26417840  41.495  45.034  45.532
    1STR   H26517841  41.669  45.013  45.537
    1STR   C26617842  41.684  44.754  45.442
    1STR   H26717843  41.685  44.706  45.540
    1STR   H26817844  41.670  44.675  45.368
    1STR   O26917845  41.807  44.823  45.418
    1STR   C27017846  41.925  44.743  45.426
    1STR   H27117847  41.919  44.677  45.513
    1STR   C27217848  41.941  44.660  45.298
    1STR   H27317849  41.941  44.724  45.210
    1STR   H27417850  41.861  44.587  45.286
    1STR   H27517851  42.035  44.605  45.299
    1STR   C27617852  42.044  44.839  45.447
    1STR   H27717853  42.053  44.906  45.361
    1STR   H27817854  42.025  44.901  45.534
    1STR   O27917855  42.164  44.763  45.465
    1STR   C28017856  42.283  44.841  45.482
    1STR   H28117857  42.285  44.923  45.411
    1STR   C28217858  42.289  44.895  45.626
    1STR   H28317859  42.281  44.815  45.699
    1STR   H28417860  42.209  44.967  45.646
    1STR   H28517861  42.383  44.947  45.644
    1STR   C28617862  42.404  44.749  45.453
    1STR   H28717863  42.405  44.666  45.523
    1STR   H28817864  42.391  44.707  45.353
    1STR   O28917865  42.525  44.824  45.460
    1STR   C29017866  42.645  44.750  45.437
    1STR   H29117867  42.641  44.655  45.490
    1STR   C29217868  42.662  44.725  45.286
    1STR   H29317869  42.660  44.819  45.230
    1STR   H29417870  42.584  44.661  45.246
    1STR   H29517871  42.757  44.677  45.265
    1STR   C29617872  42.763  44.831  45.493
    1STR   H29717873  42.770  44.928  45.442
    1STR   H29817874  42.744  44.852  45.598
    1STR   O29917875  42.886  44.759  45.479
    1STR   C30017876  43.003  44.826  45.526
    1STR   H30117877  43.000  44.931  45.495
    1STR   C30217878  43.009  44.817  45.680
    1STR   H30317879  43.004  44.713  45.713
    1STR   H30417880  42.928  44.872  45.727
    1STR   H30517881  43.102  44.859  45.717
    1STR   C30617882  43.126  44.761  45.461
    1STR   H30717883  43.135  44.657  45.494
    1STR   H30817884  43.111  44.758  45.353
    1STR   O30917885  43.245  44.835  45.493
    1STR    H1R17886  43.372  44.675  45.455
    1STR    H1S17887  43.469  44.782  45.245
    1STR    H1T17888  43.361  44.919  45.267
    1STR    H1U17889  43.296  44.759  45.230
    1STR    H1V17890  43.474  44.841  45.617
    1STR    H1W17891  43.492  44.955  45.487
    1STR    H1X17892  43.782  44.665  45.429
    1STR    H1Y17893  43.945  44.559  45.301
    1STR    H1Z17894  44.158  44.569  45.182
    1STR    H2017895  44.327  44.879  45.081
    1STR    H2117896  44.403  44.751  45.177
    1STR    H2217897  44.298  44.711  45.042
    1STR    H2317898  44.157  45.097  45.252
    1STR    H2717899  43.977  44.980  45.392
    1STR    H2817900  31.437  44.659  45.015
    1STR    H2917901  31.214  44.580  45.052
    1STR    H2A17902  30.962  44.745  45.252
    1STR    H2B17903  31.008  44.597  45.169
    1STR    H2C17904  30.930  44.727  45.079
    1STR   BCK117905  45.983   0.005   0.011
    1STR    O0317906  45.925   0.111   0.033
    1STR    N0417907  46.111  60.154  60.127
    1STR    C0517908  46.200   0.092  60.077
    1STR    C0617909  46.340   0.088  60.109
    1STR    C0717910  46.435   0.179  60.052
    1STR    N0817911  46.574   0.169  60.080
    1STR    C0917912  46.679   0.240  60.033
    1STR    O0A17913  46.670   0.335  59.956
    1STR    O0B17914  46.801   0.197  60.081
    1STR    C0C17915  46.922   0.268  60.045
    1STR    C0D17916  46.938   0.391  60.137
    1STR    C0E17917  47.049   0.178  60.051
    1STR    O0F17918  47.167   0.253  60.017
    1STR    C0G17919  47.291   0.180  60.015
    1STR    C0H17920  47.300   0.099  59.885
    1STR    C0I17921  47.411   0.278  60.026
    1STR    O0J17922  47.535   0.204  60.032
    1STR    C0K17923  58.421   0.032  59.726
    1STR    C0M17924  58.414   0.123  59.850
    1STR    C0N17925  58.541  60.094  59.739
    1STR    O0O17926  58.666   0.003  59.734
    1STR    C0P17927  58.765  60.143  59.825
    1STR    O0Q17928  58.759  60.073  59.925
    1STR    N0R17929  58.871   0.056  59.787
    1STR    C0S17930  58.997   0.084  59.841
    1STR    C0T17931  59.067   0.186  59.774
    1STR    C0U17932  59.190   0.233  59.821
    1STR    C0V17933  59.249   0.177  59.936
    1STR    C0W17934  59.373   0.247  59.989
    1STR    C0X17935  59.189   0.065  60.000
    1STR    N0Y17936  59.253   0.004  60.110
    1STR   BCK217937  59.383  60.127  60.119
    1STR    O1017938  59.460  60.128  60.024
    1STR    C1317939  59.060   0.022  59.954
    1STR    C1417940  46.384   0.278  59.965
    1STR    C1517941  46.249   0.283  59.931
    1STR    C1617942  46.157   0.189  59.982
    1STR    C1717943  46.016   0.195  59.926
    1STR    H1B17944  46.146  60.060  60.131
    1STR    H1C17945  46.375   0.012   0.017
    1STR    H1D17946  46.604   0.097  60.144
    1STR    H1E17947  46.913   0.303  59.942
    1STR    H1F17948  46.948   0.362   0.081
    1STR    H1G17949  47.026   0.449  60.109
    1STR    H1H17950  46.852   0.458  60.128
    1STR    H1I17951  47.036   0.095  59.982
    1STR    H1J17952  47.059   0.136  60.151
    1STR    H1K17953  47.295   0.113  60.101
    1STR    H1M17954  47.293   0.164  59.798
    1STR    H1N17955  47.222   0.024  59.877
    1STR    H1O17956  47.396   0.047  59.879
    1STR    H1P17957  47.412   0.346  59.941
    1STR    H1Q17958  47.400   0.339  60.116
    1STR   C01017959  47.656   0.281  60.037
    1STR   H01117960  47.651   0.362  59.964
    1STR   C01217961  47.674   0.340   0.018
    1STR   H01317962  47.674   0.261   0.094
    1STR   H01417963  47.597   0.412   0.044
    1STR   H01517964  47.770   0.392   0.025
    1STR   C01617965  47.775   0.190  60.000
    1STR   H01717966  47.781   0.107  60.070
    1STR   H01817967  47.756   0.146  59.902
    1STR   O01917968  47.898   0.263  59.999
    1STR   C02017969  48.016   0.187  59.970
    1STR   H02117970  48.014   0.092  60.025
    1STR   C02217971  48.024   0.159  59.819
    1STR   H02317972  48.022   0.252  59.762
    1STR   H02417973  47.942   0.096  59.784
    1STR   H02517974  48.117   0.107  59.794
    1STR   C02617975  48.140   0.266  60.018
    1STR   H02717976  48.146   0.361  59.965
    1STR   H02817977  48.128   0.289  60.124
    1STR   O02917978  48.259   0.189  59.996
    1STR   C03017979  48.382   0.253  60.032
    1STR   H03117980  48.381   0.357  59.998
    1STR   C03217981  48.400   0.248   0.025
    1STR   H03317982  48.396   0.146   0.061
    1STR   H03417983  48.324   0.306   0.077
    1STR   H03517984  48.497   0.290   0.053
    1STR   C03617985  48.497   0.180  59.960
    1STR   H03717986  48.501   0.076  59.992
    1STR   H03817987  48.478   0.180  59.853
    1STR   O03917988  48.621   0.246  59.988
    1STR   C04017989  48.737   0.186  59.931
    1STR   H04117990  48.733   0.078  59.943
    1STR   C04217991  48.746   0.221  59.781
    1STR   H04317992  48.745   0.329  59.766
    1STR   H04417993  48.664   0.178  59.724
    1STR   H04517994  48.838   0.182  59.738
    1STR   C04617995  48.861   0.238  60.007
    1STR   H04717996  48.868   0.346  59.996
    1STR   H04817997  48.847   0.218  60.113
    1STR   O04917998  48.979   0.174  59.958
    1STR   C05017999  49.101   0.216  60.019
    1STR   H05118000  49.102   0.325  60.028
    1STR   C05218001  49.117   0.151  60.157
    1STR   H05318002  49.111   0.042  60.149
    1STR   H05418003  49.041   0.184   0.067
    1STR   H05518004  49.213   0.176   0.040
    1STR   C05618005  49.216   0.177  59.924
    1STR   H05718006  49.219   0.068  59.913
    1STR   H05818007  49.197   0.219  59.826
    1STR   O05918008  49.340   0.225  59.976
    1STR   C06018009  49.455   0.191  59.900
    1STR   H06118010  49.450   0.087  59.868
    1STR   C06218011  49.466   0.283  59.778
    1STR   H06318012  49.467   0.388  59.807
    1STR   H06418013  49.384   0.269  59.708
    1STR   H06518014  49.558   0.264  59.723
    1STR   C06618015  49.578   0.206  59.992
    1STR   H06718016  49.587   0.310  60.025
    1STR   H06818017  49.563   0.145  60.082
    1STR   O06918018  49.695   0.165  59.923
    1STR   C07018019  49.817   0.178  59.996
    1STR   H07118020  49.819   0.273  60.049
    1STR   C07218021  49.830   0.062  60.097
    1STR   H07318022  49.823  60.126  60.046
    1STR   H07418023  49.753   0.065   0.014
    1STR   H07518024  49.927   0.066  60.147
    1STR   C07618025  49.932   0.177  59.895
    1STR   H07718026  49.934   0.082  59.841
    1STR   H07818027  49.915   0.255  59.821
    1STR   O07918028  50.056   0.199  59.962
    1STR   C08018029  50.172   0.197  59.880
    1STR   H08118030  50.166   0.114  59.809
    1STR   C08218031  50.185   0.330  59.804
    1STR   H08318032  50.186   0.414  59.873
    1STR   H08418033  50.104   0.346  59.734
    1STR   H08518034  50.278   0.333  59.747
    1STR   C08618035  50.293   0.172  59.971
    1STR   H08718036  50.303   0.254  60.042
    1STR   H08818037  50.276   0.081  60.029
    1STR   O08918038  50.411   0.159  59.891
    1STR   C09018039  50.531   0.140  59.965
    1STR   H09118040  50.534   0.207  60.051
    1STR   C09218041  50.542  60.154  60.010
    1STR   H09318042  50.535  60.085  59.925
    1STR   H09418043  50.464  60.127  60.081
    1STR   H09518044  50.638  60.135  60.059
    1STR   C09618045  50.648   0.178  59.872
    1STR   H09718046  50.649   0.113  59.785
    1STR   H09818047  50.632   0.280  59.835
    1STR   O09918048  50.771   0.170  59.944
    1STR   C10018049  50.887   0.199  59.868
    1STR   H10118050  50.882   0.152  59.769
    1STR   C10218051  50.903   0.351  59.852
    1STR   H10318052  50.904   0.401  59.949
    1STR   H10418053  50.822   0.395  59.793
    1STR   H10518054  50.996   0.375  59.801
    1STR   C10618055  51.007   0.138  59.942
    1STR   H10718056  51.017   0.184  60.041
    1STR   H10818057  50.988   0.032  59.958
    1STR   O10918058  51.126   0.157  59.865
    1STR   C11018059  51.245   0.108  59.925
    1STR   H11118060  51.248   0.134  60.031
    1STR   C11218061  51.254  60.115  59.909
    1STR   H11318062  51.247  60.087  59.804
    1STR   H11418063  51.175  60.063  59.963
    1STR   H11518064  51.349  60.077  59.947
    1STR   C11618065  51.363   0.178  59.856
    1STR   H11718066  51.365   0.153  59.750
    1STR   H11818067  51.349   0.286  59.863
    1STR   O11918068  51.485   0.140  59.919
    1STR   C12018069  51.603   0.195  59.862
    1STR   H12118070  51.598   0.191  59.753
    1STR   C12218071  51.620   0.341  59.909
    1STR   H12318072  51.621   0.347  60.018
    1STR   H12418073  51.541   0.406  59.872
    1STR   H12518074  51.715   0.382  59.873
    1STR   C12618075  51.721   0.108  59.907
    1STR   H12718076  51.731   0.111  60.016
    1STR   H12818077  51.701   0.004  59.880
    1STR   O12918078  51.841   0.154  59.844
    1STR   C13018079  51.959   0.083  59.881
    1STR   H13118080  51.960   0.065  59.989
    1STR   C13218081  51.966  60.110  59.805
    1STR   H13318082  51.959  60.125  59.697
    1STR   H13418083  51.885  60.042  59.833
    1STR   H13518084  52.060  60.058  59.825
    1STR   C13618085  52.078   0.173  59.846
    1STR   H13718086  52.081   0.192  59.739
    1STR   H13818087  52.065   0.270  59.896
    1STR   O13918088  52.199   0.111  59.890
    1STR   C14018089  52.318   0.183  59.860
    1STR   H14118090  52.314   0.223  59.759
    1STR   C14218091  52.337   0.297  59.961
    1STR   H14318092  52.336   0.260  60.063
    1STR   H14418093  52.259   0.373  59.953
    1STR   H14518094  52.432   0.348  59.945
    1STR   C14618095  52.435   0.083  59.867
    1STR   H14718096  52.443   0.042  59.968
    1STR   H14818097  52.414  60.159  59.800
    1STR   O14918098  52.556   0.148  59.829
    1STR   C15018099  52.673   0.067  59.835
    1STR   H15118100  52.673   0.007  59.926
    1STR   C15218101  52.679  60.135  59.711
    1STR   H15318102  52.674   0.033  59.619
    1STR   H15418103  52.598  60.063  59.710
    1STR   H15518104  52.772  60.079  59.710
    1STR   C15618105  52.794   0.162  59.840
    1STR   H15718106  52.798   0.222  59.749
    1STR   H15818107  52.781   0.230  59.924
    1STR   O15918108  52.913   0.085  59.856
    1STR   C16018109  53.033   0.161  59.858
    1STR   H16118110  53.031   0.239  59.781
    1STR   C16218111  53.052   0.226  59.996
    1STR   H16318112  53.050   0.151  60.075
    1STR   H16418113  52.975   0.300  60.018
    1STR   H16518114  53.148   0.277  60.002
    1STR   C16618115  53.149   0.065  59.825
    1STR   H16718116  53.155  60.148  59.901
    1STR   H16818117  53.127   0.016  59.730
    1STR   O16918118  53.271   0.139  59.817
    1STR   C17018119  53.387   0.060  59.790
    1STR   H17118120  53.385  60.129  59.850
    1STR   C17218121  53.393   0.025  59.641
    1STR   H17318122  53.390   0.115  59.579
    1STR   H17418123  53.311  60.120  59.610
    1STR   H17518124  53.486  60.132  59.618
    1STR   C17618125  53.508   0.143  59.834
    1STR   H17718126  53.514   0.235  59.775
    1STR   H17818127  53.496   0.173  59.938
    1STR   O17918128  53.627   0.065  59.818
    1STR   C18018129  53.748   0.132  59.852
    1STR   H18118130  53.747   0.234  59.812
    1STR   C18218131  53.766   0.135  60.004
    1STR   H18318132  53.762   0.035  60.047
    1STR   H18418133  53.689   0.196  60.053
    1STR   H18518134  53.862   0.179  60.031
    1STR   C18618135  53.863   0.055  59.784
    1STR   H18718136  53.867  60.113  59.823
    1STR   H18818137  53.842   0.048  59.677
    1STR   O18918138  53.986   0.124  59.806
    1STR   C19018139  54.101   0.060  59.752
    1STR   H19118140  54.097  60.113  59.770
    1STR   C19218141  54.109   0.088  59.601
    1STR   H19318142  54.108   0.195  59.580
    1STR   H19418143  54.026   0.042  59.546
    1STR   H19518144  54.201   0.047  59.559
    1STR   C19618145  54.223   0.117  59.825
    1STR   H19718146  54.231   0.225  59.808
    1STR   H19818147  54.210   0.103  59.933
    1STR   O19918148  54.341   0.050  59.781
    1STR   C20018149  54.462   0.096  59.839
    1STR   H20118150  54.463   0.205  59.843
    1STR   C20218151  54.478   0.038  59.980
    1STR   H20318152  54.473  60.089  59.979
    1STR   H20418153  54.402   0.074  60.049
    1STR   H20518154  54.575   0.065  60.023
    1STR   C20618155  54.577   0.051  59.747
    1STR   H20718156  54.580  60.102  59.741
    1STR   H20818157  54.558   0.088  59.646
    1STR   O20918158  54.700   0.103  59.796
    1STR   C21018159  54.816   0.065  59.721
    1STR   H21118160  54.811  60.119  59.695
    1STR   C21218161  54.826   0.151  59.593
    1STR   H21318162  54.826   0.257  59.617
    1STR   H21418163  54.743   0.132  59.525
    1STR   H21518164  54.918   0.129  59.540
    1STR   C21618165  54.938   0.086  59.812
    1STR   H21718166  54.947   0.191  59.839
    1STR   H21818167  54.923   0.031  59.904
    1STR   O21918168  55.055   0.041  59.745
    1STR   C22018169  55.177   0.058  59.817
    1STR   H22118170  55.179   0.156  59.865
    1STR   C22218171  55.190  60.107  59.924
    1STR   H22318172  55.183  60.008  59.879
    1STR   H22418173  55.113  60.115  60.001
    1STR   H22518174  55.286  60.114  59.974
    1STR   C22618175  55.292   0.052  59.716
    1STR   H22718176  55.294  60.114  59.667
    1STR   H22818177  55.275   0.126  59.638
    1STR   O22918178  55.416   0.077  59.782
    1STR   C23018179  55.532   0.071  59.699
    1STR   H23118180  55.526  60.144  59.633
    1STR   C23218181  55.544   0.200  59.617
    1STR   H23318182  55.545   0.288  59.681
    1STR   H23418183  55.462   0.211  59.546
    1STR   H23518184  55.637   0.200  59.559
    1STR   C23618185  55.653   0.052  59.791
    1STR   H23718186  55.663   0.137  59.859
    1STR   H23818187  55.637  60.124  59.854
    1STR   O23918188  55.771   0.035  59.713
    1STR   C24018189  55.892   0.020  59.787
    1STR   H24118190  55.895   0.091  59.870
    1STR   C24218191  55.902  60.036  59.840
    1STR   H24318192  55.894  59.963  59.759
    1STR   H24418193  55.825  60.013  59.913
    1STR   H24518194  55.998  60.020  59.890
    1STR   C24618195  56.009   0.053  59.692
    1STR   H24718196  56.010  60.143  59.608
    1STR   H24818197  55.993   0.152  59.650
    1STR   O24918198  56.132   0.048  59.764
    1STR   C25018199  56.249   0.074  59.686
    1STR   H25118200  56.243   0.021  59.591
    1STR   C25218201  56.263   0.225  59.662
    1STR   H25318202  56.264   0.280  59.756
    1STR   H25418203  56.182   0.264  59.601
    1STR   H25518204  56.356   0.247  59.610
    1STR   C25618205  56.370   0.018  59.764
    1STR   H25718206  56.380   0.069  59.859
    1STR   H25818207  56.352  60.072  59.785
    1STR   O25918208  56.489   0.033  59.686
    1STR   C26018209  56.609  60.147  59.748
    1STR   H26118210  56.612   0.019  59.852
    1STR   C26218211  56.616  59.993  59.740
    1STR   H26318212  56.608  59.959  59.637
    1STR   H26418213  56.537  59.945  59.798
    1STR   H26518214  56.711  59.957  59.779
    1STR   C26618215  56.728   0.052  59.675
    1STR   H26718216  56.729   0.022  59.571
    1STR   H26818217  56.714   0.160  59.677
    1STR   O26918218  56.851   0.016  59.739
    1STR   C27018219  56.969   0.070  59.680
    1STR   H27118220  56.964   0.060  59.571
    1STR   C27218221  56.984   0.218  59.718
    1STR   H27318222  56.984   0.231  59.827
    1STR   H27418223  56.905   0.280  59.677
    1STR   H27518224  57.078   0.258  59.681
    1STR   C27618225  57.090  60.147  59.729
    1STR   H27718226  57.098  60.155  59.837
    1STR   H27818227  57.071  60.042  59.706
    1STR   O27918228  57.210   0.031  59.666
    1STR   C28018229  57.330  60.121  59.704
    1STR   H28118230  57.332  60.109  59.812
    1STR   C28218231  57.334  59.984  59.635
    1STR   H28318232  57.325  59.994  59.527
    1STR   H28418233  57.254  59.918  59.669
    1STR   H28518234  57.428  59.933  59.656
    1STR   C28618235  57.451   0.048  59.664
    1STR   H28718236  57.453   0.062  59.556
    1STR   H28818237  57.440   0.146  59.709
    1STR   O28918238  57.574  60.147  59.707
    1STR   C29018239  57.694   0.058  59.676
    1STR   H29118240  57.691   0.092  59.572
    1STR   C29218241  57.709   0.178  59.771
    1STR   H29318242  57.705   0.147  59.875
    1STR   H29418243  57.630   0.253  59.755
    1STR   H29518244  57.804   0.229  59.754
    1STR   C29618245  57.814  60.121  59.691
    1STR   H29718246  57.818  60.084  59.793
    1STR   H29818247  57.796  60.035  59.627
    1STR   O29918248  57.938   0.025  59.656
    1STR   C30018249  58.055  60.103  59.668
    1STR   H30118250  58.050  60.046  59.761
    1STR   C30218251  58.063  60.007  59.548
    1STR   H30318252  58.058  60.062  59.453
    1STR   H30418253  57.982  59.934  59.548
    1STR   H30518254  58.157  59.951  59.549
    1STR   C30618255  58.181   0.033  59.676
    1STR   H30718256  58.196   0.085  59.581
    1STR   H30818257  58.161   0.111  59.750
    1STR   O30918258  58.298  60.118  59.712
    1STR    H1R18259  58.436   0.092  59.636
    1STR    H1S18260  58.510   0.173  59.866
    1STR    H1T18261  58.393   0.065  59.939
    1STR    H1U18262  58.339   0.201  59.841
    1STR    H1V18263  58.539  60.023  59.656
    1STR    H1W18264  58.531  60.034  59.830
    1STR    H1X18265  58.848   0.102  59.701
    1STR    H1Y18266  59.025   0.233  59.686
    1STR    H1Z18267  59.239   0.314  59.769
    1STR    H2018268  59.380   0.237  60.097
    1STR    H2118269  59.463   0.205  59.944
    1STR    H2218270  59.371   0.353  59.967
    1STR    H2318271  59.197  60.144   0.031
    1STR    H2718272  59.009  60.102  60.004
    1STR    H2818273  46.447   0.353  59.919
    1STR    H2918274  46.216   0.358  59.861
    1STR    H2A18275  45.972   0.095  59.919
    1STR    H2B18276  46.015   0.237  59.826
    1STR    H2C18277  45.953   0.257  59.989
    1STR   BCK118278  45.969  60.024  15.158
    1STR    O0318279  45.934  59.950  15.249
    1STR    N0418280  46.090  60.083  15.148
    1STR    C0518281  46.195  60.088  15.242
    1STR    C0618282  46.332  60.073  15.201
    1STR    C0718283  46.441  60.081  15.293
    1STR    N0818284  46.577  60.072  15.251
    1STR    C0918285  46.688  60.047  15.324
    1STR    O0A18286  46.686  60.017  15.443
    1STR    O0B18287  46.804  60.058  15.253
    1STR    C0C18288  46.931  60.030  15.317
    1STR    C0D18289  46.951  59.878  15.324
    1STR    C0E18290  47.052  60.099  15.248
    1STR    O0F18291  47.173  60.068  15.319
    1STR    C0G18292  47.295  60.125  15.268
    1STR    C0H18293  47.303   0.113  15.309
    1STR    C0I18294  47.416  60.046  15.325
    1STR    O0J18295  47.539  60.096  15.271
    1STR    C0K18296  58.414   0.282  15.389
    1STR    C0M18297  58.416   0.131  15.358
    1STR    C0N18298  58.533   0.353  15.318
    1STR    O0O18299  58.656   0.326  15.387
    1STR    C0P18300  58.760   0.263  15.329
    1STR    O0Q18301  58.766   0.221  15.214
    1STR    N0R18302  58.855   0.249  15.421
    1STR    C0S18303  58.975   0.177  15.428
    1STR    C0T18304  59.011   0.138  15.558
    1STR    C0U18305  59.124   0.060  15.579
    1STR    C0V18306  59.208   0.022  15.473
    1STR    C0W18307  59.317  60.086  15.513
    1STR    C0X18308  59.183   0.070  15.340
    1STR    N0Y18309  59.267   0.058  15.227
    1STR   BCK218310  59.391   0.021  15.189
    1STR    O1018311  59.428   0.053  15.076
    1STR    C1318312  59.061   0.143  15.320
    1STR    C1418313  46.409  60.104  15.429
    1STR    C1518314  46.277  60.123  15.470
    1STR    C1618315  46.170  60.119  15.379
    1STR    C1718316  46.033  60.158  15.431
    1STR    H1B18317  46.106  60.131  15.061
    1STR    H1C18318  46.353  60.054  15.097
    1STR    H1D18319  46.597  60.084  15.154
    1STR    H1E18320  46.927  60.070  15.419
    1STR    H1F18321  46.957  59.834  15.225
    1STR    H1G18322  47.044  59.854  15.377
    1STR    H1H18323  46.870  59.830  15.379
    1STR    H1I18324  47.035   0.046  15.245
    1STR    H1J18325  47.060  60.065  15.144
    1STR    H1K18326  47.297  60.115  15.160
    1STR    H1M18327  47.298   0.124  15.417
    1STR    H1N18328  47.224   0.173  15.264
    1STR    H1O18329  47.398   0.156  15.276
    1STR    H1P18330  47.417  60.053  15.434
    1STR    H1Q18331  47.404  59.940  15.301
    1STR   C01018332  47.659  60.036  15.319
    1STR   H01118333  47.655  60.026  15.428
    1STR   C01218334  47.678  59.897  15.255
    1STR   H01318335  47.678  59.904  15.146
    1STR   H01418336  47.600  59.827  15.285
    1STR   H01518337  47.774  59.854  15.285
    1STR   C01618338  47.778  60.129  15.285
    1STR   H01718339  47.785  60.142  15.177
    1STR   H01818340  47.759   0.067  15.328
    1STR   O01918341  47.901  60.075  15.336
    1STR   C02018342  48.019  60.151  15.307
    1STR   H02118343  48.017   0.024  15.202
    1STR   C02218344  48.027   0.114  15.399
    1STR   H02318345  48.024   0.084  15.504
    1STR   H02418346  47.945   0.184  15.383
    1STR   H02518347  48.120   0.168  15.383
    1STR   C02618348  48.142  60.060  15.325
    1STR   H02718349  48.148  60.026  15.428
    1STR   H02818350  48.130  59.972  15.262
    1STR   O02918351  48.261  60.131  15.289
    1STR   C03018352  48.383  60.060  15.305
    1STR   H03118353  48.383  60.006  15.400
    1STR   C03218354  48.402  59.960  15.189
    1STR   H03318355  48.398  60.011  15.093
    1STR   H03418356  48.326  59.882  15.189
    1STR   H03518357  48.498  59.910  15.196
    1STR   C03618358  48.499   0.002  15.309
    1STR   H03718359  48.503   0.057  15.214
    1STR   H03818360  48.479   0.075  15.387
    1STR   O03918361  48.623  60.095  15.333
    1STR   C04018362  48.739   0.018  15.335
    1STR   H04118363  48.735   0.089  15.252
    1STR   C04218364  48.747   0.093  15.469
    1STR   H04318365  48.747   0.024  15.553
    1STR   H04418366  48.665   0.163  15.482
    1STR   H04518367  48.840   0.151  15.475
    1STR   C04618368  48.862  60.088  15.314
    1STR   H04718369  48.870  60.016  15.395
    1STR   H04818370  48.849  60.031  15.222
    1STR   O04918371  48.980   0.008  15.306
    1STR   C05018372  49.102  60.096  15.290
    1STR   H05118373  49.103  60.009  15.356
    1STR   C05218374  49.118  60.051  15.144
    1STR   H05318375  49.112  60.136  15.076
    1STR   H05418376  49.041  59.979  15.114
    1STR   H05518377  49.214  60.003  15.129
    1STR   C05618378  49.217   0.029  15.333
    1STR   H05718379  49.220   0.117  15.268
    1STR   H05818380  49.198   0.065  15.434
    1STR   O05918381  49.340  60.118  15.327
    1STR   C06018382  49.456   0.034  15.361
    1STR   H06118383  49.451   0.133  15.314
    1STR   C06218384  49.467   0.049  15.513
    1STR   H06318385  49.467  60.112  15.562
    1STR   H06418386  49.384   0.107  15.555
    1STR   H06518387  49.559   0.100  15.541
    1STR   C06618388  49.578  60.121  15.303
    1STR   H06718389  49.588  60.023  15.349
    1STR   H06818390  49.563  60.106  15.196
    1STR   O06918391  49.696   0.039  15.326
    1STR   C07018392  49.817  60.140  15.281
    1STR   H07118393  49.820  60.034  15.307
    1STR   C07218394  49.831  60.157  15.129
    1STR   H07318395  49.824   0.102  15.101
    1STR   H07418396  49.754  60.103  15.074
    1STR   H07518397  49.927  60.120  15.094
    1STR   C07618398  49.933   0.049  15.355
    1STR   H07718399  49.934   0.155  15.331
    1STR   H07818400  49.915   0.041  15.463
    1STR   O07918401  50.056  60.147  15.320
    1STR   C08018402  50.172   0.044  15.380
    1STR   H08118403  50.166   0.153  15.376
    1STR   C08218404  50.185  60.157  15.525
    1STR   H08318405  50.186  60.048  15.531
    1STR   H08418406  50.104   0.033  15.588
    1STR   H08518407  50.278   0.033  15.570
    1STR   C08618408  50.293   0.001  15.296
    1STR   H08718409  50.303  60.052  15.298
    1STR   H08818410  50.276   0.029  15.192
    1STR   O08918411  50.411   0.064  15.346
    1STR   C09018412  50.532   0.028  15.279
    1STR   H09118413  50.534  60.081  15.260
    1STR   C09218414  50.542   0.105  15.146
    1STR   H09318415  50.535   0.213  15.163
    1STR   H09418416  50.465   0.077  15.076
    1STR   H09518417  50.638   0.086  15.098
    1STR   C09618418  50.648   0.063  15.373
    1STR   H09718419  50.649   0.170  15.393
    1STR   H09818420  50.632   0.013  15.469
    1STR   O09918421  50.771   0.021  15.314
    1STR   C10018422  50.888   0.051  15.390
    1STR   H10118423  50.882   0.152  15.431
    1STR   C10218424  50.903  60.109  15.505
    1STR   H10318425  50.904  60.007  15.467
    1STR   H10418426  50.822  60.117  15.578
    1STR   H10518427  50.996  60.125  15.559
    1STR   C10618428  51.007   0.045  15.294
    1STR   H10718429  51.017  60.104  15.253
    1STR   H10818430  50.988   0.112  15.210
    1STR   O10918431  51.126   0.083  15.363
    1STR   C11018432  51.245   0.079  15.286
    1STR   H11118433  51.248  60.148  15.226
    1STR   C11218434  51.254   0.203  15.195
    1STR   H11318435  51.246   0.295  15.253
    1STR   H11418436  51.175   0.204  15.120
    1STR   H11518437  51.349   0.205  15.142
    1STR   C11618438  51.363   0.073  15.384
    1STR   H11718439  51.365   0.164  15.446
    1STR   H11818440  51.349  60.149  15.452
    1STR   O11918441  51.485   0.059  15.312
    1STR   C12018442  51.603   0.057  15.391
    1STR   H12118443  51.598   0.134  15.469
    1STR   C12218444  51.620  60.078  15.455
    1STR   H12318445  51.621  60.000  15.379
    1STR   H12418446  51.541  60.055  15.526
    1STR   H12518447  51.715  60.072  15.510
    1STR   C12618448  51.721   0.091  15.299
    1STR   H12718449  51.731   0.016  15.221
    1STR   H12818450  51.701   0.186  15.250
    1STR   O12918451  51.841   0.100  15.376
    1STR   C13018452  51.959   0.127  15.302
    1STR   H13118453  51.960   0.068  15.210
    1STR   C13218454  51.965   0.277  15.268
    1STR   H13318455  51.959   0.338  15.358
    1STR   H13418456  51.885   0.308  15.201
    1STR   H13518457  52.060   0.301  15.218
    1STR   C13618458  52.078   0.084  15.388
    1STR   H13718459  52.081   0.142  15.480
    1STR   H13818460  52.065  60.140  15.417
    1STR   O13918461  52.199   0.101  15.314
    1STR   C14018462  52.318   0.068  15.384
    1STR   H14118463  52.314   0.107  15.486
    1STR   C14218464  52.337  60.075  15.387
    1STR   H14318465  52.336  60.033  15.287
    1STR   H14418466  52.259  60.025  15.445
    1STR   H14518467  52.432  60.049  15.434
    1STR   C14618468  52.435   0.137  15.312
    1STR   H14718469  52.443   0.099  15.210
    1STR   H14818470  52.414   0.244  15.305
    1STR   O14918471  52.556   0.115  15.384
    1STR   C15018472  52.673   0.170  15.325
    1STR   H15118473  52.673   0.152  15.217
    1STR   C15218474  52.679   0.321  15.354
    1STR   H15318475  52.674   0.341  15.461
    1STR   H15418476  52.598   0.376  15.305
    1STR   H15518477  52.772   0.364  15.316
    1STR   C15618478  52.794   0.097  15.385
    1STR   H15718479  52.798   0.114  15.493
    1STR   H15818480  52.781  60.150  15.370
    1STR   O15918481  52.913   0.143  15.322
    1STR   C16018482  53.033   0.085  15.372
    1STR   H16118483  53.031   0.080  15.481
    1STR   C16218484  53.052  60.104  15.313
    1STR   H16318485  53.050  60.106  15.204
    1STR   H16418486  52.975  60.035  15.347
    1STR   H16518487  53.148  60.062  15.344
    1STR   C16618488  53.149   0.178  15.331
    1STR   H16718489  53.155   0.184  15.223
    1STR   H16818490  53.127   0.279  15.368
    1STR   O16918491  53.271   0.130  15.387
    1STR   C17018492  53.387   0.205  15.353
    1STR   H17118493  53.385   0.232  15.247
    1STR   C17218494  53.393   0.332  15.440
    1STR   H17318495  53.390   0.308  15.546
    1STR   H17418496  53.311   0.401  15.419
    1STR   H17518497  53.486   0.387  15.421
    1STR   C17618498  53.508   0.115  15.377
    1STR   H17718499  53.514   0.087  15.483
    1STR   H17818500  53.496   0.022  15.321
    1STR   O17918501  53.627   0.183  15.336
    1STR   C18018502  53.748   0.111  15.357
    1STR   H18118503  53.747   0.063  15.455
    1STR   C18218504  53.766   0.005  15.246
    1STR   H18318505  53.762   0.051  15.147
    1STR   H18418506  53.689  60.088  15.251
    1STR   H18518507  53.862  60.115  15.256
    1STR   C18618508  53.862   0.213  15.355
    1STR   H18718509  53.867   0.262  15.257
    1STR   H18818510  53.842   0.291  15.429
    1STR   O18918511  53.985   0.148  15.384
    1STR   C19018512  54.101   0.231  15.382
    1STR   H19118513  54.097   0.298  15.296
    1STR   C19218514  54.109   0.313  15.512
    1STR   H19318515  54.108   0.248  15.599
    1STR   H19418516  54.027   0.384  15.521
    1STR   H19518517  54.201   0.371  15.515
    1STR   C19618518  54.223   0.140  15.366
    1STR   H19718519  54.231   0.072  15.451
    1STR   H19818520  54.210   0.077  15.277
    1STR   O19918521  54.341   0.219  15.353
    1STR   C20018522  54.462   0.146  15.342
    1STR   H20118523  54.463   0.063  15.412
    1STR   C20218524  54.478   0.094  15.198
    1STR   H20318525  54.473   0.175  15.126
    1STR   H20418526  54.402   0.020  15.172
    1STR   H20518527  54.575   0.045  15.185
    1STR   C20618528  54.577   0.241  15.379
    1STR   H20718529  54.580   0.325  15.310
    1STR   H20818530  54.557   0.283  15.478
    1STR   O20918531  54.700   0.170  15.378
    1STR   C21018532  54.816   0.248  15.408
    1STR   H21118533  54.811   0.344  15.356
    1STR   C21218534  54.826   0.271  15.559
    1STR   H21318535  54.826   0.177  15.614
    1STR   H21418536  54.743   0.332  15.598
    1STR   H21518537  54.918   0.324  15.584
    1STR   C21618538  54.938   0.172  15.354
    1STR   H21718539  54.947   0.076  15.406
    1STR   H21818540  54.923   0.150  15.249
    1STR   O21918541  55.055   0.250  15.373
    1STR   C22018542  55.177   0.189  15.331
    1STR   H22118543  55.179   0.084  15.363
    1STR   C22218544  55.190   0.198  15.178
    1STR   H22318545  55.183   0.302  15.145
    1STR   H22418546  55.113   0.141  15.127
    1STR   H22518547  55.286   0.159  15.146
    1STR   C22618548  55.292   0.262  15.402
    1STR   H22718549  55.294   0.367  15.372
    1STR   H22818550  55.274   0.260  15.510
    1STR   O22918551  55.415   0.198  15.371
    1STR   C23018552  55.531   0.259  15.428
    1STR   H23118553  55.525   0.368  15.418
    1STR   C23218554  55.543   0.220  15.576
    1STR   H23318555  55.544   0.111  15.588
    1STR   H23418556  55.462   0.259  15.636
    1STR   H23518557  55.636   0.258  15.618
    1STR   C23618558  55.652   0.211  15.347
    1STR   H23718559  55.662   0.103  15.355
    1STR   H23818560  55.636   0.233  15.241
    1STR   O23918561  55.770   0.276  15.394
    1STR   C24018562  55.891   0.238  15.329
    1STR   H24118563  55.894   0.129  15.316
    1STR   C24218564  55.902   0.307  15.192
    1STR   H24318565  55.894   0.416  15.203
    1STR   H24418566  55.824   0.275  15.123
    1STR   H24518567  55.998   0.286  15.145
    1STR   C24618568  56.008   0.277  15.421
    1STR   H24718569  56.009   0.385  15.435
    1STR   H24818570  55.992   0.232  15.519
    1STR   O24918571  56.131   0.232  15.365
    1STR   C25018572  56.248   0.266  15.439
    1STR   H25118573  56.242   0.369  15.474
    1STR   C25218574  56.262   0.171  15.559
    1STR   H25318575  56.263   0.067  15.527
    1STR   H25418576  56.182   0.183  15.631
    1STR   H25518577  56.356   0.190  15.612
    1STR   C25618578  56.368   0.255  15.344
    1STR   H25718579  56.378   0.152  15.308
    1STR   H25818580  56.350   0.317  15.257
    1STR   O25918581  56.487   0.296  15.412
    1STR   C26018582  56.607   0.288  15.335
    1STR   H26118583  56.610   0.194  15.279
    1STR   C26218584  56.615   0.406  15.237
    1STR   H26318585  56.607   0.501  15.290
    1STR   H26418586  56.536   0.403  15.162
    1STR   H26518587  56.710   0.406  15.184
    1STR   C26618588  56.726   0.288  15.433
    1STR   H26718589  56.727   0.382  15.489
    1STR   H26818590  56.712   0.208  15.505
    1STR   O26918591  56.848   0.271  15.362
    1STR   C27018592  56.966   0.272  15.442
    1STR   H27118593  56.961   0.353  15.515
    1STR   C27218594  56.982   0.137  15.513
    1STR   H27318595  56.982   0.055  15.442
    1STR   H27418596  56.902   0.119  15.585
    1STR   H27518597  57.076   0.133  15.568
    1STR   C27618598  57.086   0.301  15.349
    1STR   H27718599  57.095   0.222  15.275
    1STR   H27818600  57.067   0.393  15.295
    1STR   O27918601  57.207   0.312  15.425
    1STR   C28018602  57.326   0.336  15.350
    1STR   H28118603  57.328   0.272  15.262
    1STR   C28218604  57.331   0.484  15.308
    1STR   H28318605  57.322   0.550  15.395
    1STR   H28418606  57.251   0.510  15.239
    1STR   H28518607  57.425   0.507  15.258
    1STR   C28618608  57.447   0.299  15.438
    1STR   H28718609  57.448   0.362  15.528
    1STR   H28818610  57.435   0.196  15.472
    1STR   O28918611  57.569   0.314  15.365
    1STR   C29018612  57.689   0.283  15.436
    1STR   H29118613  57.686   0.328  15.536
    1STR   C29218614  57.705   0.131  15.447
    1STR   H29318615  57.702   0.084  15.349
    1STR   H29418616  57.627   0.086  15.509
    1STR   H29518617  57.800   0.105  15.494
    1STR   C29618618  57.808   0.346  15.359
    1STR   H29718619  57.813   0.304  15.259
    1STR   H29818620  57.789   0.453  15.348
    1STR   O29918621  57.931   0.324  15.428
    1STR   C30018622  58.048   0.377  15.364
    1STR   H30118623  58.044   0.357  15.257
    1STR   C30218624  58.055   0.529  15.389
    1STR   H30318625  58.050   0.552  15.495
    1STR   H30418626  57.974   0.582  15.340
    1STR   H30518627  58.148   0.570  15.350
    1STR   C30618628  58.173   0.306  15.420
    1STR   H30718629  58.187   0.331  15.526
    1STR   H30818630  58.156   0.198  15.415
    1STR   O30918631  58.291   0.340  15.345
    1STR    H1R18632  58.424   0.298  15.496
    1STR    H1S18633  58.513   0.088  15.383
    1STR    H1T18634  58.399   0.113  15.252
    1STR    H1U18635  58.341   0.076  15.414
    1STR    H1V18636  58.518   0.461  15.322
    1STR    H1W18637  58.538   0.327  15.213
    1STR    H1X18638  58.824   0.293  15.506
    1STR    H1Y18639  58.950   0.164  15.643
    1STR    H1Z18640  59.146   0.028  15.680
    1STR    H2018641  59.321  60.003  15.442
    1STR    H2118642  59.412  60.138  15.521
    1STR    H2218643  59.299  60.040  15.610
    1STR    H2318644  59.225   0.098  15.144
    1STR    H2718645  59.033   0.177  15.222
    1STR    H2818646  46.485  60.112  15.505
    1STR    H2918647  46.258  60.144  15.575
    1STR    H2A18648  45.977   0.053  15.356
    1STR    H2B18649  46.041   0.062  15.519
    1STR    H2C18650  45.977  60.069  15.460
    1STR   BCK118651  45.988  60.063  30.069
    1STR    O0318652  45.940  60.135  29.982
    1STR    N0418653  46.117  60.022  30.071
    1STR    C0518654  46.209  60.017  29.965
    1STR    C0618655  46.345  60.056  29.982
    1STR    C0718656  46.442  60.040  29.878
    1STR    N0818657  46.579  60.071  29.899
    1STR    C0918658  46.687  60.032  29.828
    1STR    O0A18659  46.683  59.955  29.732
    1STR    O0B18660  46.804  60.085  29.874
    1STR    C0C18661  46.927  60.063  29.801
    1STR    C0D18662  46.939   0.008  29.690
    1STR    C0E18663  47.052  60.065  29.893
    1STR    O0F18664  47.171  60.039  29.816
    1STR    C0G18665  47.294  60.031  29.889
    1STR    C0H18666  47.304  59.894  29.958
    1STR    C0I18667  47.414  60.051  29.793
    1STR    O0J18668  47.537  60.051  29.866
    1STR    C0K18669  58.413  59.710  30.008
    1STR    C0M18670  58.415  59.846  29.936
    1STR    C0N18671  58.533  59.699  30.105
    1STR    O0O18672  58.656  59.692  30.033
    1STR    C0P18673  58.763  59.768  30.067
    1STR    O0Q18674  58.765  59.853  30.156
    1STR    N0R18675  58.866  59.736  29.988
    1STR    C0S18676  58.996  59.788  29.975
    1STR    C0T18677  59.068  59.747  29.861
    1STR    C0U18678  59.195  59.800  29.832
    1STR    C0V18679  59.254  59.895  29.918
    1STR    C0W18680  59.382  59.962  29.870
    1STR    C0X18681  59.189  59.932  30.038
    1STR    N0Y18682  59.239  60.032  30.121
    1STR   BCK218683  59.358  60.059  30.177
    1STR    O1018684  59.373   0.009  30.231
    1STR    C1318685  59.059  59.879  30.064
    1STR    C1418686  46.397  59.990  29.754
    1STR    C1518687  46.264  59.950  29.736
    1STR    C1618688  46.171  59.959  29.841
    1STR    C1718689  46.033  59.898  29.817
    1STR    H1B18690  46.146  59.981  30.159
    1STR    H1C18691  46.376  60.096  30.077
    1STR    H1D18692  46.603  60.130  29.977
    1STR    H1E18693  46.924  59.964  29.755
    1STR    H1F18694  46.944   0.109  29.730
    1STR    H1G18695  47.029  60.151  29.630
    1STR    H1H18696  46.854   0.003  29.622
    1STR    H1I18697  47.040  59.989  29.970
    1STR    H1J18698  47.061   0.001  29.943
    1STR    H1K18699  47.298  60.111  29.963
    1STR    H1M18700  47.297  59.813  29.886
    1STR    H1N18701  47.226  59.880  30.033
    1STR    H1O18702  47.400  59.884  30.009
    1STR    H1P18703  47.415  59.972  29.717
    1STR    H1Q18704  47.402  60.146  29.740
    1STR   C01018705  47.658  60.063  29.789
    1STR   H01118706  47.654  59.997  29.703
    1STR   C01218707  47.676   0.048  29.743
    1STR   H01318708  47.676   0.117  29.828
    1STR   H01418709  47.599   0.080  29.674
    1STR   H01518710  47.772   0.060  29.692
    1STR   C01618711  47.777  60.017  29.877
    1STR   H01718712  47.783  60.080  29.966
    1STR   H01818713  47.758  59.916  29.912
    1STR   O01918714  47.900  60.023  29.804
    1STR   C02018715  48.017  59.986  29.877
    1STR   H02118716  48.015  60.033  29.976
    1STR   C02218717  48.025  59.834  29.892
    1STR   H02318718  48.023  59.785  29.794
    1STR   H02418719  47.944  59.793  29.951
    1STR   H02518720  48.118  59.804  29.941
    1STR   C02618721  48.141  60.041  29.803
    1STR   H02718722  48.147  59.997  29.703
    1STR   H02818723  48.129  60.149  29.789
    1STR   O02918724  48.260  60.013  29.877
    1STR   C03018725  48.382  60.055  29.817
    1STR   H03118726  48.382  60.030  29.711
    1STR   C03218727  48.401   0.046  29.835
    1STR   H03318728  48.397   0.074  29.940
    1STR   H03418729  48.325   0.104  29.782
    1STR   H03518730  48.497   0.078  29.796
    1STR   C03618731  48.498  59.977  29.883
    1STR   H03718732  48.502  60.000  29.990
    1STR   H03818733  48.478  59.870  29.874
    1STR   O03918734  48.622  60.010  29.820
    1STR   C04018735  48.738  59.948  29.875
    1STR   H04118736  48.734  59.951  29.984
    1STR   C04218737  48.747  59.802  29.827
    1STR   H04318738  48.746  59.796  29.718
    1STR   H04418739  48.664  59.741  29.864
    1STR   H04518740  48.839  59.755  29.861
    1STR   C04618741  48.861  60.028  29.830
    1STR   H04718742  48.869  60.027  29.721
    1STR   H04818743  48.848  60.133  29.859
    1STR   O04918744  48.979  59.974  29.889
    1STR   C05018745  49.101  60.038  29.852
    1STR   H05118746  49.102  60.057  29.745
    1STR   C05218747  49.117   0.010  29.930
    1STR   H05318748  49.111  60.153  30.037
    1STR   H05418749  49.041   0.083  29.903
    1STR   H05518750  49.214   0.056  29.908
    1STR   C05618751  49.216  59.941  29.884
    1STR   H05718752  49.219  59.920  29.991
    1STR   H05818753  49.197  59.846  29.833
    1STR   O05918754  49.340  59.997  29.840
    1STR   C06018755  49.455  59.918  29.867
    1STR   H06118756  49.450  59.877  29.968
    1STR   C06218757  49.466  59.804  29.764
    1STR   H06318758  49.467  59.843  29.662
    1STR   H06418759  49.384  59.733  29.773
    1STR   H06518760  49.558  59.748  29.779
    1STR   C06618761  49.578  60.011  29.860
    1STR   H06718762  49.587  60.053  29.760
    1STR   H06818763  49.563  60.094  29.928
    1STR   O06918764  49.695  59.938  29.895
    1STR   C07018765  49.817  60.012  29.889
    1STR   H07118766  49.819  60.073  29.798
    1STR   C07218767  49.830  60.102  30.013
    1STR   H07318768  49.823  60.044  30.104
    1STR   H07418769  49.754   0.019  30.016
    1STR   H07518770  49.927  60.153  30.013
    1STR   C07618771  49.932  59.911  29.880
    1STR   H07718772  49.934  59.849  29.970
    1STR   H07818773  49.915  59.844  29.796
    1STR   O07918774  50.056  59.980  29.864
    1STR   C08018775  50.172  59.898  29.859
    1STR   H08118776  50.166  59.820  29.936
    1STR   C08218777  50.185  59.834  29.720
    1STR   H08318778  50.186  59.910  29.642
    1STR   H08418779  50.104  59.765  29.698
    1STR   H08518780  50.278  59.777  29.712
    1STR   C08618781  50.293  59.987  29.892
    1STR   H08718782  50.303  60.065  29.817
    1STR   H08818783  50.276  60.036  29.988
    1STR   O08918784  50.411  59.906  29.898
    1STR   C09018785  50.531  59.977  29.923
    1STR   H09118786  50.534  60.069  29.864
    1STR   C09218787  50.542  60.010  30.073
    1STR   H09318788  50.535  59.920  30.134
    1STR   H09418789  50.464  60.079  30.106
    1STR   H09518790  50.638  60.057  30.095
    1STR   C09618791  50.648  59.888  29.877
    1STR   H09718792  50.649  59.796  29.935
    1STR   H09818793  50.632  59.861  29.773
    1STR   O09918794  50.771  59.959  29.892
    1STR   C10018795  50.888  59.886  29.856
    1STR   H10118796  50.882  59.784  29.895
    1STR   C10218797  50.903  59.884  29.703
    1STR   H10318798  50.904  59.985  29.662
    1STR   H10418799  50.823  59.829  29.654
    1STR   H10518800  50.996  59.835  29.674
    1STR   C10618801  51.007  59.955  29.923
    1STR   H10718802  51.017  60.057  29.886
    1STR   H10818803  50.988  59.962  30.030
    1STR   O10918804  51.126  59.880  29.898
    1STR   C11018805  51.245  59.935  29.952
    1STR   H11118806  51.248  60.043  29.935
    1STR   C11218807  51.254  59.905  30.103
    1STR   H11318808  51.247  59.798  30.122
    1STR   H11418809  51.175  59.955  30.159
    1STR   H11518810  51.349  59.940  30.144
    1STR   C11618811  51.363  59.873  29.876
    1STR   H11718812  51.365  59.765  29.892
    1STR   H11818813  51.349  59.889  29.769
    1STR   O11918814  51.485  59.933  29.920
    1STR   C12018815  51.603  59.881  29.859
    1STR   H12118816  51.598  59.772  29.854
    1STR   C12218817  51.620  59.939  29.718
    1STR   H12318818  51.621  60.048  29.721
    1STR   H12418819  51.541  59.908  29.651
    1STR   H12518820  51.715  59.907  29.674
    1STR   C12618821  51.721  59.918  29.950
    1STR   H12718822  51.731  60.026  29.957
    1STR   H12818823  51.701  59.881  30.051
    1STR   O12918824  51.841  59.859  29.899
    1STR   C13018825  51.959  59.889  29.973
    1STR   H13118826  51.960  59.995  30.000
    1STR   C13218827  51.966  59.802  30.099
    1STR   H13318828  51.959  59.696  30.074
    1STR   H13418829  51.885  59.824  30.169
    1STR   H13518830  52.060  59.817  30.152
    1STR   C13618831  52.078  59.863  29.880
    1STR   H13718832  52.081  59.757  29.852
    1STR   H13818833  52.065  59.920  29.788
    1STR   O13918834  52.199  59.900  29.946
    1STR   C14018835  52.318  59.877  29.872
    1STR   H14118836  52.314  59.779  29.823
    1STR   C14218837  52.337  59.988  29.766
    1STR   H14318838  52.336  60.086  29.813
    1STR   H14418839  52.259  59.986  29.690
    1STR   H14518840  52.432  59.976  29.714
    1STR   C14618841  52.435  59.875  29.972
    1STR   H14718842  52.443  59.972  30.021
    1STR   H14818843  52.414  59.802  30.049
    1STR   O14918844  52.556  59.843  29.904
    1STR   C15018845  52.673  59.842  29.985
    1STR   H15118846  52.673  59.928  30.052
    1STR   C15218847  52.679  59.711  30.066
    1STR   H15318848  52.674  59.624  30.000
    1STR   H15418849  52.598  59.703  30.138
    1STR   H15518850  52.772  59.705  30.122
    1STR   C15618851  52.793  59.855  29.891
    1STR   H15718852  52.798  59.770  29.823
    1STR   H15818853  52.781  59.945  29.830
    1STR   O15918854  52.913  59.864  29.968
    1STR   C16018855  53.033  59.873  29.893
    1STR   H16118856  53.031  59.803  29.809
    1STR   C16218857  53.052  60.017  29.841
    1STR   H16318858  53.050  60.089  29.923
    1STR   H16418859  52.975  60.045  29.769
    1STR   H16518860  53.148  60.027  29.790
    1STR   C16618861  53.149  59.832  29.986
    1STR   H16718862  53.155  59.901  30.070
    1STR   H16818863  53.127  59.733  30.027
    1STR   O16918864  53.271  59.830  29.912
    1STR   C17018865  53.387  59.797  29.988
    1STR   H17118866  53.385  59.849  30.084
    1STR   C17218867  53.393  59.645  30.009
    1STR   H17318868  53.390  59.591  29.914
    1STR   H17418869  53.311  59.609  30.071
    1STR   H17518870  53.486  59.617  30.060
    1STR   C17618871  53.508  59.848  29.909
    1STR   H17718872  53.514  59.797  29.812
    1STR   H17818873  53.496  59.954  29.888
    1STR   O17918874  53.627  59.826  29.985
    1STR   C18018875  53.748  59.865  29.922
    1STR   H18118876  53.747  59.834  29.817
    1STR   C18218877  53.766  60.017  29.932
    1STR   H18318878  53.762  60.050  30.035
    1STR   H18418879  53.689  60.071  29.876
    1STR   H18518880  53.862  60.047  29.891
    1STR   C18618881  53.863  59.790  29.992
    1STR   H18718882  53.867  59.820  30.097
    1STR   H18818883  53.842  59.683  29.990
    1STR   O18918884  53.985  59.819  29.926
    1STR   C19018885  54.101  59.759  29.984
    1STR   H19118886  54.097  59.768  30.093
    1STR   C19218887  54.109  59.611  29.943
    1STR   H19318888  54.108  59.599  29.835
    1STR   H19418889  54.026  59.552  29.984
    1STR   H19518890  54.201  59.566  29.980
    1STR   C19618891  54.223  59.837  29.934
    1STR   H19718892  54.231  59.829  29.825
    1STR   H19818893  54.210  59.943  29.957
    1STR   O19918894  54.341  59.787  29.997
    1STR   C20018895  54.462  59.849  29.956
    1STR   H20118896  54.463  59.862  29.848
    1STR   C20218897  54.478  59.984  30.026
    1STR   H20318898  54.473  59.973  30.135
    1STR   H20418899  54.402  60.056  29.996
    1STR   H20518900  54.575  60.029  30.003
    1STR   C20618901  54.577  59.753  29.993
    1STR   H20718902  54.580  59.738  30.101
    1STR   H20818903  54.557  59.656  29.948
    1STR   O20918904  54.700  59.806  29.945
    1STR   C21018905  54.816  59.728  29.976
    1STR   H21118906  54.811  59.693  30.080
    1STR   C21218907  54.826  59.609  29.880
    1STR   H21318908  54.826  59.642  29.776
    1STR   H21418909  54.743  59.539  29.893
    1STR   H21518910  54.918  59.553  29.897
    1STR   C21618911  54.938  59.821  29.964
    1STR   H21718912  54.947  59.857  29.861
    1STR   H21818913  54.923  59.908  30.027
    1STR   O21918914  55.055  59.750  30.003
    1STR   C22018915  55.177  59.824  29.993
    1STR   H22118916  55.179  59.880  29.899
    1STR   C22218917  55.190  59.920  30.112
    1STR   H22318918  55.183  59.866  30.207
    1STR   H22418919  55.113  59.997  30.111
    1STR   H22518920  55.286  59.971  30.110
    1STR   C22618921  55.292  59.722  29.990
    1STR   H22718922  55.294  59.665  30.083
    1STR   H22818923  55.274  59.651  29.909
    1STR   O22918924  55.415  59.790  29.970
    1STR   C23018925  55.531  59.707  29.969
    1STR   H23118926  55.525  59.633  30.049
    1STR   C23218927  55.543  59.636  29.833
    1STR   H23318928  55.545  59.708  29.751
    1STR   H23418929  55.462  59.566  29.816
    1STR   H23518930  55.636  59.579  29.828
    1STR   C23618931  55.652  59.797  29.996
    1STR   H23718932  55.662  59.872  29.917
    1STR   H23818933  55.636  59.852  30.089
    1STR   O23918934  55.770  59.717  30.006
    1STR   C24018935  55.891  59.790  30.028
    1STR   H24118936  55.894  59.879  29.964
    1STR   C24218937  55.902  59.830  30.176
    1STR   H24318938  55.894  59.743  30.241
    1STR   H24418939  55.824  59.901  30.205
    1STR   H24518940  55.997  59.878  30.196
    1STR   C24618941  56.008  59.698  29.986
    1STR   H24718942  56.009  59.609  30.049
    1STR   H24818943  55.992  59.665  29.884
    1STR   O24918944  56.131  59.769  29.997
    1STR   C25018945  56.248  59.694  29.965
    1STR   H25118946  56.242  59.595  30.009
    1STR   C25218947  56.262  59.684  29.812
    1STR   H25318948  56.263  59.782  29.766
    1STR   H25418949  56.181  59.626  29.767
    1STR   H25518950  56.355  59.634  29.786
    1STR   C25618951  56.368  59.767  30.028
    1STR   H25718952  56.378  59.867  29.985
    1STR   H25818953  56.350  59.779  30.135
    1STR   O25918954  56.487  59.691  30.006
    1STR   C26018955  56.607  59.749  30.057
    1STR   H26118956  56.610  59.855  30.034
    1STR   C26218957  56.614  59.727  30.209
    1STR   H26318958  56.606  59.621  30.234
    1STR   H26418959  56.536  59.780  30.262
    1STR   H26518960  56.709  59.763  30.248
    1STR   C26618961  56.725  59.682  29.985
    1STR   H26718962  56.726  59.575  30.007
    1STR   H26818963  56.711  59.692  29.878
    1STR   O26918964  56.848  59.743  30.026
    1STR   C27018965  56.966  59.688  29.968
    1STR   H27118966  56.961  59.578  29.968
    1STR   C27218967  56.982  59.739  29.824
    1STR   H27318968  56.982  59.848  29.821
    1STR   H27418969  56.902  59.703  29.758
    1STR   H27518970  57.076  59.705  29.781
    1STR   C27618971  57.086  59.729  30.055
    1STR   H27718972  57.095  59.838  30.057
    1STR   H27818973  57.067  59.698  30.158
    1STR   O27918974  57.206  59.670  30.006
    1STR   C28018975  57.325  59.702  30.078
    1STR   H28118976  57.327  59.809  30.101
    1STR   C28218977  57.330  59.622  30.209
    1STR   H28318978  57.322  59.515  30.190
    1STR   H28418979  57.250  59.649  30.278
    1STR   H28518980  57.424  59.639  30.261
    1STR   C28618981  57.446  59.670  29.988
    1STR   H28718982  57.448  59.564  29.965
    1STR   H28818983  57.434  59.724  29.894
    1STR   O28918984  57.568  59.709  30.053
    1STR   C29018985  57.688  59.683  29.979
    1STR   H29118986  57.684  59.583  29.936
    1STR   C29218987  57.704  59.788  29.868
    1STR   H29318988  57.701  59.889  29.909
    1STR   H29418989  57.626  59.781  29.792
    1STR   H29518990  57.799  59.776  29.816
    1STR   C29618991  57.807  59.688  30.078
    1STR   H29718992  57.813  59.787  30.123
    1STR   H29818993  57.788  59.617  30.158
    1STR   O29918994  57.930  59.657  30.011
    1STR   C30018995  58.047  59.660  30.094
    1STR   H30118996  58.044  59.748  30.158
    1STR   C30218997  58.053  59.532  30.179
    1STR   H30318998  58.048  59.443  30.117
    1STR   H30418999  57.972  59.527  30.252
    1STR   H30519000  58.146  59.528  30.236
    1STR   C30619001  58.172  59.672  30.003
    1STR   H30719002  58.182  59.583  29.941
    1STR   H30819003  58.155  59.756  29.935
    1STR   O30919004  58.290  59.694  30.081
    1STR    H1R19005  58.421  59.629  29.934
    1STR    H1S19006  58.511  59.862  29.887
    1STR    H1T19007  58.400  59.927  30.007
    1STR    H1U19008  58.338  59.854  29.859
    1STR    H1V19009  58.524  59.608  30.164
    1STR    H1W19010  58.531  59.781  30.176
    1STR    H1X19011  58.840  59.663  29.926
    1STR    H1Y19012  59.025  59.677  29.791
    1STR    H1Z19013  59.245  59.770  29.742
    1STR    H2019014  59.384  60.067  29.900
    1STR    H2119015  59.470  59.912  29.910
    1STR    H2219016  59.389  59.960  29.761
    1STR    H2319017  59.172  60.103  30.147
    1STR    H2719018  59.006  59.911  30.152
    1STR    H2819019  46.462  59.980  29.669
    1STR    H2919020  46.235  59.908  29.641
    1STR    H2A19021  45.995  59.850  29.908
    1STR    H2B19022  46.037  59.822  29.740
    1STR    H2C19023  45.963  59.975  29.786
    1STR   BCK119024  45.980   0.005  45.223
    1STR    O0319025  45.931   0.080  45.307
    1STR    N0419026  46.104   0.021  45.171
    1STR    C0519027  46.198   0.126  45.188
    1STR    C0619028  46.338   0.098  45.202
    1STR    C0719029  46.437   0.201  45.214
    1STR    N0819030  46.576   0.171  45.221
    1STR    C0919031  46.681   0.251  45.250
    1STR    O0A19032  46.671   0.368  45.286
    1STR    O0B19033  46.802   0.188  45.237
    1STR    C0C19034  46.924   0.259  45.270
    1STR    C0D19035  46.944   0.260  45.422
    1STR    C0E19036  47.049   0.200  45.199
    1STR    O0F19037  47.169   0.271  45.236
    1STR    C0G19038  47.291   0.226  45.176
    1STR    C0H19039  47.301   0.279  45.032
    1STR    C0I19040  47.413   0.276  45.259
    1STR    O0J19041  47.535   0.226  45.204
    1STR    C0K19042  58.418   0.367  44.889
    1STR    C0M19043  58.409   0.322  45.036
    1STR    C0N19044  58.542   0.300  44.823
    1STR    O0O19045  58.663   0.351  44.879
    1STR    C0P19046  58.763   0.271  44.925
    1STR    O0Q19047  58.761   0.149  44.934
    1STR    N0R19048  58.866   0.350  44.958
    1STR    C0S19049  58.994   0.333  45.013
    1STR    C0T19050  59.067   0.453  45.023
    1STR    C0U19051  59.193   0.456  45.084
    1STR    C0V19052  59.251   0.339  45.135
    1STR    C0W19053  59.381   0.354  45.214
    1STR    C0X19054  59.185   0.214  45.119
    1STR    N0Y19055  59.246   0.098  45.172
    1STR   BCK219056  59.373   0.058  45.151
    1STR    O1019057  59.441   0.097  45.056
    1STR    C1319058  59.055   0.213  45.060
    1STR    C1419059  46.391   0.334  45.212
    1STR    C1519060  46.255   0.364  45.196
    1STR    C1619061  46.159   0.262  45.180
    1STR    C1719062  46.017   0.307  45.148
    1STR    H1B19063  46.133  60.104  45.113
    1STR    H1C19064  46.370  60.155  45.204
    1STR    H1D19065  46.605   0.077  45.202
    1STR    H1E19066  46.915   0.363  45.236
    1STR    H1F19067  46.954   0.159  45.462
    1STR    H1G19068  47.033   0.315  45.450
    1STR    H1H19069  46.860   0.307  45.473
    1STR    H1I19070  47.034   0.205  45.091
    1STR    H1J19071  47.059   0.094  45.224
    1STR    H1K19072  47.295   0.117  45.176
    1STR    H1M19073  47.295   0.388  45.029
    1STR    H1N19074  47.222   0.240  44.968
    1STR    H1O19075  47.395   0.251  44.986
    1STR    H1P19076  47.414   0.385  45.261
    1STR    H1Q19077  47.401   0.243  45.362
    1STR   C01019078  47.657   0.268  45.268
    1STR   H01119079  47.653   0.376  45.288
    1STR   C01219080  47.675   0.192  45.400
    1STR   H01319081  47.675   0.084  45.384
    1STR   H01419082  47.598   0.215  45.473
    1STR   H01519083  47.771   0.218  45.447
    1STR   C01619084  47.775   0.242  45.173
    1STR   H01719085  47.782   0.136  45.150
    1STR   H01819086  47.757   0.294  45.079
    1STR   O01919087  47.899   0.287  45.230
    1STR   C02019088  48.016   0.265  45.152
    1STR   H02119089  48.014   0.164  45.110
    1STR   C02219090  48.024   0.368  45.038
    1STR   H02319091  48.022   0.469  45.077
    1STR   H02419092  47.943   0.357  44.967
    1STR   H02519093  48.117   0.356  44.982
    1STR   C02619094  48.140   0.274  45.244
    1STR   H02719095  48.146   0.374  45.287
    1STR   H02819096  48.129   0.204  45.327
    1STR   O02919097  48.259   0.245  45.170
    1STR   C03019098  48.382   0.255  45.243
    1STR   H03119099  48.381   0.346  45.304
    1STR   C03219100  48.400   0.131  45.332
    1STR   H03319101  48.397   0.040  45.273
    1STR   H03419102  48.324   0.125  45.410
    1STR   H03519103  48.497   0.134  45.382
    1STR   C03619104  48.498   0.268  45.142
    1STR   H03719105  48.502   0.179  45.079
    1STR   H03819106  48.478   0.353  45.076
    1STR   O03919107  48.621   0.286  45.211
    1STR   C04019108  48.738   0.295  45.128
    1STR   H04119109  48.734   0.219  45.050
    1STR   C04219110  48.746   0.435  45.065
    1STR   H04319111  48.746   0.513  45.141
    1STR   H04419112  48.664   0.455  44.996
    1STR   H04519113  48.839   0.446  45.008
    1STR   C04619114  48.861   0.266  45.216
    1STR   H04719115  48.869   0.341  45.295
    1STR   H04819116  48.848   0.169  45.265
    1STR   O04919117  48.979   0.266  45.135
    1STR   C05019118  49.101   0.244  45.206
    1STR   H05119119  49.102   0.302  45.298
    1STR   C05219120  49.117   0.094  45.238
    1STR   H05319121  49.111   0.034  45.147
    1STR   H05419122  49.041   0.058  45.307
    1STR   H05519123  49.214   0.075  45.284
    1STR   C05619124  49.216   0.294  45.117
    1STR   H05719125  49.219   0.237  45.024
    1STR   H05819126  49.197   0.398  45.090
    1STR   O05919127  49.340   0.282  45.187
    1STR   C06019128  49.455   0.322  45.114
    1STR   H06119129  49.450   0.284  45.011
    1STR   C06219130  49.466   0.476  45.112
    1STR   H06319131  49.467   0.516  45.214
    1STR   H06419132  49.384   0.522  45.058
    1STR   H06519133  49.558   0.508  45.064
    1STR   C06619134  49.578   0.259  45.182
    1STR   H06719135  49.587   0.295  45.284
    1STR   H06819136  49.563   0.151  45.188
    1STR   O06919137  49.695   0.288  45.106
    1STR   C07019138  49.817   0.238  45.161
    1STR   H07119139  49.819   0.255  45.269
    1STR   C07219140  49.830   0.088  45.130
    1STR   H07319141  49.823   0.069  45.023
    1STR   H07419142  49.754   0.029  45.180
    1STR   H07519143  49.927   0.050  45.164
    1STR   C07619144  49.932   0.319  45.099
    1STR   H07719145  49.934   0.303  44.991
    1STR   H07819146  49.915   0.425  45.116
    1STR   O07919147  50.056   0.278  45.158
    1STR   C08019148  50.172   0.342  45.106
    1STR   H08119149  50.166   0.348  44.997
    1STR   C08219150  50.185   0.483  45.165
    1STR   H08319151  50.186   0.480  45.274
    1STR   H08419152  50.104   0.549  45.135
    1STR   H08519153  50.278   0.531  45.133
    1STR   C08619154  50.293   0.255  45.142
    1STR   H08719155  50.303   0.248  45.250
    1STR   H08819156  50.276   0.154  45.104
    1STR   O08919157  50.411   0.310  45.083
    1STR   C09019158  50.531   0.241  45.112
    1STR   H09119159  50.534   0.213  45.218
    1STR   C09219160  50.542   0.115  45.024
    1STR   H09319161  50.535   0.141  44.919
    1STR   H09419162  50.464   0.042  45.047
    1STR   H09519163  50.638   0.065  45.040
    1STR   C09619164  50.648   0.337  45.086
    1STR   H09719165  50.649   0.366  44.981
    1STR   H09819166  50.632   0.428  45.144
    1STR   O09919167  50.771   0.275  45.123
    1STR   C10019168  50.888   0.353  45.100
    1STR   H10119169  50.882   0.402  45.003
    1STR   C10219170  50.903   0.459  45.211
    1STR   H10319171  50.904   0.412  45.310
    1STR   H10419172  50.822   0.532  45.210
    1STR   H10519173  50.996   0.514  45.199
    1STR   C10619174  51.007   0.257  45.097
    1STR   H10719175  51.017   0.207  45.194
    1STR   H10819176  50.988   0.179  45.023
    1STR   O10919177  51.126   0.329  45.065
    1STR   C11019178  51.245   0.252  45.063
    1STR   H11119179  51.248   0.184  45.148
    1STR   C11219180  51.254   0.172  44.932
    1STR   H11319181  51.247   0.238  44.845
    1STR   H11419182  51.175   0.098  44.924
    1STR   H11519183  51.349   0.119  44.925
    1STR   C11619184  51.363   0.350  45.077
    1STR   H11719185  51.365   0.418  44.992
    1STR   H11819186  51.349   0.410  45.167
    1STR   O11919187  51.485   0.276  45.085
    1STR   C12019188  51.603   0.355  45.094
    1STR   H12119189  51.598   0.439  45.024
    1STR   C12219190  51.620   0.407  45.238
    1STR   H12319191  51.621   0.324  45.309
    1STR   H12419192  51.541   0.475  45.267
    1STR   H12519193  51.715   0.460  45.248
    1STR   C12619194  51.721   0.266  45.052
    1STR   H12719195  51.731   0.182  45.120
    1STR   H12819196  51.701   0.225  44.953
    1STR   O12919197  51.841   0.344  45.050
    1STR   C13019198  51.959   0.272  45.016
    1STR   H13119199  51.960   0.175  45.067
    1STR   C13219200  51.965   0.251  44.864
    1STR   H13319201  51.959   0.347  44.811
    1STR   H13419202  51.885   0.187  44.827
    1STR   H13519203  52.060   0.204  44.835
    1STR   C13619204  52.078   0.354  45.067
    1STR   H13719205  52.081   0.451  45.017
    1STR   H13819206  52.065   0.374  45.173
    1STR   O13919207  52.199   0.282  45.044
    1STR   C14019208  52.318   0.349  45.083
    1STR   H14119209  52.314   0.454  45.053
    1STR   C14219210  52.337   0.339  45.235
    1STR   H14319211  52.336   0.235  45.268
    1STR   H14419212  52.259   0.391  45.290
    1STR   H14519213  52.432   0.382  45.265
    1STR   C14619214  52.435   0.283  45.007
    1STR   H14719215  52.443   0.178  45.036
    1STR   H14819216  52.414   0.285  44.900
    1STR   O14919217  52.556   0.353  45.036
    1STR   C15019218  52.673   0.299  44.975
    1STR   H15119219  52.673   0.190  44.984
    1STR   C15219220  52.679   0.340  44.827
    1STR   H15319221  52.674   0.449  44.817
    1STR   H15419222  52.598   0.297  44.769
    1STR   H15519223  52.772   0.307  44.782
    1STR   C15619224  52.793   0.353  45.054
    1STR   H15719225  52.798   0.461  45.046
    1STR   H15819226  52.781   0.328  45.159
    1STR   O15919227  52.913   0.294  45.003
    1STR   C16019228  53.033   0.338  45.065
    1STR   H16119229  53.031   0.446  45.079
    1STR   C16219230  53.052   0.267  45.200
    1STR   H16319231  53.050   0.159  45.188
    1STR   H16419232  52.975   0.295  45.272
    1STR   H16519233  53.148   0.294  45.244
    1STR   C16619234  53.149   0.306  44.968
    1STR   H16719235  53.155   0.198  44.953
    1STR   H16819236  53.127   0.351  44.871
    1STR   O16919237  53.271   0.357  45.021
    1STR   C17019238  53.387   0.330  44.943
    1STR   H17119239  53.385   0.227  44.907
    1STR   C17219240  53.393   0.427  44.824
    1STR   H17319241  53.390   0.531  44.858
    1STR   H17419242  53.311   0.413  44.754
    1STR   H17519243  53.486   0.414  44.768
    1STR   C17619244  53.508   0.346  45.035
    1STR   H17719245  53.514   0.448  45.072
    1STR   H17819246  53.496   0.281  45.122
    1STR   O17919247  53.627   0.311  44.964
    1STR   C18019248  53.748   0.325  45.037
    1STR   H18119249  53.747   0.419  45.094
    1STR   C18219250  53.766   0.206  45.133
    1STR   H18319251  53.762   0.111  45.079
    1STR   H18419252  53.689   0.204  45.210
    1STR   H18519253  53.862   0.211  45.184
    1STR   C18619254  53.863   0.332  44.935
    1STR   H18719255  53.867   0.239  44.878
    1STR   H18819256  53.842   0.412  44.864
    1STR   O18919257  53.986   0.356  45.003
    1STR   C19019258  54.101   0.361  44.920
    1STR   H19119259  54.097   0.281  44.846
    1STR   C19219260  54.109   0.497  44.849
    1STR   H19319261  54.108   0.579  44.922
    1STR   H19419262  54.026   0.513  44.780
    1STR   H19519263  54.201   0.506  44.792
    1STR   C19619264  54.223   0.337  45.010
    1STR   H19719265  54.231   0.416  45.084
    1STR   H19819266  54.210   0.243  45.064
    1STR   O19919267  54.341   0.331  44.929
    1STR   C20019268  54.462   0.313  45.001
    1STR   H20119269  54.464   0.376  45.090
    1STR   C20219270  54.478   0.166  45.041
    1STR   H20319271  54.473   0.101  44.953
    1STR   H20419272  54.402   0.134  45.111
    1STR   H20519273  54.575   0.149  45.088
    1STR   C20619274  54.577   0.359  44.909
    1STR   H20719275  54.580   0.297  44.820
    1STR   H20819276  54.558   0.461  44.877
    1STR   O20919277  54.700   0.352  44.980
    1STR   C21019278  54.816   0.388  44.905
    1STR   H21119279  54.811   0.344  44.805
    1STR   C21219280  54.826   0.541  44.895
    1STR   H21319281  54.826   0.587  44.994
    1STR   H21419282  54.743   0.584  44.838
    1STR   H21519283  54.918   0.571  44.845
    1STR   C21619284  54.938   0.328  44.976
    1STR   H21719285  54.947   0.371  45.076
    1STR   H21819286  54.923   0.221  44.989
    1STR   O21919287  55.055   0.354  44.900
    1STR   C22019288  55.177   0.307  44.957
    1STR   H22119289  55.179   0.329  45.064
    1STR   C22219290  55.190   0.156  44.934
    1STR   H22319291  55.183   0.131  44.828
    1STR   H22419292  55.113   0.099  44.987
    1STR   H22519293  55.286   0.119  44.971
    1STR   C22619294  55.292   0.384  44.890
    1STR   H22719295  55.294   0.363  44.783
    1STR   H22819296  55.275   0.491  44.902
    1STR   O22919297  55.416   0.347  44.951
    1STR   C23019298  55.532   0.409  44.896
    1STR   H23119299  55.526   0.409  44.787
    1STR   C23219300  55.544   0.553  44.948
    1STR   H23319301  55.545   0.555  45.057
    1STR   H23419302  55.462   0.616  44.914
    1STR   H23519303  55.637   0.599  44.914
    1STR   C23619304  55.653   0.324  44.937
    1STR   H23719305  55.663   0.323  45.045
    1STR   H23819306  55.637   0.221  44.905
    1STR   O23919307  55.771   0.377  44.876
    1STR   C24019308  55.892   0.308  44.909
    1STR   H24119309  55.895   0.286  45.015
    1STR   C24219310  55.902   0.178  44.827
    1STR   H24319311  55.894   0.198  44.720
    1STR   H24419312  55.825   0.107  44.854
    1STR   H24519313  55.998   0.130  44.845
    1STR   C24619314  56.009   0.404  44.877
    1STR   H24719315  56.010   0.427  44.771
    1STR   H24819316  55.993   0.497  44.931
    1STR   O24919317  56.132   0.344  44.917
    1STR   C25019318  56.249   0.421  44.890
    1STR   H25119319  56.243   0.465  44.790
    1STR   C25219320  56.263   0.532  44.995
    1STR   H25319321  56.264   0.491  45.096
    1STR   H25419322  56.182   0.605  44.990
    1STR   H25519323  56.356   0.587  44.982
    1STR   C25619324  56.370   0.326  44.893
    1STR   H25719325  56.380   0.281  44.992
    1STR   H25819326  56.352   0.244  44.823
    1STR   O25919327  56.489   0.396  44.858
    1STR   C26019328  56.609   0.319  44.859
    1STR   H26119329  56.612   0.256  44.948
    1STR   C26219330  56.616   0.232  44.732
    1STR   H26319331  56.608   0.293  44.642
    1STR   H26419332  56.537   0.157  44.729
    1STR   H26519333  56.711   0.179  44.728
    1STR   C26619334  56.728   0.417  44.867
    1STR   H26719335  56.729   0.481  44.779
    1STR   H26819336  56.714   0.481  44.953
    1STR   O26919337  56.851   0.344  44.877
    1STR   C27019338  56.969   0.424  44.883
    1STR   H27119339  56.964   0.504  44.809
    1STR   C27219340  56.984   0.483  45.024
    1STR   H27319341  56.984   0.405  45.100
    1STR   H27419342  56.905   0.554  45.048
    1STR   H27519343  57.078   0.538  45.033
    1STR   C27619344  57.090   0.334  44.847
    1STR   H27719345  57.098   0.253  44.920
    1STR   H27819346  57.071   0.288  44.750
    1STR   O27919347  57.210   0.411  44.844
    1STR   C28019348  57.329   0.338  44.812
    1STR   H28119349  57.331   0.245  44.868
    1STR   C28219350  57.334   0.309  44.661
    1STR   H28319351  57.325   0.401  44.603
    1STR   H28419352  57.254   0.242  44.630
    1STR   H28519353  57.428   0.262  44.634
    1STR   C28619354  57.451   0.422  44.856
    1STR   H28719355  57.453   0.517  44.802
    1STR   H28819356  57.440   0.447  44.962
    1STR   O28919357  57.574   0.351  44.834
    1STR   C29019358  57.694   0.419  44.871
    1STR   H29119359  57.691   0.522  44.835
    1STR   C29219360  57.709   0.417  45.024
    1STR   H29319361  57.705   0.315  45.063
    1STR   H29419362  57.631   0.475  45.074
    1STR   H29519363  57.805   0.460  45.054
    1STR   C29619364  57.814   0.348  44.803
    1STR   H29719365  57.818   0.244  44.836
    1STR   H29819366  57.796   0.347  44.695
    1STR   O29919367  57.937   0.415  44.832
    1STR   C30019368  58.055   0.356  44.776
    1STR   H30119369  58.051   0.247  44.787
    1STR   C30219370  58.064   0.392  44.627
    1STR   H30319371  58.059   0.500  44.612
    1STR   H30419372  57.983   0.348  44.569
    1STR   H30519373  58.158   0.357  44.583
    1STR   C30619374  58.180   0.405  44.854
    1STR   H30719375  58.194   0.512  44.836
    1STR   H30819376  58.158   0.394  44.960
    1STR   O30919377  58.298   0.331  44.819
    1STR    H1R19378  58.432   0.475  44.884
    1STR    H1S19379  58.503   0.340  45.088
    1STR    H1T19380  58.389   0.215  45.043
    1STR    H1U19381  58.332   0.375  45.092
    1STR    H1V19382  58.543   0.323  44.716
    1STR    H1W19383  58.536   0.191  44.831
    1STR    H1X19384  58.839   0.445  44.938
    1STR    H1Y19385  59.027   0.546  44.987
    1STR    H1Z19386  59.245   0.550  45.094
    1STR    H2019387  59.381   0.289  45.301
    1STR    H2119388  59.466   0.328  45.151
    1STR    H2219389  59.395   0.456  45.249
    1STR    H2319390  59.194   0.043  45.239
    1STR    H2719391  59.000   0.120  45.050
    1STR    H2819392  46.457   0.418  45.220
    1STR    H2919393  46.225   0.468  45.193
    1STR    H2A19394  45.967   0.236  45.083
    1STR    H2B19395  46.018   0.403  45.097
    1STR    H2C19396  45.960   0.319  45.240
    1STR   BCK119397  45.972  14.910   0.051
    1STR    O0319398  45.956  14.818  60.131
    1STR    N0419399  46.090  14.940   0.108
    1STR    C0519400  46.198  14.851   0.125
    1STR    C0619401  46.333  14.882   0.087
    1STR    C0719402  46.442  14.792   0.112
    1STR    N0819403  46.576  14.824   0.078
    1STR    C0919404  46.691  14.759   0.108
    1STR    O0A19405  46.697  14.656   0.174
    1STR    O0B19406  46.804  14.819   0.057
    1STR    C0C19407  46.931  14.751   0.069
    1STR    C0D19408  46.946  14.651  60.113
    1STR    C0E19409  47.054  14.846   0.076
    1STR    O0F19410  47.174  14.768   0.095
    1STR    C0G19411  47.296  14.841   0.110
    1STR    C0H19412  47.306  14.897   0.253
    1STR    C0I19413  47.416  14.746   0.082
    1STR    O0J19414  47.540  14.819   0.089
    1STR    C0K19415  58.410  14.926   0.447
    1STR    C0M19416  58.416  14.869   0.305
    1STR    C0N19417  58.530  15.020   0.473
    1STR    O0O19418  58.651  14.944   0.487
    1STR    C0P19419  58.760  14.967   0.411
    1STR    O0Q19420  58.769  15.051   0.322
    1STR    N0R19421  58.854  14.879   0.444
    1STR    C0S19422  58.979  14.850   0.388
    1STR    C0T19423  59.025  14.718   0.405
    1STR    C0U19424  59.144  14.675   0.343
    1STR    C0V19425  59.220  14.764   0.265
    1STR    C0W19426  59.335  14.705   0.184
    1STR    C0X19427  59.184  14.901   0.258
    1STR    N0Y19428  59.260  14.994   0.187
    1STR   BCK219429  59.390  15.025   0.189
    1STR    O1019430  59.434  15.106   0.108
    1STR    C1319431  59.060  14.941   0.316
    1STR    C1419432  46.409  14.668   0.172
    1STR    C1519433  46.279  14.639   0.215
    1STR    C1619434  46.174  14.730   0.195
    1STR    C1719435  46.039  14.697   0.256
    1STR    H1B19436  46.094  15.027   0.159
    1STR    H1C19437  46.352  14.976   0.038
    1STR    H1D19438  46.593  14.908   0.025
    1STR    H1E19439  46.933  14.694   0.163
    1STR    H1F19440  46.948  14.701  60.017
    1STR    H1G19441  47.038  14.593  60.123
    1STR    H1H19442  46.863  14.579  60.112
    1STR    H1I19443  47.040  14.915   0.159
    1STR    H1J19444  47.061  14.905  60.145
    1STR    H1K19445  47.300  14.922   0.038
    1STR    H1M19446  47.299  14.817   0.327
    1STR    H1N19447  47.227  14.970   0.274
    1STR    H1O19448  47.401  14.948   0.268
    1STR    H1P19449  47.417  14.664   0.154
    1STR    H1Q19450  47.404  14.702  60.143
    1STR   C01019451  47.660  14.743   0.071
    1STR   H01119452  47.655  14.651   0.130
    1STR   C01219453  47.679  14.709  60.082
    1STR   H01319454  47.679  14.800  60.021
    1STR   H01419455  47.601  14.643  60.045
    1STR   H01519456  47.774  14.659  60.066
    1STR   C01619457  47.779  14.827   0.124
    1STR   H01719458  47.786  14.920   0.069
    1STR   H01819459  47.760  14.853   0.228
    1STR   O01919460  47.901  14.754   0.113
    1STR   C02019461  48.019  14.823   0.155
    1STR   H02119462  48.017  14.926   0.118
    1STR   C02219463  48.027  14.824   0.309
    1STR   H02319464  48.025  14.723   0.349
    1STR   H02419465  47.945  14.880   0.354
    1STR   H02519466  48.120  14.870   0.343
    1STR   C02619467  48.142  14.754   0.094
    1STR   H02719468  48.149  14.651   0.130
    1STR   H02819469  48.131  14.749  60.146
    1STR   O02919470  48.261  14.825   0.129
    1STR   C03019471  48.384  14.769   0.082
    1STR   H03119472  48.383  14.661   0.097
    1STR   C03219473  48.402  14.800  60.092
    1STR   H03319474  48.398  14.907  60.074
    1STR   H03419475  48.326  14.753  60.030
    1STR   H03519476  48.499  14.764  60.057
    1STR   C03619477  48.499  14.828   0.165
    1STR   H03719478  48.503  14.936   0.151
    1STR   H03819479  48.479  14.810   0.271
    1STR   O03919480  48.623  14.767   0.127
    1STR   C04019481  48.739  14.817   0.194
    1STR   H04119482  48.735  14.926   0.200
    1STR   C04219483  48.747  14.756   0.335
    1STR   H04319484  48.747  14.647   0.331
    1STR   H04419485  48.665  14.788   0.398
    1STR   H04519486  48.840  14.787   0.384
    1STR   C04619487  48.862  14.779   0.109
    1STR   H04719488  48.870  14.670   0.101
    1STR   H04819489  48.849  14.817   0.008
    1STR   O04919490  48.980  14.834   0.168
    1STR   C05019491  49.102  14.802   0.101
    1STR   H05119492  49.103  14.697   0.073
    1STR   C05219493  49.118  14.891  60.137
    1STR   H05319494  49.112  14.997   0.003
    1STR   H05419495  49.041  14.871  60.062
    1STR   H05519496  49.214  14.874  60.090
    1STR   C05619497  49.217  14.825   0.201
    1STR   H05719498  49.220  14.930   0.231
    1STR   H05819499  49.198  14.766   0.291
    1STR   O05919500  49.340  14.786   0.141
    1STR   C06019501  49.456  14.806   0.222
    1STR   H06119502  49.451  14.904   0.272
    1STR   C06219503  49.467  14.694   0.327
    1STR   H06319504  49.467  14.596   0.280
    1STR   H06419505  49.385  14.697   0.399
    1STR   H06519506  49.559  14.704   0.384
    1STR   C06619507  49.578  14.807   0.129
    1STR   H06719508  49.587  14.711   0.079
    1STR   H06819509  49.563  14.883   0.052
    1STR   O06919510  49.696  14.836   0.205
    1STR   C07019511  49.817  14.836   0.130
    1STR   H07119512  49.820  14.751   0.062
    1STR   C07219513  49.831  14.968   0.052
    1STR   H07319514  49.824  15.054   0.118
    1STR   H07419515  49.754  14.978  60.135
    1STR   H07519516  49.927  14.973   0.001
    1STR   C07619517  49.933  14.819   0.231
    1STR   H07719518  49.934  14.903   0.300
    1STR   H07819519  49.915  14.729   0.290
    1STR   O07919520  50.056  14.809   0.160
    1STR   C08019521  50.172  14.797   0.242
    1STR   H08119522  50.166  14.867   0.326
    1STR   C08219523  50.185  14.653   0.293
    1STR   H08319524  50.187  14.582   0.210
    1STR   H08419525  50.104  14.625   0.360
    1STR   H08519526  50.278  14.640   0.349
    1STR   C08619527  50.293  14.838   0.156
    1STR   H08719528  50.303  14.770   0.072
    1STR   H08819529  50.276  14.937   0.115
    1STR   O08919530  50.411  14.836   0.237
    1STR   C09019531  50.532  14.868   0.168
    1STR   H09119532  50.534  14.817   0.071
    1STR   C09219533  50.542  15.020   0.148
    1STR   H09319534  50.535  15.072   0.244
    1STR   H09419535  50.465  15.059   0.083
    1STR   H09519536  50.638  15.046   0.103
    1STR   C09619537  50.648  14.814   0.253
    1STR   H09719538  50.649  14.864   0.350
    1STR   H09819539  50.632  14.708   0.271
    1STR   O09919540  50.771  14.835   0.184
    1STR   C10019541  50.888  14.793   0.253
    1STR   H10119542  50.882  14.822   0.358
    1STR   C10219543  50.903  14.640   0.242
    1STR   H10319544  50.904  14.608   0.138
    1STR   H10419545  50.822  14.587   0.293
    1STR   H10519546  50.996  14.608   0.288
    1STR   C10619547  51.007  14.866   0.191
    1STR   H10719548  51.017  14.837   0.086
    1STR   H10819549  50.989  14.973   0.193
    1STR   O10919550  51.126  14.834   0.263
    1STR   C11019551  51.245  14.893   0.213
    1STR   H11119552  51.248  14.885   0.104
    1STR   C11219553  51.254  15.040   0.256
    1STR   H11319554  51.246  15.050   0.364
    1STR   H11419555  51.175  15.101   0.211
    1STR   H11519556  51.349  15.084   0.225
    1STR   C11619557  51.363  14.811   0.268
    1STR   H11719558  51.365  14.818   0.377
    1STR   H11819559  51.349  14.706   0.242
    1STR   O11919560  51.485  14.860   0.213
    1STR   C12019561  51.603  14.796   0.259
    1STR   H12119562  51.598  14.781   0.367
    1STR   C12219563  51.620  14.661   0.188
    1STR   H12319564  51.621  14.673   0.080
    1STR   H12419565  51.541  14.590   0.213
    1STR   H12519566  51.715  14.614   0.216
    1STR   C12619567  51.721  14.890   0.230
    1STR   H12719568  51.730  14.906   0.123
    1STR   H12819569  51.701  14.987   0.276
    1STR   O12919570  51.841  14.834   0.284
    1STR   C13019571  51.959  14.910   0.260
    1STR   H13119572  51.960  14.946   0.157
    1STR   C13219573  51.966  15.028   0.358
    1STR   H13319574  51.959  14.994   0.462
    1STR   H13419575  51.886  15.100   0.342
    1STR   H13519576  52.060  15.082   0.347
    1STR   C13619577  52.078  14.815   0.279
    1STR   H13719578  52.081  14.777   0.381
    1STR   H13819579  52.065  14.728   0.213
    1STR   O13919580  52.199  14.884   0.247
    1STR   C14019581  52.318  14.808   0.263
    1STR   H14119582  52.314  14.751   0.356
    1STR   C14219583  52.337  14.713   0.144
    1STR   H14319584  52.336  14.767   0.050
    1STR   H14419585  52.259  14.637   0.139
    1STR   H14519586  52.432  14.660   0.151
    1STR   C14619587  52.435  14.907   0.274
    1STR   H14719588  52.443  14.965   0.182
    1STR   H14819589  52.414  14.978   0.354
    1STR   O14919590  52.556  14.836   0.300
    1STR   C15019591  52.673  14.917   0.309
    1STR   H15119592  52.673  14.992   0.229
    1STR   C15219593  52.679  14.986   0.446
    1STR   H15319594  52.674  14.913   0.527
    1STR   H15419595  52.598  15.057   0.460
    1STR   H15519596  52.772  15.041   0.457
    1STR   C15619597  52.794  14.825   0.287
    1STR   H15719598  52.798  14.749   0.366
    1STR   H15819599  52.781  14.772   0.192
    1STR   O15919600  52.913  14.903   0.285
    1STR   C16019601  53.033  14.828   0.269
    1STR   H16119602  53.031  14.739   0.332
    1STR   C16219603  53.052  14.789   0.122
    1STR   H16319604  53.050  14.877   0.057
    1STR   H16419605  52.975  14.720   0.088
    1STR   H16519606  53.148  14.739   0.107
    1STR   C16619607  53.149  14.917   0.319
    1STR   H16719608  53.155  15.007   0.257
    1STR   H16819609  53.127  14.949   0.421
    1STR   O16919610  53.271  14.844   0.314
    1STR   C17019611  53.387  14.916   0.353
    1STR   H17119612  53.385  15.016   0.310
    1STR   C17219613  53.393  14.925   0.507
    1STR   H17319614  53.390  14.826   0.552
    1STR   H17419615  53.311  14.983   0.548
    1STR   H17519616  53.486  14.973   0.539
    1STR   C17619617  53.508  14.842   0.296
    1STR   H17719618  53.514  14.742   0.338
    1STR   H17819619  53.496  14.831   0.188
    1STR   O17919620  53.627  14.916   0.325
    1STR   C18019621  53.748  14.856   0.281
    1STR   H18119622  53.747  14.749   0.302
    1STR   C18219623  53.766  14.879   0.130
    1STR   H18319624  53.762  14.985   0.105
    1STR   H18419625  53.689  14.829   0.071
    1STR   H18519626  53.862  14.841   0.096
    1STR   C18619627  53.862  14.920   0.361
    1STR   H18719628  53.867  15.027   0.340
    1STR   H18819629  53.842  14.909   0.467
    1STR   O18919630  53.985  14.857   0.327
    1STR   C19019631  54.101  14.909   0.391
    1STR   H19119632  54.097  15.018   0.392
    1STR   C19219633  54.109  14.856   0.535
    1STR   H19319634  54.108  14.747   0.537
    1STR   H19419635  54.026  14.892   0.597
    1STR   H19519636  54.201  14.889   0.584
    1STR   C19619637  54.223  14.866   0.309
    1STR   H19719638  54.231  14.757   0.308
    1STR   H19819639  54.210  14.899   0.206
    1STR   O19919640  54.341  14.925   0.365
    1STR   C20019641  54.462  14.889   0.299
    1STR   H20119642  54.463  14.783   0.276
    1STR   C20219643  54.478  14.971   0.170
    1STR   H20319644  54.473  15.078   0.191
    1STR   H20419645  54.402  14.947   0.097
    1STR   H20519646  54.575  14.952   0.124
    1STR   C20619647  54.577  14.917   0.398
    1STR   H20719648  54.580  15.024   0.422
    1STR   H20819649  54.557  14.864   0.491
    1STR   O20919650  54.700  14.875   0.341
    1STR   C21019651  54.816  14.899   0.421
    1STR   H21119652  54.811  14.999   0.465
    1STR   C21219653  54.826  14.793   0.532
    1STR   H21319654  54.826  14.692   0.490
    1STR   H21419655  54.743  14.799   0.603
    1STR   H21519656  54.918  14.805   0.588
    1STR   C21619657  54.938  14.895   0.328
    1STR   H21719658  54.947  14.796   0.283
    1STR   H21819659  54.923  14.966   0.246
    1STR   O21919660  55.055  14.928   0.402
    1STR   C22019661  55.176  14.924   0.327
    1STR   H22119662  55.179  14.835   0.263
    1STR   C22219663  55.190  15.051   0.242
    1STR   H22319664  55.183  15.140   0.304
    1STR   H22419665  55.113  15.057   0.165
    1STR   H22519666  55.286  15.053   0.191
    1STR   C22619667  55.292  14.912   0.428
    1STR   H22719668  55.293  15.000   0.493
    1STR   H22819669  55.274  14.825   0.492
    1STR   O22919670  55.415  14.898   0.359
    1STR   C23019671  55.531  14.890   0.441
    1STR   H23119672  55.525  14.964   0.522
    1STR   C23219673  55.543  14.748   0.500
    1STR   H23319674  55.544  14.673   0.421
    1STR   H23419675  55.462  14.725   0.568
    1STR   H23519676  55.636  14.738   0.557
    1STR   C23619677  55.652  14.925   0.354
    1STR   H23719678  55.662  14.852   0.273
    1STR   H23819679  55.636  15.022   0.307
    1STR   O23919680  55.770  14.927   0.434
    1STR   C24019681  55.891  14.955   0.364
    1STR   H24119682  55.894  14.900   0.270
    1STR   C24219683  55.901  15.106   0.336
    1STR   H24319684  55.894  15.164   0.429
    1STR   H24419685  55.824  15.141   0.268
    1STR   H24519686  55.997  15.130   0.290
    1STR   C24619687  56.007  14.906   0.452
    1STR   H24719688  56.009  14.961   0.546
    1STR   H24819689  55.992  14.801   0.475
    1STR   O24919690  56.131  14.923   0.382
    1STR   C25019691  56.247  14.885   0.454
    1STR   H25119692  56.241  14.920   0.557
    1STR   C25219693  56.262  14.732   0.451
    1STR   H25319694  56.263  14.694   0.349
    1STR   H25419695  56.181  14.682   0.505
    1STR   H25519696  56.355  14.701   0.498
    1STR   C25619697  56.368  14.954   0.387
    1STR   H25719698  56.378  14.920   0.284
    1STR   H25819699  56.349  15.061   0.384
    1STR   O25919700  56.486  14.925   0.461
    1STR   C26019701  56.606  14.981   0.408
    1STR   H26119702  56.609  14.968   0.299
    1STR   C26219703  56.614  15.131   0.443
    1STR   H26319704  56.606  15.147   0.550
    1STR   H26419705  56.535  15.188   0.394
    1STR   H26519706  56.709  15.173   0.410
    1STR   C26619707  56.725  14.904   0.468
    1STR   H26719708  56.726  14.916   0.577
    1STR   H26819709  56.711  14.797   0.448
    1STR   O26919710  56.847  14.950   0.411
    1STR   C27019711  56.965  14.887   0.461
    1STR   H27119712  56.960  14.878   0.570
    1STR   C27219713  56.981  14.748   0.397
    1STR   H27319714  56.981  14.754   0.288
    1STR   H27419715  56.902  14.680   0.427
    1STR   H27519716  57.075  14.702   0.428
    1STR   C27619717  57.085  14.978   0.427
    1STR   H27719718  57.094  14.989   0.319
    1STR   H27819719  57.066  15.077   0.467
    1STR   O27919720  57.205  14.924   0.482
    1STR   C28019721  57.324  14.999   0.456
    1STR   H28119722  57.326  15.030   0.351
    1STR   C28219723  57.329  15.122   0.548
    1STR   H28319724  57.322  15.093   0.652
    1STR   H28419725  57.250  15.193   0.526
    1STR   H28519726  57.424  15.175   0.535
    1STR   C28619727  57.445  14.906   0.480
    1STR   H28719728  57.446  14.873   0.584
    1STR   H28819729  57.433  14.817   0.418
    1STR   O28919730  57.567  14.973   0.446
    1STR   C29019731  57.687  14.898   0.466
    1STR   H29119732  57.683  14.846   0.562
    1STR   C29219733  57.703  14.796   0.352
    1STR   H29319734  57.701  14.846   0.254
    1STR   H29419735  57.625  14.720   0.353
    1STR   H29519736  57.798  14.744   0.360
    1STR   C29619737  57.805  14.997   0.470
    1STR   H29719738  57.811  15.051   0.375
    1STR   H29819739  57.786  15.071   0.547
    1STR   O29919740  57.928  14.928   0.496
    1STR   C30019741  58.045  15.011   0.500
    1STR   H30119742  58.042  15.082   0.418
    1STR   C30219743  58.051  15.085   0.634
    1STR   H30319744  58.045  15.015   0.718
    1STR   H30419745  57.970  15.156   0.645
    1STR   H30519746  58.144  15.140   0.644
    1STR   C30619747  58.169  14.921   0.479
    1STR   H30719748  58.178  14.851   0.563
    1STR   H30819749  58.153  14.861   0.390
    1STR   O30919750  58.288  15.000   0.466
    1STR    H1R19751  58.415  14.846   0.521
    1STR    H1S19752  58.512  14.821   0.286
    1STR    H1T19753  58.404  14.948   0.231
    1STR    H1U19754  58.339  14.794   0.287
    1STR    H1V19755  58.516  15.075   0.566
    1STR    H1W19756  58.538  15.096   0.394
    1STR    H1X19757  58.822  14.820   0.519
    1STR    H1Y19758  58.968  14.646   0.462
    1STR    H1Z19759  59.174  14.572   0.352
    1STR    H2019760  59.357  14.766   0.096
    1STR    H2119761  59.425  14.696   0.244
    1STR    H2219762  59.309  14.606   0.148
    1STR    H2319763  59.209  15.053   0.122
    1STR    H2719764  59.027  15.044   0.305
    1STR    H2819765  46.482  14.592   0.191
    1STR    H2919766  46.260  14.545   0.265
    1STR    H2A19767  45.995  14.785   0.303
    1STR    H2B19768  46.047  14.619   0.332
    1STR    H2C19769  45.971  14.661   0.179
    1STR   BCK119770  45.987  15.009  15.018
    1STR    O0319771  45.929  15.115  14.998
    1STR    N0419772  46.115  14.983  14.984
    1STR    C0519773  46.203  15.053  14.898
    1STR    C0619774  46.342  15.065  14.930
    1STR    C0719775  46.436  15.125  14.841
    1STR    N0819776  46.575  15.130  14.872
    1STR    C0919777  46.681  15.165  14.795
    1STR    O0A19778  46.672  15.200  14.677
    1STR    O0B19779  46.800  15.158  14.861
    1STR    C0C19780  46.922  15.202  14.796
    1STR    C0D19781  46.935  15.354  14.809
    1STR    C0E19782  47.049  15.130  14.851
    1STR    O0F19783  47.167  15.176  14.783
    1STR    C0G19784  47.291  15.114  14.821
    1STR    C0H19785  47.301  14.976  14.754
    1STR    C0I19786  47.412  15.202  14.778
    1STR    O0J19787  47.535  15.143  14.823
    1STR    C0K19788  58.417  14.827  14.652
    1STR    C0M19789  58.416  14.969  14.710
    1STR    C0N19790  58.535  14.746  14.712
    1STR    O0O19791  58.661  14.799  14.669
    1STR    C0P19792  58.762  14.826  14.756
    1STR    O0Q19793  58.757  14.816  14.878
    1STR    N0R19794  58.867  14.868  14.686
    1STR    C0S19795  58.993  14.920  14.720
    1STR    C0T19796  59.059  14.988  14.616
    1STR    C0U19797  59.181  15.052  14.638
    1STR    C0V19798  59.243  15.048  14.764
    1STR    C0W19799  59.367  15.134  14.782
    1STR    C0X19800  59.187  14.969  14.868
    1STR    N0Y19801  59.254  14.955  14.992
    1STR   BCK219802  59.384  14.924  15.011
    1STR    O1019803  59.461  14.895  14.920
    1STR    C1319804  59.059  14.910  14.846
    1STR    C1419805  46.385  15.177  14.720
    1STR    C1519806  46.250  15.164  14.686
    1STR    C1619807  46.159  15.100  14.771
    1STR    C1719808  46.018  15.078  14.718
    1STR    H1B19809  46.151  14.898  15.025
    1STR    H1C19810  46.377  15.026  15.024
    1STR    H1D19811  46.604  15.104  14.964
    1STR    H1E19812  46.916  15.177  14.689
    1STR    H1F19813  46.943  15.385  14.913
    1STR    H1G19814  47.024  15.391  14.757
    1STR    H1H19815  46.849  15.405  14.765
    1STR    H1I19816  47.037  15.023  14.837
    1STR    H1J19817  47.058  15.148  14.958
    1STR    H1K19818  47.295  15.103  14.929
    1STR    H1M19819  47.294  14.984  14.646
    1STR    H1N19820  47.223  14.907  14.788
    1STR    H1O19821  47.397  14.929  14.778
    1STR    H1P19822  47.412  15.215  14.670
    1STR    H1Q19823  47.400  15.302  14.821
    1STR   C01019824  47.656  15.211  14.786
    1STR   H01119825  47.651  15.240  14.680
    1STR   C01219826  47.674  15.336  14.873
    1STR   H01319827  47.675  15.311  14.979
    1STR   H01419828  47.597  15.411  14.856
    1STR   H01519829  47.770  15.385  14.851
    1STR   C01619830  47.775  15.114  14.803
    1STR   H01719831  47.781  15.082  14.907
    1STR   H01819832  47.756  15.025  14.743
    1STR   O01919833  47.898  15.175  14.763
    1STR   C02019834  48.016  15.095  14.779
    1STR   H02119835  48.014  15.045  14.876
    1STR   C02219836  48.024  14.991  14.667
    1STR   H02319837  48.022  15.039  14.569
    1STR   H02419838  47.942  14.919  14.671
    1STR   H02519839  48.117  14.934  14.673
    1STR   C02619840  48.140  15.188  14.777
    1STR   H02719841  48.146  15.240  14.682
    1STR   H02819842  48.128  15.264  14.855
    1STR   O02919843  48.259  15.111  14.800
    1STR   C03019844  48.381  15.185  14.796
    1STR   H03119845  48.381  15.254  14.712
    1STR   C03219846  48.400  15.263  14.928
    1STR   H03319847  48.396  15.196  15.014
    1STR   H03419848  48.324  15.339  14.941
    1STR   H03519849  48.497  15.313  14.929
    1STR   C03619850  48.497  15.085  14.775
    1STR   H03719851  48.501  15.014  14.858
    1STR   H03819852  48.478  15.027  14.685
    1STR   O03919853  48.621  15.155  14.763
    1STR   C04019854  48.737  15.074  14.747
    1STR   H04119855  48.733  14.989  14.816
    1STR   C04219856  48.746  15.023  14.602
    1STR   H04319857  48.745  15.106  14.531
    1STR   H04419858  48.664  14.956  14.576
    1STR   H04519859  48.838  14.967  14.586
    1STR   C04619860  48.860  15.159  14.784
    1STR   H04719861  48.868  15.244  14.716
    1STR   H04819862  48.847  15.199  14.884
    1STR   O04919863  48.978  15.078  14.777
    1STR   C05019864  49.101  15.147  14.805
    1STR   H05119865  49.102  15.244  14.755
    1STR   C05219866  49.117  15.165  14.956
    1STR   H05319867  49.111  15.070  15.009
    1STR   H05419868  49.041  15.231  14.998
    1STR   H05519869  49.213  15.210  14.980
    1STR   C05619870  49.216  15.062  14.747
    1STR   H05719871  49.219  14.965  14.795
    1STR   H05819872  49.197  15.045  14.641
    1STR   O05919873  49.340  15.131  14.765
    1STR   C06019874  49.455  15.062  14.718
    1STR   H06119875  49.450  14.957  14.747
    1STR   C06219876  49.466  15.074  14.565
    1STR   H06319877  49.466  15.179  14.534
    1STR   H06419878  49.384  15.024  14.514
    1STR   H06519879  49.558  15.029  14.529
    1STR   C06619880  49.578  15.124  14.788
    1STR   H06719881  49.587  15.229  14.760
    1STR   H06819882  49.563  15.120  14.896
    1STR   O06919883  49.695  15.052  14.752
    1STR   C07019884  49.817  15.102  14.806
    1STR   H07119885  49.819  15.211  14.799
    1STR   C07219886  49.830  15.058  14.953
    1STR   H07319887  49.823  14.950  14.963
    1STR   H07419888  49.753  15.103  15.016
    1STR   H07519889  49.927  15.089  14.994
    1STR   C07619890  49.932  15.047  14.721
    1STR   H07719891  49.934  14.938  14.727
    1STR   H07819892  49.915  15.073  14.617
    1STR   O07919893  50.056  15.102  14.766
    1STR   C08019894  50.172  15.055  14.698
    1STR   H08119895  50.166  14.947  14.682
    1STR   C08219896  50.185  15.128  14.563
    1STR   H08319897  50.186  15.236  14.576
    1STR   H08419898  50.104  15.103  14.495
    1STR   H08519899  50.278  15.099  14.513
    1STR   C08619900  50.293  15.083  14.788
    1STR   H08719901  50.303  15.191  14.805
    1STR   H08819902  50.276  15.037  14.886
    1STR   O08919903  50.411  15.030  14.728
    1STR   C09019904  50.531  15.054  14.800
    1STR   H09119905  50.534  15.156  14.837
    1STR   C09219906  50.542  14.955  14.917
    1STR   H09319907  50.535  14.852  14.882
    1STR   H09419908  50.465  14.971  14.992
    1STR   H09519909  50.638  14.966  14.968
    1STR   C09619910  50.648  15.036  14.701
    1STR   H09719911  50.649  14.934  14.663
    1STR   H09819912  50.632  15.102  14.615
    1STR   O09919913  50.771  15.067  14.766
    1STR   C10019914  50.887  15.051  14.686
    1STR   H10119915  50.882  14.958  14.629
    1STR   C10219916  50.903  15.171  14.591
    1STR   H10319917  50.904  15.265  14.647
    1STR   H10419918  50.822  15.176  14.518
    1STR   H10519919  50.996  15.164  14.535
    1STR   C10619920  51.007  15.040  14.782
    1STR   H10719921  51.017  15.132  14.840
    1STR   H10819922  50.988  14.959  14.853
    1STR   O10919923  51.126  15.014  14.707
    1STR   C11019924  51.245  15.005  14.784
    1STR   H11119925  51.248  15.084  14.859
    1STR   C11219926  51.254  14.868  14.852
    1STR   H11319927  51.246  14.787  14.779
    1STR   H11419928  51.175  14.853  14.925
    1STR   H11519929  51.349  14.856  14.904
    1STR   C11619930  51.363  15.028  14.688
    1STR   H11719931  51.365  14.949  14.612
    1STR   H11819932  51.349  15.122  14.636
    1STR   O11919933  51.485  15.029  14.762
    1STR   C12019934  51.603  15.045  14.684
    1STR   H12119935  51.598  14.983  14.594
    1STR   C12219936  51.620  15.193  14.645
    1STR   H12319937  51.621  15.257  14.733
    1STR   H12419938  51.541  15.228  14.579
    1STR   H12519939  51.715  15.208  14.593
    1STR   C12619940  51.721  14.995  14.769
    1STR   H12719941  51.731  15.056  14.859
    1STR   H12819942  51.701  14.893  14.801
    1STR   O12919943  51.841  15.000  14.691
    1STR   C13019944  51.959  14.960  14.760
    1STR   H13119945  51.960  15.003  14.861
    1STR   C13219946  51.966  14.807  14.767
    1STR   H13319947  51.959  14.762  14.668
    1STR   H13419948  51.886  14.765  14.828
    1STR   H13519949  52.060  14.775  14.812
    1STR   C13619950  52.078  15.018  14.682
    1STR   H13719951  52.081  14.977  14.582
    1STR   H13819952  52.065  15.126  14.672
    1STR   O13919953  52.199  14.989  14.752
    1STR   C14019954  52.318  15.033  14.689
    1STR   H14119955  52.314  15.013  14.582
    1STR   C14219956  52.337  15.184  14.713
    1STR   H14319957  52.336  15.207  14.819
    1STR   H14419958  52.259  15.243  14.665
    1STR   H14519959  52.432  15.218  14.672
    1STR   C14619960  52.435  14.953  14.748
    1STR   H14719961  52.443  14.972  14.855
    1STR   H14819962  52.414  14.846  14.737
    1STR   O14919963  52.556  14.987  14.681
    1STR   C15019964  52.673  14.922  14.729
    1STR   H15119965  52.673  14.921  14.839
    1STR   C15219966  52.679  14.778  14.675
    1STR   H15319967  52.674  14.777  14.566
    1STR   H15419968  52.598  14.716  14.713
    1STR   H15519969  52.772  14.730  14.704
    1STR   C15619970  52.793  15.005  14.683
    1STR   H15719971  52.798  15.007  14.574
    1STR   H15819972  52.781  15.108  14.717
    1STR   O15919973  52.913  14.949  14.737
    1STR   C16019974  53.033  15.014  14.698
    1STR   H16119975  53.031  15.038  14.592
    1STR   C16219976  53.052  15.143  14.780
    1STR   H16319977  53.050  15.122  14.887
    1STR   H16419978  52.975  15.217  14.759
    1STR   H16519979  53.148  15.189  14.758
    1STR   C16619980  53.149  14.915  14.722
    1STR   H16719981  53.155  14.891  14.828
    1STR   H16819982  53.127  14.823  14.669
    1STR   O16919983  53.271  14.973  14.676
    1STR   C17019984  53.387  14.893  14.696
    1STR   H17119985  53.385  14.848  14.796
    1STR   C17219986  53.393  14.782  14.589
    1STR   H17319987  53.390  14.825  14.488
    1STR   H17419988  53.311  14.711  14.598
    1STR   H17519989  53.486  14.726  14.598
    1STR   C17619990  53.508  14.986  14.688
    1STR   H17719991  53.514  15.031  14.589
    1STR   H17819992  53.496  15.067  14.760
    1STR   O17919993  53.627  14.912  14.717
    1STR   C18019994  53.748  14.986  14.709
    1STR   H18119995  53.747  15.050  14.621
    1STR   C18219996  53.766  15.071  14.836
    1STR   H18319997  53.762  15.009  14.926
    1STR   H18419998  53.689  15.148  14.845
    1STR   H18519999  53.862  15.122  14.835
    1STR   C18620000  53.863  14.885  14.693
    1STR   H18720001  53.867  14.820  14.780
    1STR   H18820002  53.842  14.821  14.607
    1STR   O18920003  53.986  14.955  14.675
    1STR   C19020004  54.101  14.872  14.663
    1STR   H19120005  54.097  14.791  14.737
    1STR   C19220006  54.109  14.814  14.521
    1STR   H19320007  54.108  14.893  14.446
    1STR   H19420008  54.027  14.746  14.500
    1STR   H19520009  54.201  14.757  14.508
    1STR   C19620010  54.223  14.960  14.695
    1STR   H19720011  54.231  15.041  14.622
    1STR   H19820012  54.210  15.005  14.793
    1STR   O19920013  54.341  14.879  14.693
    1STR   C20020014  54.462  14.949  14.718
    1STR   H20120015  54.464  15.043  14.662
    1STR   C20220016  54.478  14.976  14.868
    1STR   H20320017  54.473  14.883  14.925
    1STR   H20420018  54.402  15.043  14.906
    1STR   H20520019  54.575  15.022  14.889
    1STR   C20620020  54.577  14.862  14.664
    1STR   H20720021  54.580  14.767  14.718
    1STR   H20820022  54.558  14.838  14.559
    1STR   O20920023  54.700  14.931  14.677
    1STR   C21020024  54.816  14.859  14.634
    1STR   H21120025  54.811  14.756  14.669
    1STR   C21220026  54.826  14.863  14.481
    1STR   H21320027  54.826  14.966  14.444
    1STR   H21420028  54.743  14.810  14.433
    1STR   H21520029  54.918  14.816  14.448
    1STR   C21620030  54.938  14.926  14.700
    1STR   H21720031  54.947  15.029  14.667
    1STR   H21820032  54.923  14.928  14.808
    1STR   O21920033  55.055  14.851  14.668
    1STR   C22020034  55.177  14.905  14.720
    1STR   H22120035  55.179  15.013  14.707
    1STR   C22220036  55.190  14.868  14.869
    1STR   H22320037  55.183  14.761  14.884
    1STR   H22420038  55.113  14.916  14.930
    1STR   H22520039  55.286  14.901  14.908
    1STR   C22620040  55.292  14.845  14.637
    1STR   H22720041  55.294  14.737  14.649
    1STR   H22820042  55.274  14.866  14.532
    1STR   O22920043  55.416  14.902  14.680
    1STR   C23020044  55.531  14.853  14.613
    1STR   H23120045  55.526  14.744  14.604
    1STR   C23220046  55.544  14.917  14.474
    1STR   H23320047  55.545  15.026  14.481
    1STR   H23420048  55.462  14.888  14.408
    1STR   H23520049  55.636  14.887  14.426
    1STR   C23620050  55.653  14.886  14.701
    1STR   H23720051  55.663  14.994  14.712
    1STR   H23820052  55.636  14.845  14.801
    1STR   O23920053  55.771  14.830  14.644
    1STR   C24020054  55.892  14.856  14.714
    1STR   H24120055  55.895  14.961  14.746
    1STR   C24220056  55.902  14.764  14.837
    1STR   H24320057  55.894  14.659  14.807
    1STR   H24420058  55.825  14.784  14.910
    1STR   H24520059  55.998  14.777  14.887
    1STR   C24620060  56.009  14.833  14.617
    1STR   H24720061  56.010  14.729  14.584
    1STR   H24820062  55.993  14.895  14.528
    1STR   O24920063  56.132  14.868  14.680
    1STR   C25020064  56.249  14.848  14.601
    1STR   H25120065  56.243  14.752  14.548
    1STR   C25220066  56.263  14.962  14.499
    1STR   H25320067  56.263  15.059  14.549
    1STR   H25420068  56.182  14.963  14.426
    1STR   H25520069  56.356  14.953  14.444
    1STR   C25620070  56.369  14.842  14.696
    1STR   H25720071  56.379  14.937  14.749
    1STR   H25820072  56.351  14.765  14.771
    1STR   O25920073  56.488  14.813  14.622
    1STR   C26020074  56.608  14.808  14.699
    1STR   H26120075  56.611  14.891  14.770
    1STR   C26220076  56.615  14.674  14.775
    1STR   H26320077  56.607  14.590  14.706
    1STR   H26420078  56.537  14.664  14.849
    1STR   H26520079  56.710  14.665  14.827
    1STR   C26620080  56.727  14.824  14.603
    1STR   H26720081  56.728  14.742  14.531
    1STR   H26820082  56.713  14.916  14.546
    1STR   O26920083  56.850  14.828  14.676
    1STR   C27020084  56.968  14.841  14.597
    1STR   H27120085  56.963  14.775  14.511
    1STR   C27220086  56.983  14.987  14.550
    1STR   H27320087  56.983  15.056  14.635
    1STR   H27420088  56.904  15.017  14.482
    1STR   H27520089  57.078  15.001  14.497
    1STR   C27620090  57.088  14.797  14.683
    1STR   H27720091  57.097  14.862  14.770
    1STR   H27820092  57.069  14.697  14.720
    1STR   O27920093  57.209  14.800  14.606
    1STR   C28020094  57.328  14.763  14.676
    1STR   H28120095  57.330  14.810  14.774
    1STR   C28220096  57.332  14.610  14.692
    1STR   H28320097  57.324  14.560  14.595
    1STR   H28420098  57.253  14.572  14.756
    1STR   H28520099  57.427  14.579  14.737
    1STR   C28620100  57.449  14.814  14.596
    1STR   H28720101  57.451  14.768  14.497
    1STR   H28820102  57.437  14.922  14.581
    1STR   O28920103  57.571  14.787  14.665
    1STR   C29020104  57.691  14.830  14.600
    1STR   H29120105  57.688  14.803  14.494
    1STR   C29220106  57.706  14.982  14.615
    1STR   H29320107  57.703  15.012  14.720
    1STR   H29420108  57.628  15.037  14.563
    1STR   H29520109  57.802  15.016  14.574
    1STR   C29620110  57.811  14.755  14.664
    1STR   H29720111  57.816  14.779  14.771
    1STR   H29820112  57.793  14.648  14.657
    1STR   O29920113  57.934  14.790  14.600
    1STR   C30020114  58.052  14.727  14.654
    1STR   H30120115  58.047  14.729  14.763
    1STR   C30220116  58.059  14.581  14.604
    1STR   H30320117  58.054  14.576  14.496
    1STR   H30420118  57.978  14.520  14.644
    1STR   H30520119  58.152  14.534  14.635
    1STR   C30620120  58.177  14.807  14.611
    1STR   H30720121  58.191  14.799  14.503
    1STR   H30820122  58.159  14.912  14.634
    1STR   O30920123  58.294  14.760  14.681
    1STR    H1R20124  58.431  14.832  14.544
    1STR    H1S20125  58.512  15.018  14.696
    1STR    H1T20126  58.396  14.967  14.817
    1STR    H1U20127  58.341  15.033  14.664
    1STR    H1V20128  58.530  14.643  14.679
    1STR    H1W20129  58.527  14.743  14.821
    1STR    H1X20130  58.845  14.866  14.588
    1STR    H1Y20131  59.015  14.995  14.517
    1STR    H1Z20132  59.227  15.107  14.557
    1STR    H2020133  59.378  15.166  14.886
    1STR    H2120134  59.457  15.080  14.753
    1STR    H2220135  59.361  15.224  14.721
    1STR    H2320136  59.199  14.962  15.076
    1STR    H2720137  59.011  14.854  14.925
    1STR    H2820138  46.448  15.228  14.648
    1STR    H2920139  46.217  15.202  14.590
    1STR    H2A20140  45.977  14.983  14.753
    1STR    H2B20141  46.018  15.076  14.609
    1STR    H2C20142  45.953  15.159  14.751
    1STR   BCK120143  45.991  14.953  30.228
    1STR    O0320144  45.975  14.921  30.345
    1STR    N0420145  46.100  15.019  30.183
    1STR    C0520146  46.201  15.076  30.262
    1STR    C0620147  46.340  15.046  30.240
    1STR    C0720148  46.443  15.103  30.320
    1STR    N0820149  46.580  15.076  30.295
    1STR    C0920150  46.688  15.097  30.373
    1STR    O0A20151  46.683  15.139  30.488
    1STR    O0B20152  46.806  15.067  30.310
    1STR    C0C20153  46.931  15.079  30.382
    1STR    C0D20154  46.951  14.956  30.472
    1STR    C0E20155  47.053  15.099  30.288
    1STR    O0F20156  47.173  15.113  30.366
    1STR    C0G20157  47.295  15.133  30.293
    1STR    C0H20158  47.304  15.280  30.247
    1STR    C0I20159  47.416  15.097  30.383
    1STR    O0J20160  47.539  15.110  30.310
    1STR    C0K20161  58.415  15.454  30.229
    1STR    C0M20162  58.410  15.310  30.283
    1STR    C0N20163  58.540  15.470  30.137
    1STR    O0O20164  58.659  15.468  30.218
    1STR    C0P20165  58.765  15.388  30.192
    1STR    O0Q20166  58.776  15.307  30.101
    1STR    N0R20167  58.856  15.412  30.286
    1STR    C0S20168  58.982  15.362  30.321
    1STR    C0T20169  59.036  15.416  30.438
    1STR    C0U20170  59.162  15.376  30.485
    1STR    C0V20171  59.240  15.282  30.415
    1STR    C0W20172  59.375  15.253  30.475
    1STR    C0X20173  59.191  15.225  30.293
    1STR    N0Y20174  59.265  15.143  30.205
    1STR   BCK220175  59.377  15.069  30.193
    1STR    O1020176  59.410  15.036  30.080
    1STR    C1320177  59.060  15.266  30.249
    1STR    C1420178  46.404  15.192  30.423
    1STR    C1520179  46.270  15.225  30.443
    1STR    C1620180  46.168  15.171  30.362
    1STR    C1720181  46.027  15.221  30.383
    1STR    H1B20182  46.105  15.032  30.083
    1STR    H1C20183  46.366  14.978  30.161
    1STR    H1D20184  46.605  15.033  30.207
    1STR    H1E20185  46.926  15.168  30.446
    1STR    H1F20186  46.957  14.865  30.413
    1STR    H1G20187  47.042  14.965  30.531
    1STR    H1H20188  46.869  14.945  30.543
    1STR    H1I20189  47.037  15.189  30.228
    1STR    H1J20190  47.062  15.015  30.220
    1STR    H1K20191  47.298  15.067  30.206
    1STR    H1M20192  47.298  15.348  30.332
    1STR    H1N20193  47.224  15.306  30.177
    1STR    H1O20194  47.398  15.299  30.196
    1STR    H1P20195  47.417  15.162  30.470
    1STR    H1Q20196  47.404  14.995  30.419
    1STR   C01020197  47.659  15.085  30.383
    1STR   H01120198  47.655  15.135  30.480
    1STR   C01220199  47.678  14.934  30.403
    1STR   H01320200  47.678  14.881  30.307
    1STR   H01420201  47.600  14.891  30.465
    1STR   H01520202  47.773  14.913  30.451
    1STR   C01620203  47.778  15.145  30.304
    1STR   H01720204  47.784  15.098  30.205
    1STR   H01820205  47.759  15.251  30.287
    1STR   O01920206  47.901  15.128  30.375
    1STR   C02020207  48.018  15.176  30.309
    1STR   H02120208  48.016  15.148  30.204
    1STR   C02220209  48.026  15.329  30.322
    1STR   H02320210  48.024  15.360  30.427
    1STR   H02420211  47.945  15.379  30.270
    1STR   H02520212  48.119  15.366  30.279
    1STR   C02620213  48.142  15.109  30.373
    1STR   H02720214  48.148  15.135  30.479
    1STR   H02820215  48.130  15.001  30.368
    1STR   O02920216  48.261  15.149  30.305
    1STR   C03020217  48.383  15.098  30.357
    1STR   H03120218  48.383  15.104  30.466
    1STR   C03220219  48.401  14.952  30.313
    1STR   H03320220  48.398  14.943  30.205
    1STR   H03420221  48.325  14.886  30.355
    1STR   H03520222  48.498  14.913  30.346
    1STR   C03620223  48.499  15.186  30.306
    1STR   H03720224  48.503  15.182  30.197
    1STR   H03820225  48.479  15.290  30.333
    1STR   O03920226  48.622  15.142  30.362
    1STR   C04020227  48.738  15.213  30.319
    1STR   H04120228  48.735  15.229  30.211
    1STR   C04220229  48.747  15.348  30.392
    1STR   H04320230  48.746  15.335  30.500
    1STR   H04420231  48.665  15.415  30.366
    1STR   H04520232  48.839  15.400  30.366
    1STR   C04620233  48.861  15.126  30.350
    1STR   H04720234  48.869  15.109  30.457
    1STR   H04820235  48.848  15.029  30.302
    1STR   O04920236  48.979  15.190  30.300
    1STR   C05020237  49.101  15.120  30.326
    1STR   H05120238  49.103  15.082  30.428
    1STR   C05220239  49.117  15.004  30.226
    1STR   H05320240  49.112  15.039  30.123
    1STR   H05420241  49.041  14.928  30.240
    1STR   H05520242  49.214  14.955  30.239
    1STR   C05620243  49.216  15.222  30.312
    1STR   H05720244  49.219  15.261  30.210
    1STR   H05820245  49.198  15.306  30.378
    1STR   O05920246  49.340  15.159  30.345
    1STR   C06020247  49.456  15.241  30.332
    1STR   H06120248  49.451  15.299  30.240
    1STR   C06220249  49.466  15.336  30.453
    1STR   H06320250  49.467  15.280  30.547
    1STR   H06420251  49.384  15.407  30.457
    1STR   H06520252  49.559  15.393  30.449
    1STR   C06620253  49.578  15.148  30.323
    1STR   H06720254  49.587  15.090  30.414
    1STR   H06820255  49.563  15.078  30.241
    1STR   O06920256  49.696  15.226  30.301
    1STR   C07020257  49.817  15.152  30.294
    1STR   H07120258  49.820  15.076  30.373
    1STR   C07220259  49.830  15.085  30.156
    1STR   H07320260  49.824  15.159  30.076
    1STR   H07420261  49.754  15.010  30.139
    1STR   H07520262  49.927  15.035  30.147
    1STR   C07620263  49.932  15.250  30.320
    1STR   H07720264  49.934  15.327  30.242
    1STR   H07820265  49.915  15.301  30.415
    1STR   O07920266  50.056  15.179  30.323
    1STR   C08020267  50.172  15.260  30.343
    1STR   H08120268  50.166  15.350  30.281
    1STR   C08220269  50.185  15.298  30.491
    1STR   H08320270  50.186  15.209  30.554
    1STR   H08420271  50.104  15.362  30.524
    1STR   H08520272  50.278  15.352  30.509
    1STR   C08620273  50.293  15.178  30.295
    1STR   H08720274  50.303  15.088  30.356
    1STR   H08820275  50.276  15.146  30.192
    1STR   O08920276  50.411  15.258  30.304
    1STR   C09020277  50.532  15.192  30.266
    1STR   H09120278  50.534  15.091  30.308
    1STR   C09220279  50.542  15.186  30.113
    1STR   H09320280  50.535  15.285  30.069
    1STR   H09420281  50.465  15.124  30.069
    1STR   H09520282  50.638  15.143  30.083
    1STR   C09620283  50.648  15.272  30.327
    1STR   H09720284  50.649  15.373  30.286
    1STR   H09820285  50.632  15.281  30.435
    1STR   O09920286  50.771  15.205  30.300
    1STR   C10020287  50.888  15.271  30.349
    1STR   H10120288  50.882  15.378  30.328
    1STR   C10220289  50.903  15.246  30.500
    1STR   H10320290  50.904  15.140  30.522
    1STR   H10420291  50.822  15.292  30.557
    1STR   H10520292  50.996  15.289  30.536
    1STR   C10620293  51.007  15.214  30.270
    1STR   H10720294  51.017  15.108  30.289
    1STR   H10820295  50.989  15.226  30.164
    1STR   O10920296  51.126  15.284  30.308
    1STR   C11020297  51.245  15.239  30.245
    1STR   H11120298  51.248  15.130  30.243
    1STR   C11220299  51.254  15.295  30.102
    1STR   H11320300  51.246  15.403  30.102
    1STR   H11420301  51.175  15.256  30.038
    1STR   H11520302  51.349  15.268  30.056
    1STR   C11620303  51.363  15.287  30.331
    1STR   H11720304  51.365  15.396  30.334
    1STR   H11820305  51.349  15.252  30.434
    1STR   O11920306  51.485  15.236  30.278
    1STR   C12020307  51.603  15.277  30.346
    1STR   H12120308  51.598  15.383  30.370
    1STR   C12220309  51.620  15.194  30.475
    1STR   H12320310  51.621  15.087  30.453
    1STR   H12420311  51.541  15.213  30.547
    1STR   H12520312  51.715  15.219  30.524
    1STR   C12620313  51.721  15.257  30.250
    1STR   H12720314  51.731  15.151  30.224
    1STR   H12820315  51.701  15.310  30.157
    1STR   O12920316  51.841  15.305  30.310
    1STR   C13020317  51.959  15.288  30.233
    1STR   H13120318  51.960  15.189  30.187
    1STR   C13220319  51.966  15.397  30.124
    1STR   H13320320  51.959  15.496  30.167
    1STR   H13420321  51.885  15.387  30.051
    1STR   H13520322  52.060  15.390  30.069
    1STR   C13620323  52.078  15.298  30.329
    1STR   H13720324  52.081  15.397  30.375
    1STR   H13820325  52.065  15.225  30.409
    1STR   O13920326  52.199  15.272  30.257
    1STR   C14020327  52.318  15.282  30.334
    1STR   H14120328  52.314  15.370  30.399
    1STR   C14220329  52.337  15.155  30.419
    1STR   H14320330  52.336  15.066  30.356
    1STR   H14420331  52.259  15.143  30.494
    1STR   H14520332  52.432  15.157  30.472
    1STR   C14620333  52.435  15.301  30.236
    1STR   H14720334  52.443  15.215  30.170
    1STR   H14820335  52.414  15.388  30.173
    1STR   O14920336  52.556  15.321  30.309
    1STR   C15020337  52.673  15.337  30.229
    1STR   H15120338  52.673  15.264  30.148
    1STR   C15220339  52.679  15.480  30.173
    1STR   H15320340  52.674  15.554  30.252
    1STR   H15420341  52.598  15.500  30.103
    1STR   H15520342  52.772  15.495  30.118
    1STR   C15620343  52.793  15.307  30.319
    1STR   H15720344  52.798  15.379  30.401
    1STR   H15820345  52.781  15.208  30.364
    1STR   O15920346  52.913  15.312  30.242
    1STR   C16020347  53.033  15.290  30.314
    1STR   H16120348  53.031  15.344  30.409
    1STR   C16220349  53.052  15.139  30.341
    1STR   H16320350  53.050  15.083  30.247
    1STR   H16420351  52.975  15.099  30.406
    1STR   H16520352  53.148  15.120  30.389
    1STR   C16620353  53.149  15.347  30.230
    1STR   H16720354  53.155  15.293  30.135
    1STR   H16820355  53.127  15.451  30.207
    1STR   O16920356  53.271  15.335  30.303
    1STR   C17020357  53.387  15.381  30.234
    1STR   H17120358  53.385  15.347  30.130
    1STR   C17220359  53.393  15.535  30.239
    1STR   H17320360  53.390  15.571  30.342
    1STR   H17420361  53.311  15.581  30.185
    1STR   H17520362  53.486  15.571  30.194
    1STR   C17620363  53.508  15.317  30.303
    1STR   H17720364  53.514  15.351  30.407
    1STR   H17820365  53.496  15.209  30.305
    1STR   O17920366  53.627  15.353  30.232
    1STR   C18020367  53.748  15.303  30.287
    1STR   H18120368  53.747  15.316  30.396
    1STR   C18220369  53.766  15.155  30.251
    1STR   H18320370  53.762  15.140  30.143
    1STR   H18420371  53.689  15.092  30.297
    1STR   H18520372  53.862  15.118  30.286
    1STR   C18620373  53.862  15.389  30.231
    1STR   H18720374  53.867  15.378  30.122
    1STR   H18820375  53.842  15.494  30.251
    1STR   O18920376  53.985  15.349  30.291
    1STR   C19020377  54.101  15.418  30.244
    1STR   H19120378  54.097  15.428  30.136
    1STR   C19220379  54.109  15.557  30.310
    1STR   H19320380  54.108  15.550  30.419
    1STR   H19420381  54.026  15.622  30.280
    1STR   H19520382  54.201  15.608  30.281
    1STR   C19620383  54.223  15.333  30.280
    1STR   H19720384  54.231  15.322  30.388
    1STR   H19820385  54.210  15.233  30.239
    1STR   O19920386  54.341  15.393  30.227
    1STR   C20020387  54.462  15.325  30.256
    1STR   H20120388  54.463  15.293  30.360
    1STR   C20220389  54.478  15.204  30.163
    1STR   H20320390  54.473  15.233  30.058
    1STR   H20420391  54.402  15.128  30.181
    1STR   H20520392  54.575  15.156  30.179
    1STR   C20620393  54.577  15.426  30.237
    1STR   H20720394  54.580  15.459  30.133
    1STR   H20820395  54.557  15.514  30.298
    1STR   O20920396  54.700  15.365  30.274
    1STR   C21020397  54.816  15.447  30.257
    1STR   H21120398  54.811  15.500  30.161
    1STR   C21220399  54.826  15.548  30.373
    1STR   H21320400  54.826  15.497  30.469
    1STR   H21420401  54.743  15.619  30.372
    1STR   H21520402  54.918  15.606  30.365
    1STR   C21620403  54.938  15.354  30.253
    1STR   H21720404  54.947  15.301  30.348
    1STR   H21820405  54.923  15.279  30.176
    1STR   O21920406  55.055  15.430  30.227
    1STR   C22020407  55.177  15.356  30.225
    1STR   H22120408  55.179  15.285  30.307
    1STR   C22220409  55.190  15.282  30.091
    1STR   H22320410  55.183  15.351  30.007
    1STR   H22420411  55.113  15.206  30.078
    1STR   H22520412  55.286  15.231  30.084
    1STR   C22620413  55.292  15.456  30.245
    1STR   H22720414  55.294  15.528  30.163
    1STR   H22820415  55.274  15.512  30.337
    1STR   O22920416  55.415  15.385  30.253
    1STR   C23020417  55.531  15.467  30.268
    1STR   H23120418  55.525  15.553  30.202
    1STR   C23220419  55.544  15.513  30.414
    1STR   H23320420  55.545  15.428  30.482
    1STR   H23420421  55.462  15.579  30.444
    1STR   H23520422  55.636  15.568  30.429
    1STR   C23620423  55.653  15.383  30.225
    1STR   H23720424  55.663  15.296  30.291
    1STR   H23820425  55.636  15.345  30.124
    1STR   O23920426  55.771  15.463  30.230
    1STR   C24020427  55.891  15.395  30.196
    1STR   H24120428  55.894  15.297  30.243
    1STR   C24220429  55.902  15.381  30.043
    1STR   H24320430  55.894  15.478  29.994
    1STR   H24420431  55.824  15.316  30.003
    1STR   H24520432  55.998  15.337  30.015
    1STR   C24620433  56.008  15.478  30.253
    1STR   H24720434  56.009  15.577  30.207
    1STR   H24820435  55.992  15.493  30.359
    1STR   O24920436  56.131  15.410  30.229
    1STR   C25020437  56.248  15.478  30.274
    1STR   H25120438  56.242  15.584  30.248
    1STR   C25220439  56.262  15.462  30.426
    1STR   H25320440  56.263  15.357  30.455
    1STR   H25420441  56.182  15.511  30.481
    1STR   H25520442  56.356  15.507  30.461
    1STR   C25620443  56.369  15.418  30.200
    1STR   H25720444  56.379  15.312  30.225
    1STR   H25820445  56.351  15.424  30.093
    1STR   O25920446  56.488  15.489  30.235
    1STR   C26020447  56.608  15.441  30.174
    1STR   H26120448  56.611  15.332  30.178
    1STR   C26220449  56.615  15.489  30.028
    1STR   H26320450  56.607  15.597  30.022
    1STR   H26420451  56.536  15.446  29.967
    1STR   H26520452  56.710  15.460  29.983
    1STR   C26620453  56.727  15.494  30.257
    1STR   H26720454  56.727  15.603  30.254
    1STR   H26820455  56.713  15.465  30.361
    1STR   O26920456  56.849  15.442  30.206
    1STR   C27020457  56.968  15.486  30.273
    1STR   H27120458  56.962  15.593  30.292
    1STR   C27220459  56.983  15.410  30.406
    1STR   H27320460  56.983  15.302  30.390
    1STR   H27420461  56.903  15.433  30.476
    1STR   H27520462  57.077  15.436  30.454
    1STR   C27620463  57.088  15.460  30.180
    1STR   H27720464  57.096  15.353  30.159
    1STR   H27820465  57.069  15.509  30.084
    1STR   O27920466  57.208  15.510  30.238
    1STR   C28020467  57.327  15.490  30.161
    1STR   H28120468  57.329  15.389  30.121
    1STR   C28220469  57.332  15.593  30.047
    1STR   H28320470  57.323  15.695  30.084
    1STR   H28420471  57.252  15.577  29.974
    1STR   H28520472  57.426  15.585  29.992
    1STR   C28620473  57.449  15.506  30.255
    1STR   H28720474  57.450  15.607  30.297
    1STR   H28820475  57.437  15.437  30.339
    1STR   O28920476  57.571  15.480  30.185
    1STR   C29020477  57.691  15.492  30.261
    1STR   H29120478  57.688  15.583  30.321
    1STR   C29220479  57.707  15.370  30.353
    1STR   H29320480  57.703  15.277  30.296
    1STR   H29420481  57.629  15.365  30.429
    1STR   H29520482  57.802  15.373  30.406
    1STR   C29620483  57.810  15.504  30.163
    1STR   H29720484  57.815  15.414  30.101
    1STR   H29820485  57.792  15.588  30.096
    1STR   O29920486  57.934  15.522  30.233
    1STR   C30020487  58.051  15.531  30.151
    1STR   H30120488  58.047  15.456  30.072
    1STR   C30220489  58.059  15.672  30.090
    1STR   H30320490  58.054  15.749  30.167
    1STR   H30420491  57.978  15.691  30.019
    1STR   H30520492  58.152  15.685  30.035
    1STR   C30620493  58.176  15.500  30.237
    1STR   H30720494  58.190  15.579  30.312
    1STR   H30820495  58.156  15.408  30.292
    1STR   O30920496  58.295  15.485  30.157
    1STR    H1R20497  58.426  15.524  30.312
    1STR    H1S20498  58.504  15.282  30.329
    1STR    H1T20499  58.391  15.239  30.202
    1STR    H1U20500  58.332  15.296  30.358
    1STR    H1V20501  58.536  15.566  30.086
    1STR    H1W20502  58.542  15.393  30.059
    1STR    H1X20503  58.820  15.484  30.346
    1STR    H1Y20504  58.982  15.490  30.495
    1STR    H1Z20505  59.199  15.421  30.576
    1STR    H2020506  59.375  15.152  30.515
    1STR    H2120507  59.453  15.266  30.400
    1STR    H2220508  59.399  15.320  30.558
    1STR    H2320509  59.223  15.140  30.113
    1STR    H2720510  59.019  15.226  30.158
    1STR    H2820511  46.476  15.240  30.488
    1STR    H2920512  46.245  15.295  30.522
    1STR    H2A20513  45.976  15.235  30.288
    1STR    H2B20514  46.026  15.317  30.435
    1STR    H2C20515  45.969  15.150  30.443
    1STR   BCK120516  45.986  14.925  45.136
    1STR    O0320517  45.951  14.947  45.021
    1STR    N0420518  46.112  14.891  45.171
    1STR    C0520519  46.209  14.834  45.087
    1STR    C0620520  46.344  14.880  45.086
    1STR    C0720521  46.446  14.815  45.008
    1STR    N0820522  46.581  14.856  45.012
    1STR    C0920523  46.691  14.788  44.975
    1STR    O0A20524  46.690  14.671  44.936
    1STR    O0B20525  46.806  14.861  44.986
    1STR    C0C20526  46.931  14.806  44.936
    1STR    C0D20527  46.942  14.837  44.785
    1STR    C0E20528  47.054  14.858  45.013
    1STR    O0F20529  47.174  14.796  44.962
    1STR    C0G20530  47.296  14.829  45.028
    1STR    C0H20531  47.306  14.750  45.160
    1STR    C0I20532  47.416  14.794  44.936
    1STR    O0J20533  47.539  14.833  44.998
    1STR    C0K20534  58.407  14.618  45.302
    1STR    C0M20535  58.411  14.696  45.170
    1STR    C0N20536  58.526  14.657  45.392
    1STR    O0O20537  58.648  14.607  45.336
    1STR    C0P20538  58.757  14.685  45.322
    1STR    O0Q20539  58.765  14.804  45.352
    1STR    N0R20540  58.856  14.613  45.269
    1STR    C0S20541  58.985  14.646  45.226
    1STR    C0T20542  59.047  14.554  45.139
    1STR    C0U20543  59.173  14.583  45.082
    1STR    C0V20544  59.240  14.703  45.112
    1STR    C0W20545  59.364  14.736  45.031
    1STR    C0X20546  59.185  14.792  45.208
    1STR    N0Y20547  59.247  14.914  45.239
    1STR   BCK220548  59.370  14.948  45.278
    1STR    O1020549  59.398  15.067  45.289
    1STR    C1320550  59.056  14.764  45.261
    1STR    C1420551  46.404  14.707  44.927
    1STR    C1520552  46.273  14.658  44.930
    1STR    C1620553  46.176  14.718  45.012
    1STR    C1720554  46.040  14.651  45.021
    1STR    H1B20555  46.132  14.895  45.270
    1STR    H1C20556  46.371  14.965  45.147
    1STR    H1D20557  46.602  14.948  45.047
    1STR    H1E20558  46.930  14.698  44.948
    1STR    H1F20559  46.946  14.944  44.766
    1STR    H1G20560  47.033  14.793  44.744
    1STR    H1H20561  46.858  14.795  44.730
    1STR    H1I20562  47.042  14.835  45.119
    1STR    H1J20563  47.062  14.967  45.004
    1STR    H1K20564  47.300  14.936  45.048
    1STR    H1M20565  47.299  14.643  45.142
    1STR    H1N20566  47.228  14.778  45.231
    1STR    H1O20567  47.401  14.769  45.209
    1STR    H1P20568  47.417  14.687  44.915
    1STR    H1Q20569  47.404  14.846  44.841
    1STR   C01020570  47.659  14.802  44.927
    1STR   H01120571  47.655  14.700  44.889
    1STR   C01220572  47.678  14.900  44.810
    1STR   H01320573  47.678  15.003  44.845
    1STR   H01420574  47.600  14.890  44.735
    1STR   H01520575  47.773  14.883  44.760
    1STR   C01620576  47.778  14.811  45.026
    1STR   H01720577  47.784  14.912  45.067
    1STR   H01820578  47.759  14.744  45.110
    1STR   O01920579  47.901  14.776  44.961
    1STR   C02020580  48.018  14.785  45.042
    1STR   H02120581  48.016  14.877  45.101
    1STR   C02220582  48.026  14.663  45.136
    1STR   H02320583  48.024  14.570  45.080
    1STR   H02420584  47.945  14.661  45.208
    1STR   H02520585  48.119  14.665  45.194
    1STR   C02620586  48.142  14.791  44.950
    1STR   H02720587  48.148  14.700  44.890
    1STR   H02820588  48.130  14.874  44.881
    1STR   O02920589  48.261  14.807  45.028
    1STR   C03020590  48.383  14.810  44.954
    1STR   H03120591  48.383  14.732  44.878
    1STR   C03220592  48.401  14.948  44.888
    1STR   H03320593  48.397  15.028  44.962
    1STR   H03420594  48.325  14.968  44.813
    1STR   H03520595  48.498  14.954  44.838
    1STR   C03620596  48.499  14.780  45.052
    1STR   H03720597  48.503  14.857  45.129
    1STR   H03820598  48.479  14.685  45.102
    1STR   O03920599  48.622  14.774  44.981
    1STR   C04020600  48.738  14.751  45.061
    1STR   H04120601  48.734  14.812  45.151
    1STR   C04220602  48.747  14.602  45.098
    1STR   H04320603  48.746  14.539  45.009
    1STR   H04420604  48.665  14.571  45.162
    1STR   H04520605  48.839  14.581  45.153
    1STR   C04620606  48.861  14.795  44.979
    1STR   H04720607  48.869  14.735  44.888
    1STR   H04820608  48.848  14.898  44.948
    1STR   O04920609  48.979  14.781  45.059
    1STR   C05020610  49.101  14.815  44.993
    1STR   H05120611  49.103  14.773  44.892
    1STR   C05220612  49.117  14.968  44.988
    1STR   H05320613  49.112  15.011  45.087
    1STR   H05420614  49.041  15.015  44.926
    1STR   H05520615  49.214  14.995  44.945
    1STR   C05620616  49.216  14.750  45.072
    1STR   H05720617  49.219  14.789  45.173
    1STR   H05820618  49.198  14.643  45.080
    1STR   O05920619  49.340  14.773  45.005
    1STR   C06020620  49.456  14.721  45.070
    1STR   H06120621  49.451  14.741  45.177
    1STR   C06220622  49.466  14.570  45.045
    1STR   H06320623  49.467  14.548  44.938
    1STR   H06420624  49.384  14.515  45.090
    1STR   H06520625  49.559  14.530  45.087
    1STR   C06620626  49.578  14.796  45.014
    1STR   H06720627  49.587  14.778  44.907
    1STR   H06820628  49.563  14.903  45.027
    1STR   O06920629  49.696  14.754  45.083
    1STR   C07020630  49.817  14.813  45.038
    1STR   H07120631  49.820  14.815  44.929
    1STR   C07220632  49.830  14.955  45.095
    1STR   H07320633  49.824  14.955  45.203
    1STR   H07420634  49.754  15.022  45.056
    1STR   H07520635  49.927  14.998  45.068
    1STR   C07620636  49.933  14.723  45.085
    1STR   H07720637  49.934  14.719  45.194
    1STR   H07820638  49.915  14.621  45.050
    1STR   O07920639  50.056  14.773  45.035
    1STR   C08020640  50.172  14.700  45.075
    1STR   H08120641  50.166  14.676  45.181
    1STR   C08220642  50.185  14.572  44.991
    1STR   H08320643  50.186  14.595  44.884
    1STR   H08420644  50.104  14.502  45.010
    1STR   H08520645  50.278  14.520  45.015
    1STR   C08620646  50.293  14.793  45.055
    1STR   H08720647  50.303  14.819  44.949
    1STR   H08820648  50.276  14.886  45.109
    1STR   O08920649  50.411  14.728  45.102
    1STR   C09020650  50.532  14.802  45.086
    1STR   H09120651  50.534  14.848  44.987
    1STR   C09220652  50.542  14.910  45.194
    1STR   H09320653  50.535  14.866  45.294
    1STR   H09420654  50.465  14.986  45.185
    1STR   H09520655  50.638  14.962  45.188
    1STR   C09620656  50.648  14.702  45.094
    1STR   H09720657  50.649  14.655  45.193
    1STR   H09820658  50.632  14.623  45.021
    1STR   O09920659  50.771  14.770  45.069
    1STR   C10020660  50.888  14.688  45.078
    1STR   H10120661  50.882  14.623  45.165
    1STR   C10220662  50.903  14.604  44.950
    1STR   H10320663  50.904  14.668  44.861
    1STR   H10420664  50.822  14.532  44.938
    1STR   H10520665  50.996  14.548  44.952
    1STR   C10620666  51.007  14.783  45.098
    1STR   H10720667  51.017  14.849  45.011
    1STR   H10820668  50.988  14.846  45.184
    1STR   O10920669  51.126  14.706  45.117
    1STR   C11020670  51.245  14.782  45.133
    1STR   H11120671  51.248  14.864  45.060
    1STR   C11220672  51.254  14.837  45.276
    1STR   H11320673  51.246  14.757  45.349
    1STR   H11420674  51.175  14.909  45.297
    1STR   H11520675  51.349  14.888  45.292
    1STR   C11620676  51.363  14.688  45.102
    1STR   H11720677  51.365  14.606  45.173
    1STR   H11820678  51.349  14.645  45.003
    1STR   O11920679  51.485  14.762  45.107
    1STR   C12020680  51.603  14.686  45.084
    1STR   H12120681  51.598  14.591  45.138
    1STR   C12220682  51.620  14.660  44.933
    1STR   H12320683  51.621  14.754  44.877
    1STR   H12420684  51.541  14.597  44.893
    1STR   H12520685  51.715  14.609  44.913
    1STR   C12620686  51.721  14.766  45.141
    1STR   H12720687  51.731  14.861  45.088
    1STR   H12820688  51.701  14.789  45.246
    1STR   O12920689  51.841  14.689  45.129
    1STR   C13020690  51.959  14.754  45.175
    1STR   H13120691  51.960  14.858  45.141
    1STR   C13220692  51.966  14.748  45.329
    1STR   H13320693  51.959  14.645  45.364
    1STR   H13420694  51.885  14.805  45.376
    1STR   H13520695  52.060  14.790  45.365
    1STR   C13620696  52.078  14.682  45.111
    1STR   H13720697  52.081  14.578  45.143
    1STR   H13820698  52.065  14.681  45.003
    1STR   O13920699  52.199  14.749  45.146
    1STR   C14020700  52.318  14.689  45.096
    1STR   H14120701  52.314  14.581  45.107
    1STR   C14220702  52.337  14.726  44.948
    1STR   H14320703  52.336  14.834  44.934
    1STR   H14420704  52.259  14.684  44.885
    1STR   H14520705  52.432  14.689  44.910
    1STR   C14620706  52.435  14.742  45.182
    1STR   H14720707  52.443  14.850  45.171
    1STR   H14820708  52.414  14.721  45.287
    1STR   O14920709  52.556  14.678  45.141
    1STR   C15020710  52.673  14.720  45.211
    1STR   H15120711  52.673  14.829  45.221
    1STR   C15220712  52.679  14.653  45.349
    1STR   H15320713  52.674  14.545  45.340
    1STR   H15420714  52.598  14.686  45.414
    1STR   H15520715  52.772  14.678  45.400
    1STR   C15620716  52.793  14.681  45.124
    1STR   H15720717  52.798  14.573  45.112
    1STR   H15820718  52.781  14.724  45.024
    1STR   O15920719  52.913  14.730  45.184
    1STR   C16020720  53.033  14.697  45.116
    1STR   H16120721  53.031  14.593  45.083
    1STR   C16220722  53.052  14.790  44.995
    1STR   H16320723  53.050  14.895  45.025
    1STR   H16420724  52.975  14.776  44.919
    1STR   H16520725  53.148  14.772  44.946
    1STR   C16620726  53.149  14.712  45.216
    1STR   H16720727  53.155  14.816  45.250
    1STR   H16820728  53.127  14.651  45.304
    1STR   O16920729  53.271  14.671  45.155
    1STR   C17020730  53.387  14.684  45.237
    1STR   H17120731  53.385  14.780  45.290
    1STR   C17220732  53.393  14.568  45.337
    1STR   H17320733  53.390  14.472  45.286
    1STR   H17420734  53.311  14.570  45.408
    1STR   H17520735  53.486  14.572  45.394
    1STR   C17620736  53.508  14.685  45.143
    1STR   H17720737  53.514  14.590  45.089
    1STR   H17820738  53.496  14.763  45.069
    1STR   O17920739  53.627  14.707  45.219
    1STR   C18020740  53.748  14.706  45.145
    1STR   H18120741  53.747  14.623  45.073
    1STR   C18220742  53.766  14.840  45.071
    1STR   H18320743  53.762  14.923  45.141
    1STR   H18420744  53.689  14.855  44.995
    1STR   H18520745  53.862  14.843  45.021
    1STR   C18620746  53.863  14.681  45.244
    1STR   H18720747  53.867  14.762  45.317
    1STR   H18820748  53.842  14.590  45.300
    1STR   O18920749  53.985  14.669  45.173
    1STR   C19020750  54.101  14.650  45.254
    1STR   H19120751  54.097  14.716  45.341
    1STR   C19220752  54.109  14.503  45.300
    1STR   H19320753  54.108  14.436  45.214
    1STR   H19420754  54.026  14.476  45.365
    1STR   H19520755  54.201  14.485  45.355
    1STR   C19620756  54.223  14.689  45.170
    1STR   H19720757  54.231  14.624  45.083
    1STR   H19820758  54.210  14.791  45.133
    1STR   O19920759  54.341  14.681  45.250
    1STR   C20020760  54.462  14.711  45.183
    1STR   H20120761  54.463  14.664  45.084
    1STR   C20220762  54.478  14.863  45.169
    1STR   H20320763  54.473  14.912  45.267
    1STR   H20420764  54.402  14.907  45.106
    1STR   H20520765  54.575  14.888  45.125
    1STR   C20620766  54.577  14.650  45.265
    1STR   H20720767  54.580  14.695  45.364
    1STR   H20820768  54.557  14.543  45.279
    1STR   O20920769  54.700  14.669  45.196
    1STR   C21020770  54.816  14.620  45.264
    1STR   H21120771  54.811  14.646  45.370
    1STR   C21220772  54.826  14.468  45.247
    1STR   H21320773  54.826  14.440  45.142
    1STR   H21420774  54.743  14.416  45.296
    1STR   H21520775  54.918  14.430  45.292
    1STR   C21620776  54.938  14.692  45.204
    1STR   H21720777  54.947  14.667  45.098
    1STR   H21820778  54.923  14.800  45.211
    1STR   O21920779  55.055  14.653  45.275
    1STR   C22020780  55.176  14.710  45.227
    1STR   H22120781  55.179  14.706  45.118
    1STR   C22220782  55.190  14.855  45.276
    1STR   H22320783  55.183  14.860  45.384
    1STR   H22420784  55.113  14.920  45.234
    1STR   H22520785  55.286  14.896  45.246
    1STR   C22620786  55.292  14.622  45.279
    1STR   H22720787  55.293  14.624  45.388
    1STR   H22820788  55.274  14.519  45.249
    1STR   O22920789  55.415  14.669  45.226
    1STR   C23020790  55.531  14.598  45.269
    1STR   H23120791  55.525  14.579  45.377
    1STR   C23220792  55.543  14.466  45.193
    1STR   H23320793  55.544  14.482  45.085
    1STR   H23420794  55.462  14.397  45.216
    1STR   H23520795  55.636  14.414  45.219
    1STR   C23620796  55.652  14.689  45.244
    1STR   H23720797  55.662  14.709  45.137
    1STR   H23820798  55.636  14.785  45.293
    1STR   O23920799  55.770  14.627  45.295
    1STR   C24020800  55.891  14.700  45.274
    1STR   H24120801  55.894  14.740  45.173
    1STR   C24220802  55.901  14.813  45.377
    1STR   H24320803  55.894  14.775  45.479
    1STR   H24420804  55.824  14.889  45.364
    1STR   H24520805  55.997  14.865  45.368
    1STR   C24620806  56.007  14.600  45.289
    1STR   H24720807  56.009  14.558  45.389
    1STR   H24820808  55.991  14.517  45.220
    1STR   O24920809  56.130  14.666  45.260
    1STR   C25020810  56.247  14.585  45.273
    1STR   H25120811  56.241  14.525  45.364
    1STR   C25220812  56.262  14.494  45.150
    1STR   H25320813  56.263  14.553  45.058
    1STR   H25420814  56.181  14.422  45.142
    1STR   H25520815  56.355  14.438  45.154
    1STR   C25620816  56.367  14.680  45.287
    1STR   H25720817  56.377  14.741  45.197
    1STR   H25820818  56.349  14.748  45.370
    1STR   O25920819  56.486  14.604  45.310
    1STR   C26020820  56.606  14.681  45.321
    1STR   H26120821  56.609  14.758  45.245
    1STR   C26220822  56.614  14.744  45.461
    1STR   H26320823  56.606  14.668  45.539
    1STR   H26420824  56.535  14.817  45.478
    1STR   H26520825  56.709  14.796  45.475
    1STR   C26620826  56.724  14.585  45.296
    1STR   H26720827  56.725  14.507  45.372
    1STR   H26820828  56.710  14.537  45.200
    1STR   O26920829  56.847  14.659  45.298
    1STR   C27020830  56.965  14.581  45.279
    1STR   H27120831  56.959  14.489  45.338
    1STR   C27220832  56.981  14.547  45.130
    1STR   H27320833  56.981  14.637  45.069
    1STR   H27420834  56.901  14.482  45.093
    1STR   H27520835  57.075  14.495  45.112
    1STR   C27620836  57.084  14.663  45.330
    1STR   H27720837  57.093  14.756  45.273
    1STR   H27820838  57.065  14.692  45.434
    1STR   O27920839  57.204  14.587  45.321
    1STR   C28020840  57.323  14.653  45.364
    1STR   H28120841  57.325  14.755  45.325
    1STR   C28220842  57.329  14.655  45.518
    1STR   H28320843  57.321  14.555  45.559
    1STR   H28420844  57.249  14.716  45.561
    1STR   H28520845  57.423  14.698  45.552
    1STR   C28620846  57.444  14.578  45.305
    1STR   H28720847  57.445  14.475  45.343
    1STR   H28820848  57.431  14.572  45.197
    1STR   O28920849  57.565  14.645  45.338
    1STR   C29020850  57.685  14.584  45.290
    1STR   H29120851  57.681  14.476  45.308
    1STR   C29220852  57.702  14.613  45.140
    1STR   H29320853  57.700  14.720  45.120
    1STR   H29420854  57.624  14.566  45.080
    1STR   H29520855  57.797  14.574  45.104
    1STR   C29620856  57.803  14.641  45.372
    1STR   H29720857  57.809  14.749  45.357
    1STR   H29820858  57.783  14.624  45.478
    1STR   O29920859  57.926  14.578  45.333
    1STR   C30020860  58.043  14.625  45.401
    1STR   H30120861  58.040  14.734  45.408
    1STR   C30220862  58.049  14.563  45.542
    1STR   H30320863  58.044  14.455  45.537
    1STR   H30420864  57.967  14.598  45.606
    1STR   H30520865  58.142  14.590  45.592
    1STR   C30620866  58.166  14.586  45.317
    1STR   H30720867  58.176  14.478  45.313
    1STR   H30820868  58.150  14.621  45.215
    1STR   O30920869  58.285  14.646  45.372
    1STR    H1R20870  58.413  14.511  45.283
    1STR    H1S20871  58.507  14.683  45.120
    1STR    H1T20872  58.398  14.803  45.187
    1STR    H1U20873  58.335  14.664  45.100
    1STR    H1V20874  58.515  14.613  45.491
    1STR    H1W20875  58.529  14.765  45.407
    1STR    H1X20876  58.825  14.519  45.253
    1STR    H1Y20877  58.998  14.462  45.111
    1STR    H1Z20878  59.215  14.514  45.011
    1STR    H2020879  59.374  14.844  45.017
    1STR    H2120880  59.454  14.699  45.079
    1STR    H2220881  59.359  14.692  44.931
    1STR    H2320882  59.187  14.995  45.235
    1STR    H2720883  59.011  14.834  45.329
    1STR    H2820884  46.473  14.656  44.861
    1STR    H2920885  46.248  14.572  44.870
    1STR    H2A20886  46.003  14.653  45.123
    1STR    H2B20887  46.045  14.546  44.991
    1STR    H2C20888  45.968  14.701  44.957
    1STR   BCK120889  45.984  30.092   0.044
    1STR    O0320890  45.927  30.191   0.090
    1STR    N0420891  46.111  30.092  60.157
    1STR    C0520892  46.200  30.199  60.131
    1STR    C0620893  46.340  30.185  60.157
    1STR    C0720894  46.436  30.287  60.126
    1STR    N0820895  46.575  30.269  60.148
    1STR    C0920896  46.680  30.352  60.127
    1STR    O0A20897  46.670  30.468  60.089
    1STR    O0B20898  46.801  30.295  60.155
    1STR    C0C20899  46.923  30.374  60.145
    1STR    C0D20900  46.939  30.458   0.113
    1STR    C0E20901  47.049  30.287  60.119
    1STR    O0F20902  47.168  30.368  60.113
    1STR    C0G20903  47.291  30.300  60.086
    1STR    C0H20904  47.300  30.268  59.936
    1STR    C0I20905  47.412  30.387  60.130
    1STR    O0J20906  47.535  30.316  60.110
    1STR    C0K20907  58.421  30.261  59.767
    1STR    C0M20908  58.413  30.304  59.915
    1STR    C0N20909  58.542  30.166  59.748
    1STR    O0O20910  58.666  30.236  59.767
    1STR    C0P20911  58.764  30.190  59.850
    1STR    O0Q20912  58.757  30.093  59.924
    1STR    N0R20913  58.869  30.271  59.837
    1STR    C0S20914  58.996  30.282  59.896
    1STR    C0T20915  59.069  30.395  59.855
    1STR    C0U20916  59.193  30.426  59.912
    1STR    C0V20917  59.250  30.343  60.010
    1STR    C0W20918  59.377  30.394  60.077
    1STR    C0X20919  59.186  30.221  60.047
    1STR    N0Y20920  59.248  30.137  60.142
    1STR   BCK220921  59.376  30.095  60.141
    1STR    O1020922  59.450  30.105  60.043
    1STR    C1320923  59.057  30.194  59.992
    1STR    C1420924  46.385  30.406  60.069
    1STR    C1520925  46.249  30.421  60.040
    1STR    C1620926  46.157  30.318  60.066
    1STR    C1720927  46.015  30.340  60.016
    1STR    H1B20928  46.145  29.999  60.138
    1STR    H1C20929  46.375  30.094   0.043
    1STR    H1D20930  46.606  30.180   0.023
    1STR    H1E20931  46.913  30.442  60.060
    1STR    H1F20932  46.950  30.395   0.201
    1STR    H1G20933  47.028  30.521   0.107
    1STR    H1H20934  46.854  30.524   0.128
    1STR    H1I20935  47.035  30.232  60.026
    1STR    H1J20936  47.059  30.212   0.038
    1STR    H1K20937  47.295  30.207  60.144
    1STR    H1M20938  47.294  30.358  59.876
    1STR    H1N20939  47.222  30.200  59.903
    1STR    H1O20940  47.396  30.220  59.912
    1STR    H1P20941  47.413  30.480  60.073
    1STR    H1Q20942  47.400  30.414   0.075
    1STR   C01020943  47.656  30.386  60.141
    1STR   H01120944  47.652  30.487  60.100
    1STR   C01220945  47.675  30.393   0.134
    1STR   H01320946  47.674  30.293   0.178
    1STR   H01420947  47.597  30.451   0.182
    1STR   H01520948  47.770  30.439   0.159
    1STR   C01620949  47.775  30.313  60.074
    1STR   H01720950  47.781  30.211  60.112
    1STR   H01820951  47.756  30.306  59.967
    1STR   O01920952  47.898  30.382  60.099
    1STR   C02020953  48.016  30.320  60.045
    1STR   H02120954  48.014  30.213  60.065
    1STR   C02220955  48.024  30.346  59.894
    1STR   H02320956  48.022  30.453  59.872
    1STR   H02420957  47.942  30.299  59.840
    1STR   H02520958  48.117  30.306  59.853
    1STR   C02620959  48.140  30.378  60.118
    1STR   H02720960  48.146  30.486  60.101
    1STR   H02820961  48.129  30.363   0.065
    1STR   O02920962  48.259  30.314  60.071
    1STR   C03020963  48.382  30.361  60.127
    1STR   H03120964  48.381  30.470  60.130
    1STR   C03220965  48.400  30.304   0.108
    1STR   H03320966  48.396  30.196   0.108
    1STR   H03420967  48.324  30.340   0.178
    1STR   H03520968  48.497  30.334   0.149
    1STR   C03620969  48.497  30.318  60.034
    1STR   H03720970  48.502  30.209  60.029
    1STR   H03820971  48.478  30.354  59.934
    1STR   O03920972  48.621  30.370  60.083
    1STR   C04020973  48.737  30.333  60.008
    1STR   H04120974  48.733  30.227  59.983
    1STR   C04220975  48.746  30.418  59.880
    1STR   H04320976  48.745  30.524  59.903
    1STR   H04420977  48.664  30.397  59.812
    1STR   H04520978  48.838  30.396  59.826
    1STR   C04620979  48.861  30.356  60.098
    1STR   H04720980  48.868  30.461  60.125
    1STR   H04820981  48.848  30.300   0.031
    1STR   O04920982  48.979  30.313  60.030
    1STR   C05020983  49.101  30.332  60.101
    1STR   H05120984  49.102  30.431  60.148
    1STR   C05220985  49.117  30.223   0.049
    1STR   H05320986  49.111  30.123   0.005
    1STR   H05420987  49.041  30.230   0.126
    1STR   H05520988  49.214  30.232   0.098
    1STR   C05620989  49.216  30.327  59.999
    1STR   H05720990  49.219  30.229  59.951
    1STR   H05820991  49.197  30.400  59.921
    1STR   O05920992  49.340  30.354  60.065
    1STR   C06020993  49.455  30.349  59.982
    1STR   H06120994  49.450  30.262  59.916
    1STR   C06220995  49.466  30.477  59.898
    1STR   H06320996  49.467  30.566  59.962
    1STR   H06420997  49.384  30.488  59.827
    1STR   H06520998  49.558  30.478  59.840
    1STR   C06620999  49.578  30.331  60.073
    1STR   H06721000  49.587  30.417  60.140
    1STR   H06821001  49.563  30.244  60.136
    1STR   O06921002  49.695  30.316  59.994
    1STR   C07021003  49.817  30.303  60.067
    1STR   H07121004  49.819  30.375  60.149
    1STR   C07221005  49.830  30.160  60.121
    1STR   H07321006  49.823  30.087  60.041
    1STR   H07421007  49.753  30.137   0.035
    1STR   H07521008  49.927  30.146   0.010
    1STR   C07621009  49.932  30.337  59.971
    1STR   H07721010  49.934  30.267  59.888
    1STR   H07821011  49.915  30.436  59.929
    1STR   O07921012  50.056  30.335  60.043
    1STR   C08021013  50.172  30.361  59.964
    1STR   H08121014  50.166  30.308  59.869
    1STR   C08221015  50.185  30.512  59.939
    1STR   H08321016  50.186  30.567  60.033
    1STR   H08421017  50.104  30.551  59.878
    1STR   H08521018  50.278  30.534  59.886
    1STR   C08621019  50.293  30.306  60.041
    1STR   H08721020  50.303  30.358  60.137
    1STR   H08821021  50.276  30.201  60.064
    1STR   O08921022  50.411  30.322  59.962
    1STR   C09021023  50.531  30.279  60.024
    1STR   H09121024  50.534  30.312  60.129
    1STR   C09221025  50.542  30.125  60.017
    1STR   H09321026  50.535  30.090  59.914
    1STR   H09421027  50.465  30.076  60.075
    1STR   H09521028  50.638  30.092  60.057
    1STR   C09621029  50.648  30.346  59.950
    1STR   H09721030  50.649  30.315  59.846
    1STR   H09821031  50.632  30.454  59.951
    1STR   O09921032  50.771  30.314  60.015
    1STR   C10021033  50.887  30.367  59.953
    1STR   H10121034  50.882  30.356  59.845
    1STR   C10221035  50.903  30.516  59.991
    1STR   H10321036  50.904  30.529  60.099
    1STR   H10421037  50.822  30.577  59.950
    1STR   H10521038  50.996  30.556  59.951
    1STR   C10621039  51.007  30.285  60.003
    1STR   H10721040  51.017  30.295  60.111
    1STR   H10821041  50.989  30.179  59.982
    1STR   O10921042  51.126  30.328  59.937
    1STR   C11021043  51.245  30.262  59.976
    1STR   H11121044  51.248  30.250  60.085
    1STR   C11221045  51.254  30.124  59.908
    1STR   H11321046  51.247  30.134  59.800
    1STR   H11421047  51.175  30.057  59.941
    1STR   H11521048  51.349  30.076  59.931
    1STR   C11621049  51.363  30.352  59.936
    1STR   H11721050  51.365  30.364  59.827
    1STR   H11821051  51.349  30.451  59.979
    1STR   O11921052  51.485  30.294  59.982
    1STR   C12021053  51.603  30.366  59.947
    1STR   H12121054  51.598  30.399  59.844
    1STR   C12221055  51.620  30.486  60.041
    1STR   H12321056  51.621  30.455  60.146
    1STR   H12421057  51.541  30.560  60.028
    1STR   H12521058  51.715  30.537  60.021
    1STR   C12621059  51.721  30.268  59.960
    1STR   H12721060  51.731  30.234  60.063
    1STR   H12821061  51.701  30.180  59.898
    1STR   O12921062  51.841  30.332  59.916
    1STR   C13021063  51.959  30.254  59.926
    1STR   H13121064  51.960  30.200  60.021
    1STR   C13221065  51.966  30.154  59.809
    1STR   H13321066  51.959  30.206  59.713
    1STR   H13421067  51.885  30.081  59.813
    1STR   H13521068  52.060  30.099  59.811
    1STR   C13621069  52.078  30.350  59.925
    1STR   H13721070  52.081  30.405  59.831
    1STR   H13821071  52.065  30.424  60.004
    1STR   O13921072  52.199  30.277  59.944
    1STR   C14021073  52.318  30.355  59.941
    1STR   H14121074  52.314  30.427  59.859
    1STR   C14221075  52.337  30.428  60.075
    1STR   H14321076  52.336  30.357  60.159
    1STR   H14421077  52.259  30.501  60.093
    1STR   H14521078  52.432  30.481  60.077
    1STR   C14621079  52.435  30.258  59.913
    1STR   H14721080  52.443  30.185  59.994
    1STR   H14821081  52.414  30.203  59.822
    1STR   O14921082  52.556  30.333  59.900
    1STR   C15021083  52.673  30.255  59.877
    1STR   H15121084  52.673  30.167  59.943
    1STR   C15221085  52.679  30.211  59.730
    1STR   H15321086  52.674  30.296  59.663
    1STR   H15421087  52.598  30.143  59.704
    1STR   H15521088  52.772  30.158  59.710
    1STR   C15621089  52.793  30.342  59.915
    1STR   H15721090  52.798  30.430  59.850
    1STR   H15821091  52.781  30.378  60.017
    1STR   O15921092  52.913  30.265  59.904
    1STR   C16021093  53.033  30.335  59.932
    1STR   H16121094  53.031  30.434  59.886
    1STR   C16221095  53.052  30.348  60.084
    1STR   H16321096  53.050  30.251  60.132
    1STR   H16421097  52.975  30.410  60.130
    1STR   H16521098  53.148  30.395  60.107
    1STR   C16621099  53.149  30.256  59.868
    1STR   H16721100  53.155  30.157  59.913
    1STR   H16821101  53.127  30.242  59.762
    1STR   O16921102  53.271  30.328  59.885
    1STR   C17021103  53.387  30.263  59.834
    1STR   H17121104  53.385  30.157  59.859
    1STR   C17221105  53.393  30.282  59.681
    1STR   H17321106  53.390  30.387  59.654
    1STR   H17421107  53.311  30.232  59.630
    1STR   H17521108  53.486  30.240  59.641
    1STR   C17621109  53.508  30.326  59.903
    1STR   H17721110  53.514  30.433  59.879
    1STR   H17821111  53.496  30.319  60.011
    1STR   O17921112  53.627  30.258  59.862
    1STR   C18021113  53.748  30.310  59.916
    1STR   H18121114  53.748  30.419  59.913
    1STR   C18221115  53.766  30.261  60.060
    1STR   H18321116  53.762  30.152  60.066
    1STR   H18421117  53.689  30.300  60.127
    1STR   H18521118  53.862  30.292  60.100
    1STR   C18621119  53.863  30.261  59.826
    1STR   H18721120  53.867  30.152  59.827
    1STR   H18821121  53.842  30.290  59.723
    1STR   O18921122  53.986  30.317  59.870
    1STR   C19021123  54.101  30.277  59.797
    1STR   H19121124  54.097  30.169  59.778
    1STR   C19221125  54.109  30.354  59.665
    1STR   H19321126  54.108  30.462  59.682
    1STR   H19421127  54.026  30.330  59.598
    1STR   H19521128  54.201  30.330  59.612
    1STR   C19621129  54.223  30.305  59.886
    1STR   H19721130  54.231  30.412  59.906
    1STR   H19821131  54.210  30.255  59.982
    1STR   O19921132  54.341  30.257  59.821
    1STR   C20021133  54.462  30.280  59.891
    1STR   H20121134  54.464  30.381  59.933
    1STR   C20221135  54.478  30.177  60.004
    1STR   H20321136  54.473  30.075  59.965
    1STR   H20421137  54.402  30.188  60.081
    1STR   H20521138  54.575  30.188  60.053
    1STR   C20621139  54.577  30.270  59.789
    1STR   H20721140  54.580  30.169  59.747
    1STR   H20821141  54.558  30.339  59.707
    1STR   O20921142  54.700  30.302  59.853
    1STR   C21021143  54.816  30.292  59.770
    1STR   H21121144  54.811  30.201  59.709
    1STR   C21221145  54.826  30.416  59.679
    1STR   H21321146  54.826  30.507  59.738
    1STR   H21421147  54.743  30.421  59.608
    1STR   H21521148  54.918  30.413  59.621
    1STR   C21621149  54.938  30.280  59.862
    1STR   H21721150  54.947  30.370  59.924
    1STR   H21821151  54.923  30.196  59.930
    1STR   O21921152  55.055  30.260  59.784
    1STR   C22021153  55.177  30.252  59.858
    1STR   H22121154  55.179  30.328  59.936
    1STR   C22221155  55.190  30.112  59.920
    1STR   H22321156  55.183  30.034  59.844
    1STR   H22421157  55.113  30.092  59.995
    1STR   H22521158  55.286  30.100  59.970
    1STR   C22621159  55.292  30.281  59.760
    1STR   H22721160  55.294  30.205  59.681
    1STR   H22821161  55.275  30.377  59.713
    1STR   O22921162  55.416  30.282  59.832
    1STR   C23021163  55.532  30.305  59.752
    1STR   H23121164  55.526  30.246  59.660
    1STR   C23221165  55.544  30.454  59.718
    1STR   H23321166  55.545  30.515  59.809
    1STR   H23421167  55.462  30.489  59.655
    1STR   H23521168  55.637  30.474  59.664
    1STR   C23621169  55.653  30.255  59.832
    1STR   H23721170  55.663  30.312  59.924
    1STR   H23821171  55.637  30.151  59.860
    1STR   O23921172  55.771  30.267  59.752
    1STR   C24021173  55.892  30.227  59.816
    1STR   H24121174  55.895  30.265  59.918
    1STR   C24221175  55.902  30.073  59.817
    1STR   H24321176  55.895  30.033  59.716
    1STR   H24421177  55.825  30.027  59.878
    1STR   H24521178  55.998  30.041  59.858
    1STR   C24621179  56.009  30.290  59.739
    1STR   H24721180  56.010  30.253  59.636
    1STR   H24821181  55.993  30.398  59.733
    1STR   O24921182  56.132  30.261  59.804
    1STR   C25021183  56.249  30.312  59.740
    1STR   H25121184  56.243  30.295  59.633
    1STR   C25221185  56.263  30.462  59.769
    1STR   H25321186  56.264  30.481  59.877
    1STR   H25421187  56.182  30.520  59.725
    1STR   H25521188  56.356  30.501  59.728
    1STR   C25621189  56.370  30.233  59.794
    1STR   H25721190  56.380  30.248  59.901
    1STR   H25821191  56.352  30.126  59.778
    1STR   O25921192  56.489  30.274  59.726
    1STR   C26021193  56.609  30.209  59.769
    1STR   H26121194  56.612  30.203  59.878
    1STR   C26221195  56.616  30.068  59.708
    1STR   H26321196  56.608  30.071  59.600
    1STR   H26421197  56.537  30.003  59.746
    1STR   H26521198  56.711  30.020  59.733
    1STR   C26621199  56.728  30.295  59.723
    1STR   H26721200  56.729  30.303  59.614
    1STR   H26821201  56.715  30.397  59.761
    1STR   O26921202  56.851  30.240  59.770
    1STR   C27021203  56.970  30.311  59.733
    1STR   H27121204  56.964  30.339  59.627
    1STR   C27221205  56.984  30.436  59.820
    1STR   H27321206  56.984  30.411  59.926
    1STR   H27421207  56.905  30.509  59.802
    1STR   H27521208  57.079  30.487  59.799
    1STR   C27621209  57.090  30.216  59.750
    1STR   H27721210  57.099  30.186  59.855
    1STR   H27821211  57.071  30.125  59.693
    1STR   O27921212  57.211  30.279  59.706
    1STR   C28021213  57.330  30.200  59.718
    1STR   H28121214  57.332  30.151  59.816
    1STR   C28221215  57.334  30.095  59.607
    1STR   H28321216  57.325  30.141  59.508
    1STR   H28421217  57.254  30.021  59.616
    1STR   H28521218  57.428  30.040  59.609
    1STR   C28621219  57.452  30.295  59.710
    1STR   H28721220  57.453  30.346  59.614
    1STR   H28821221  57.440  30.372  59.787
    1STR   O28921222  57.574  30.223  59.730
    1STR   C29021223  57.695  30.300  59.726
    1STR   H29121224  57.691  30.368  59.640
    1STR   C29221225  57.709  30.381  59.856
    1STR   H29321226  57.705  30.316  59.943
    1STR   H29421227  57.631  30.456  59.867
    1STR   H29521228  57.804  30.434  59.858
    1STR   C29621229  57.815  30.204  59.706
    1STR   H29721230  57.819  30.134  59.789
    1STR   H29821231  57.797  30.145  59.616
    1STR   O29921232  57.939  30.276  59.695
    1STR   C30021233  58.056  30.195  59.679
    1STR   H30121234  58.051  30.110  59.746
    1STR   C30221235  58.064  30.147  59.533
    1STR   H30321236  58.059  30.231  59.463
    1STR   H30421237  57.983  30.078  59.508
    1STR   H30521238  58.158  30.094  59.515
    1STR   C30621239  58.181  30.278  59.718
    1STR   H30721240  58.197  30.359  59.646
    1STR   H30821241  58.161  30.326  59.814
    1STR   O30921242  58.299  30.196  59.728
    1STR    H1R21243  58.436  30.349  59.704
    1STR    H1S21244  58.507  30.346  59.948
    1STR    H1T21245  58.391  30.218  59.979
    1STR    H1U21246  58.337  30.380  59.933
    1STR    H1V21247  58.542  30.128  59.645
    1STR    H1W21248  58.534  30.079  59.812
    1STR    H1X21249  58.848  30.340  59.768
    1STR    H1Y21250  59.029  30.463  59.781
    1STR    H1Z21251  59.244  30.516  59.881
    1STR    H2021252  59.381  30.363   0.021
    1STR    H2121253  59.465  30.355  60.025
    1STR    H2221254  59.382  30.502  60.075
    1STR    H2321255  59.193  30.107   0.060
    1STR    H2721256  59.003  30.105  60.022
    1STR    H2821257  46.448  30.490  60.043
    1STR    H2921258  46.216  30.513  59.994
    1STR    H2A21259  45.969  30.246  59.984
    1STR    H2B21260  46.014  30.407  59.930
    1STR    H2C21261  45.954  30.385  60.094
    1STR   BCK121262  45.968  29.955  15.129
    1STR    O0321263  45.956  29.834  15.117
    1STR    N0421264  46.085  30.017  15.159
    1STR    C0521265  46.194  29.962  15.230
    1STR    C0621266  46.329  29.966  15.181
    1STR    C0721267  46.440  29.922  15.261
    1STR    N0821268  46.575  29.930  15.216
    1STR    C0921269  46.688  29.879  15.271
    1STR    O0A21270  46.690  29.807  15.370
    1STR    O0B21271  46.803  29.916  15.206
    1STR    C0C21272  46.931  29.866  15.254
    1STR    C0D21273  46.951  29.721  15.207
    1STR    C0E21274  47.052  29.954  15.212
    1STR    O0F21275  47.173  29.900  15.269
    1STR    C0G21276  47.296  29.970  15.241
    1STR    C0H21277  47.305  30.094  15.330
    1STR    C0I21278  47.416  29.876  15.268
    1STR    O0J21279  47.539  29.941  15.234
    1STR    C0K21280  58.415  30.225  15.473
    1STR    C0M21281  58.419  30.097  15.388
    1STR    C0N21282  58.535  30.317  15.439
    1STR    O0O21283  58.656  30.265  15.494
    1STR    C0P21284  58.763  30.233  15.418
    1STR    O0Q21285  58.771  30.244  15.296
    1STR    N0R21286  58.858  30.183  15.498
    1STR    C0S21287  58.979  30.119  15.471
    1STR    C0T21288  59.019  30.023  15.566
    1STR    C0U21289  59.132  29.942  15.543
    1STR    C0V21290  59.211  29.960  15.428
    1STR    C0W21291  59.316  29.853  15.400
    1STR    C0X21292  59.183  30.067  15.339
    1STR    N0Y21293  59.262  30.093  15.226
    1STR   BCK221294  59.395  30.105  15.206
    1STR    O1021295  59.436  30.124  15.093
    1STR    C1321296  59.063  30.142  15.359
    1STR    C1421297  46.410  29.876  15.392
    1STR    C1521298  46.279  29.874  15.441
    1STR    C1621299  46.172  29.919  15.363
    1STR    C1721300  46.034  29.926  15.427
    1STR    H1B21301  46.084  30.117  15.150
    1STR    H1C21302  46.348  30.002  15.082
    1STR    H1D21303  46.594  29.980  15.131
    1STR    H1E21304  46.929  29.868  15.363
    1STR    H1F21305  46.955  29.713  15.099
    1STR    H1G21306  47.044  29.680  15.248
    1STR    H1H21307  46.870  29.657  15.243
    1STR    H1I21308  47.037  30.056  15.246
    1STR    H1J21309  47.061  29.957  15.103
    1STR    H1K21310  47.299  29.999  15.136
    1STR    H1M21311  47.298  30.068  15.436
    1STR    H1N21312  47.226  30.166  15.309
    1STR    H1O21313  47.400  30.146  15.315
    1STR    H1P21314  47.417  29.845  15.373
    1STR    H1Q21315  47.405  29.785  15.209
    1STR   C01021316  47.660  29.868  15.259
    1STR   H01121317  47.655  29.822  15.358
    1STR   C01221318  47.679  29.760  15.152
    1STR   H01321319  47.679  29.803  15.052
    1STR   H01421320  47.601  29.683  15.156
    1STR   H01521321  47.774  29.708  15.165
    1STR   C01621322  47.779  29.967  15.259
    1STR   H01721323  47.785  30.016  15.162
    1STR   H01821324  47.760  30.045  15.333
    1STR   O01921325  47.901  29.899  15.289
    1STR   C02021326  48.019  29.981  15.287
    1STR   H02121327  48.017  30.047  15.201
    1STR   C02221328  48.027  30.064  15.417
    1STR   H02321329  48.025  29.999  15.505
    1STR   H02421330  47.946  30.135  15.425
    1STR   H02521331  48.120  30.121  15.420
    1STR   C02621332  48.143  29.889  15.273
    1STR   H02721333  48.149  29.821  15.359
    1STR   H02821334  48.131  29.827  15.184
    1STR   O02921335  48.261  29.968  15.264
    1STR   C03021336  48.384  29.895  15.254
    1STR   H03121337  48.383  29.812  15.326
    1STR   C03221338  48.402  29.841  15.112
    1STR   H03321339  48.398  29.922  15.038
    1STR   H03421340  48.326  29.768  15.085
    1STR   H03521341  48.499  29.792  15.101
    1STR   C03621342  48.499  29.989  15.293
    1STR   H03721343  48.504  30.073  15.223
    1STR   H03821344  48.479  30.031  15.392
    1STR   O03921345  48.623  29.918  15.293
    1STR   C04021346  48.739  29.996  15.323
    1STR   H04121347  48.735  30.091  15.270
    1STR   C04221348  48.747  30.020  15.475
    1STR   H04321349  48.747  29.926  15.530
    1STR   H04421350  48.665  30.081  15.511
    1STR   H04521351  48.840  30.072  15.500
    1STR   C04621352  48.862  29.918  15.272
    1STR   H04721353  48.870  29.823  15.324
    1STR   H04821354  48.849  29.896  15.166
    1STR   O04921355  48.980  29.996  15.293
    1STR   C05021356  49.102  29.934  15.253
    1STR   H05121357  49.103  29.830  15.286
    1STR   C05221358  49.118  29.942  15.101
    1STR   H05321359  49.112  30.045  15.066
    1STR   H05421360  49.041  29.885  15.048
    1STR   H05521361  49.214  29.902  15.070
    1STR   C05621362  49.217  30.007  15.325
    1STR   H05721363  49.220  30.111  15.294
    1STR   H05821364  49.198  30.006  15.432
    1STR   O05921365  49.340  29.942  15.296
    1STR   C06021366  49.456  30.003  15.353
    1STR   H06121367  49.451  30.111  15.343
    1STR   C06221368  49.467  29.964  15.502
    1STR   H06321369  49.467  29.856  15.514
    1STR   H06421370  49.385  30.004  15.561
    1STR   H06521371  49.559  30.002  15.545
    1STR   C06621372  49.578  29.953  15.274
    1STR   H06721373  49.588  29.845  15.283
    1STR   H06821374  49.563  29.976  15.168
    1STR   O06921375  49.696  30.018  15.322
    1STR   C07021376  49.817  29.978  15.259
    1STR   H07121377  49.820  29.870  15.247
    1STR   C07221378  49.831  30.047  15.122
    1STR   H07321379  49.824  30.155  15.132
    1STR   H07421380  49.754  30.014  15.052
    1STR   H07521381  49.927  30.024  15.077
    1STR   C07621382  49.933  30.018  15.353
    1STR   H07721383  49.935  30.126  15.366
    1STR   H07821384  49.915  29.974  15.451
    1STR   O07921385  50.056  29.971  15.299
    1STR   C08021386  50.172  30.005  15.374
    1STR   H08121387  50.166  30.109  15.409
    1STR   C08221388  50.185  29.911  15.495
    1STR   H08321389  50.187  29.806  15.463
    1STR   H08421390  50.104  29.923  15.566
    1STR   H08521391  50.278  29.930  15.549
    1STR   C08621392  50.293  29.993  15.280
    1STR   H08721393  50.303  29.890  15.245
    1STR   H08821394  50.276  30.055  15.193
    1STR   O08921395  50.411  30.035  15.349
    1STR   C09021396  50.532  30.025  15.274
    1STR   H09121397  50.534  29.930  15.220
    1STR   C09221398  50.542  30.143  15.176
    1STR   H09321399  50.535  30.238  15.228
    1STR   H09421400  50.465  30.140  15.100
    1STR   H09521401  50.638  30.141  15.124
    1STR   C09621402  50.648  30.025  15.375
    1STR   H09721403  50.649  30.119  15.430
    1STR   H09821404  50.632  29.945  15.447
    1STR   O09921405  50.771  30.005  15.305
    1STR   C10021406  50.888  30.007  15.386
    1STR   H10121407  50.882  30.089  15.459
    1STR   C10221408  50.903  29.873  15.459
    1STR   H10321409  50.904  29.790  15.388
    1STR   H10421410  50.823  29.855  15.530
    1STR   H10521411  50.996  29.870  15.515
    1STR   C10621412  51.007  30.035  15.294
    1STR   H10721413  51.018  29.955  15.221
    1STR   H10821414  50.989  30.127  15.238
    1STR   O10921415  51.126  30.048  15.372
    1STR   C11021416  51.245  30.070  15.298
    1STR   H11121417  51.248  30.005  15.210
    1STR   C11221418  51.254  30.217  15.256
    1STR   H11321419  51.247  30.284  15.342
    1STR   H11421420  51.175  30.245  15.186
    1STR   H11521421  51.349  30.238  15.206
    1STR   C11621422  51.363  30.031  15.389
    1STR   H11721423  51.365  30.095  15.477
    1STR   H11821424  51.349  29.929  15.424
    1STR   O11921425  51.485  30.043  15.316
    1STR   C12021426  51.603  30.013  15.390
    1STR   H12121427  51.598  30.059  15.489
    1STR   C12221428  51.620  29.861  15.402
    1STR   H12321429  51.621  29.813  15.304
    1STR   H12421430  51.541  29.815  15.461
    1STR   H12521431  51.715  29.837  15.452
    1STR   C12621432  51.721  30.077  15.315
    1STR   H12721433  51.731  30.033  15.216
    1STR   H12821434  51.701  30.183  15.301
    1STR   O12921435  51.841  30.058  15.390
    1STR   C13021436  51.959  30.110  15.330
    1STR   H13121437  51.961  30.085  15.223
    1STR   C13221438  51.966  30.262  15.349
    1STR   H13321439  51.959  30.289  15.455
    1STR   H13421440  51.885  30.314  15.297
    1STR   H13521441  52.060  30.302  15.311
    1STR   C13621442  52.078  30.040  15.396
    1STR   H13721443  52.081  30.063  15.503
    1STR   H13821444  52.065  29.932  15.387
    1STR   O13921445  52.199  30.081  15.332
    1STR   C14021446  52.318  30.025  15.387
    1STR   H14121447  52.314  30.028  15.496
    1STR   C14221448  52.337  29.881  15.338
    1STR   H14321449  52.336  29.876  15.229
    1STR   H14421450  52.259  29.815  15.375
    1STR   H14521451  52.432  29.840  15.372
    1STR   C14621452  52.435  30.115  15.343
    1STR   H14721453  52.443  30.114  15.234
    1STR   H14821454  52.414  30.218  15.372
    1STR   O14921455  52.556  30.070  15.403
    1STR   C15021456  52.673  30.142  15.366
    1STR   H15121457  52.673  30.162  15.259
    1STR   C15221458  52.679  30.274  15.445
    1STR   H15321459  52.674  30.256  15.553
    1STR   H15421460  52.598  30.342  15.419
    1STR   H15521461  52.772  30.327  15.425
    1STR   C15621462  52.794  30.053  15.398
    1STR   H15721463  52.798  30.031  15.505
    1STR   H15821464  52.781  29.957  15.347
    1STR   O15921465  52.913  30.117  15.354
    1STR   C16021466  53.033  30.046  15.381
    1STR   H16121467  53.031  30.004  15.482
    1STR   C16221468  53.052  29.934  15.278
    1STR   H16321469  53.050  29.973  15.176
    1STR   H16421470  52.975  29.857  15.285
    1STR   H16521471  53.148  29.884  15.292
    1STR   C16621472  53.149  30.147  15.375
    1STR   H16721473  53.155  30.190  15.275
    1STR   H16821474  53.127  30.229  15.444
    1STR   O16921475  53.271  30.083  15.410
    1STR   C17021476  53.387  30.165  15.405
    1STR   H17121477  53.385  30.227  15.314
    1STR   C17221478  53.393  30.255  15.529
    1STR   H17321479  53.390  30.196  15.621
    1STR   H17421480  53.311  30.327  15.533
    1STR   H17521481  53.486  30.313  15.530
    1STR   C17621482  53.508  30.072  15.396
    1STR   H17721483  53.514  30.010  15.486
    1STR   H17821484  53.496  30.005  15.311
    1STR   O17921485  53.627  30.150  15.381
    1STR   C18021486  53.748  30.076  15.375
    1STR   H18121487  53.747  29.997  15.451
    1STR   C18221488  53.766  30.014  15.235
    1STR   H18321489  53.762  30.091  15.158
    1STR   H18421490  53.689  29.940  15.213
    1STR   H18521491  53.862  29.964  15.227
    1STR   C18621492  53.863  30.172  15.409
    1STR   H18721493  53.867  30.252  15.334
    1STR   H18821494  53.842  30.220  15.505
    1STR   O18921495  53.986  30.101  15.414
    1STR   C19021496  54.101  30.180  15.440
    1STR   H19121497  54.097  30.272  15.382
    1STR   C19221498  54.109  30.212  15.591
    1STR   H19321499  54.108  30.121  15.651
    1STR   H19421500  54.026  30.275  15.624
    1STR   H19521501  54.201  30.266  15.613
    1STR   C19621502  54.223  30.099  15.394
    1STR   H19721503  54.231  30.007  15.451
    1STR   H19821504  54.210  30.071  15.289
    1STR   O19921505  54.341  30.178  15.410
    1STR   C20021506  54.462  30.114  15.373
    1STR   H20121507  54.463  30.011  15.411
    1STR   C20221508  54.478  30.114  15.221
    1STR   H20321509  54.473  30.215  15.181
    1STR   H20421510  54.402  30.054  15.171
    1STR   H20521511  54.575  30.072  15.192
    1STR   C20621512  54.577  30.190  15.442
    1STR   H20721513  54.580  30.293  15.405
    1STR   H20821514  54.557  30.195  15.549
    1STR   O20921515  54.700  30.124  15.416
    1STR   C21021516  54.816  30.187  15.471
    1STR   H21121517  54.811  30.295  15.455
    1STR   C21221518  54.826  30.157  15.621
    1STR   H21321519  54.826  30.049  15.640
    1STR   H21421520  54.743  30.200  15.678
    1STR   H21521521  54.918  30.198  15.663
    1STR   C21621522  54.938  30.133  15.395
    1STR   H21721523  54.947  30.026  15.410
    1STR   H21821524  54.923  30.149  15.288
    1STR   O21921525  55.055  30.201  15.439
    1STR   C22021526  55.177  30.157  15.379
    1STR   H22121527  55.179  30.048  15.372
    1STR   C22221528  55.190  30.219  15.238
    1STR   H22321529  55.183  30.327  15.242
    1STR   H22421530  55.113  30.182  15.170
    1STR   H22521531  55.286  30.193  15.194
    1STR   C22621532  55.292  30.202  15.470
    1STR   H22721533  55.294  30.311  15.478
    1STR   H22821534  55.274  30.163  15.571
    1STR   O22921535  55.415  30.153  15.419
    1STR   C23021536  55.531  30.190  15.493
    1STR   H23121537  55.525  30.296  15.521
    1STR   C23221538  55.544  30.102  15.619
    1STR   H23321539  55.545  29.997  15.593
    1STR   H23421540  55.462  30.119  15.689
    1STR   H23521541  55.636  30.124  15.672
    1STR   C23621542  55.653  30.173  15.400
    1STR   H23721543  55.662  30.068  15.371
    1STR   H23821544  55.636  30.230  15.309
    1STR   O23921545  55.770  30.218  15.467
    1STR   C24021546  55.891  30.204  15.393
    1STR   H24121547  55.894  30.107  15.343
    1STR   C24221548  55.902  30.317  15.288
    1STR   H24321549  55.894  30.415  15.335
    1STR   H24421550  55.824  30.310  15.212
    1STR   H24521551  55.998  30.312  15.237
    1STR   C24621552  56.008  30.210  15.493
    1STR   H24721553  56.009  30.306  15.543
    1STR   H24821554  55.992  30.134  15.569
    1STR   O24921555  56.131  30.187  15.425
    1STR   C25021556  56.248  30.193  15.506
    1STR   H25121557  56.242  30.278  15.574
    1STR   C25221558  56.262  30.062  15.586
    1STR   H25321559  56.263  29.976  15.520
    1STR   H25421560  56.182  30.049  15.658
    1STR   H25521561  56.356  30.062  15.642
    1STR   C25621562  56.368  30.215  15.413
    1STR   H25721563  56.378  30.131  15.344
    1STR   H25821564  56.350  30.304  15.353
    1STR   O25921565  56.487  30.231  15.491
    1STR   C26021566  56.607  30.249  15.416
    1STR   H26121567  56.610  30.180  15.331
    1STR   C26221568  56.614  30.394  15.365
    1STR   H26321569  56.606  30.465  15.447
    1STR   H26421570  56.536  30.417  15.293
    1STR   H26521571  56.709  30.412  15.314
    1STR   C26621572  56.726  30.216  15.508
    1STR   H26721573  56.727  30.285  15.593
    1STR   H26821574  56.712  30.116  15.548
    1STR   O26921575  56.848  30.225  15.435
    1STR   C27021576  56.966  30.198  15.511
    1STR   H27121577  56.961  30.249  15.608
    1STR   C27221578  56.982  30.047  15.532
    1STR   H27321579  56.982  29.994  15.436
    1STR   H27421580  56.902  30.005  15.593
    1STR   H27521581  57.076  30.024  15.582
    1STR   C27621582  57.086  30.257  15.434
    1STR   H27721583  57.095  30.208  15.336
    1STR   H27821584  57.067  30.362  15.414
    1STR   O27921585  57.207  30.241  15.509
    1STR   C28021586  57.326  30.290  15.447
    1STR   H28121587  57.328  30.260  15.342
    1STR   C28221588  57.331  30.443  15.458
    1STR   H28321589  57.322  30.475  15.562
    1STR   H28421590  57.251  30.491  15.402
    1STR   H28521591  57.425  30.481  15.419
    1STR   C28621592  57.447  30.224  15.517
    1STR   H28721593  57.448  30.252  15.622
    1STR   H28821594  57.435  30.116  15.513
    1STR   O28921595  57.569  30.264  15.453
    1STR   C29021596  57.689  30.210  15.509
    1STR   H29121597  57.685  30.218  15.618
    1STR   C29221598  57.705  30.063  15.468
    1STR   H29321599  57.702  30.052  15.359
    1STR   H29421600  57.627  30.000  15.510
    1STR   H29521601  57.800  30.023  15.503
    1STR   C29621602  57.808  30.295  15.459
    1STR   H29721603  57.813  30.290  15.350
    1STR   H29821604  57.789  30.400  15.485
    1STR   O29921605  57.931  30.251  15.517
    1STR   C30021606  58.048  30.323  15.476
    1STR   H30121607  58.045  30.340  15.368
    1STR   C30221608  58.054  30.457  15.550
    1STR   H30321609  58.049  30.443  15.658
    1STR   H30421610  57.973  30.524  15.521
    1STR   H30521611  58.148  30.509  15.528
    1STR   C30621612  58.173  30.237  15.506
    1STR   H30721613  58.184  30.223  15.613
    1STR   H30821614  58.157  30.138  15.463
    1STR   O30921615  58.292  30.296  15.450
    1STR    H1R21616  58.421  30.200  15.579
    1STR    H1S21617  58.515  30.048  15.398
    1STR    H1T21618  58.405  30.120  15.282
    1STR    H1U21619  58.343  30.025  15.417
    1STR    H1V21620  58.519  30.415  15.483
    1STR    H1W21621  58.542  30.333  15.331
    1STR    H1X21622  58.827  30.186  15.593
    1STR    H1Y21623  58.960  30.004  15.654
    1STR    H1Z21624  59.156  29.864  15.613
    1STR    H2021625  59.344  29.851  15.294
    1STR    H2121626  59.405  29.869  15.460
    1STR    H2221627  59.276  29.754  15.424
    1STR    H2321628  59.212  30.114  15.141
    1STR    H2721629  59.035  30.218  15.288
    1STR    H2821630  46.486  29.843  15.461
    1STR    H2921631  46.262  29.840  15.542
    1STR    H2A21632  45.988  30.022  15.407
    1STR    H2B21633  46.040  29.913  15.535
    1STR    H2C21634  45.970  29.847  15.387
    1STR   BCK121635  45.988  30.001  30.058
    1STR    O0321636  45.935  30.093  29.997
    1STR    N0421637  46.117  29.963  30.043
    1STR    C0521638  46.206  29.991  29.938
    1STR    C0621639  46.344  30.020  29.963
    1STR    C0721640  46.439  30.036  29.858
    1STR    N0821641  46.577  30.059  29.884
    1STR    C0921642  46.684  30.047  29.802
    1STR    O0A21643  46.677  30.011  29.685
    1STR    O0B21644  46.802  30.080  29.863
    1STR    C0C21645  46.924  30.084  29.786
    1STR    C0D21646  46.936  30.221  29.716
    1STR    C0E21647  47.050  30.054  29.871
    1STR    O0F21648  47.169  30.057  29.790
    1STR    C0G21649  47.293  30.024  29.856
    1STR    C0H21650  47.303  29.872  29.874
    1STR    C0I21651  47.413  30.076  29.772
    1STR    O0J21652  47.536  30.051  29.841
    1STR    C0K21653  58.415  29.684  29.863
    1STR    C0M21654  58.416  29.836  29.839
    1STR    C0N21655  58.534  29.644  29.955
    1STR    O0O21656  58.659  29.662  29.888
    1STR    C0P21657  58.764  29.723  29.948
    1STR    O0Q21658  58.764  29.773  30.060
    1STR    N0R21659  58.867  29.724  29.864
    1STR    C0S21660  58.994  29.784  29.867
    1STR    C0T21661  59.055  29.801  29.741
    1STR    C0U21662  59.179  29.867  29.730
    1STR    C0V21663  59.246  29.914  29.844
    1STR    C0W21664  59.371  29.998  29.821
    1STR    C0X21665  59.194  29.886  29.973
    1STR    N0Y21666  59.265  29.923  30.089
    1STR   BCK221667  59.395  29.899  30.117
    1STR    O1021668  59.469  29.833  30.045
    1STR    C1321669  59.065  29.826  29.983
    1STR    C1421670  46.390  30.027  29.725
    1STR    C1521671  46.256  29.997  29.699
    1STR    C1621672  46.165  29.975  29.803
    1STR    C1721673  46.026  29.927  29.764
    1STR    H1B21674  46.149  29.900  30.115
    1STR    H1C21675  46.377  30.028  30.065
    1STR    H1D21676  46.603  30.086  29.977
    1STR    H1E21677  46.920  30.006  29.709
    1STR    H1F21678  46.943  30.302  29.789
    1STR    H1G21679  47.025  30.225  29.654
    1STR    H1H21680  46.850  30.239  29.652
    1STR    H1I21681  47.038  29.956  29.917
    1STR    H1J21682  47.059  30.127  29.952
    1STR    H1K21683  47.296  30.074  29.953
    1STR    H1M21684  47.296  29.821  29.778
    1STR    H1N21685  47.225  29.833  29.939
    1STR    H1O21686  47.398  29.845  29.918
    1STR    H1P21687  47.414  30.028  29.674
    1STR    H1Q21688  47.401  30.183  29.755
    1STR   C01021689  47.657  30.088  29.773
    1STR   H01121690  47.652  30.056  29.669
    1STR   C01221691  47.675  30.241  29.780
    1STR   H01321692  47.675  30.276  29.883
    1STR   H01421693  47.598  30.294  29.726
    1STR   H01521694  47.771  30.270  29.736
    1STR   C01621695  47.776  30.015  29.841
    1STR   H01721696  47.782  30.044  29.946
    1STR   H01821697  47.757  29.908  29.838
    1STR   O01921698  47.899  30.046  29.774
    1STR   C02021699  48.016  29.987  29.830
    1STR   H02121700  48.014  29.996  29.939
    1STR   C02221701  48.024  29.838  29.791
    1STR   H02321702  48.022  29.826  29.683
    1STR   H02421703  47.943  29.780  29.834
    1STR   H02521704  48.117  29.794  29.828
    1STR   C02621705  48.140  30.064  29.779
    1STR   H02721706  48.146  30.056  29.670
    1STR   H02821707  48.129  30.169  29.803
    1STR   O02921708  48.259  30.011  29.839
    1STR   C03021709  48.382  30.071  29.797
    1STR   H03121710  48.382  30.084  29.688
    1STR   C03221711  48.400  30.208  29.866
    1STR   H03321712  48.397  30.198  29.974
    1STR   H03421713  48.324  30.280  29.836
    1STR   H03521714  48.497  30.251  29.840
    1STR   C03621715  48.498  29.976  29.832
    1STR   H03721716  48.502  29.961  29.940
    1STR   H03821717  48.478  29.878  29.787
    1STR   O03921718  48.621  30.029  29.784
    1STR   C04021719  48.738  29.951  29.814
    1STR   H04121720  48.734  29.917  29.918
    1STR   C04221721  48.746  29.831  29.719
    1STR   H04321722  48.746  29.863  29.615
    1STR   H04421723  48.664  29.761  29.734
    1STR   H04521724  48.839  29.775  29.736
    1STR   C04621725  48.861  30.042  29.800
    1STR   H04721726  48.869  30.078  29.697
    1STR   H04821727  48.848  30.130  29.863
    1STR   O04921728  48.979  29.971  29.837
    1STR   C05021729  49.101  30.044  29.824
    1STR   H05121730  49.102  30.099  29.730
    1STR   C05221731  49.117  30.141  29.942
    1STR   H05321732  49.111  30.088  30.037
    1STR   H05421733  49.041  30.219  29.942
    1STR   H05521734  49.214  30.191  29.938
    1STR   C05621735  49.216  29.941  29.820
    1STR   H05721736  49.219  29.885  29.914
    1STR   H05821737  49.197  29.870  29.740
    1STR   O05921738  49.340  30.009  29.798
    1STR   C06021739  49.455  29.926  29.797
    1STR   H06121740  49.450  29.852  29.878
    1STR   C06221741  49.466  29.854  29.661
    1STR   H06321742  49.467  29.925  29.579
    1STR   H06421743  49.384  29.784  29.645
    1STR   H06521744  49.559  29.796  29.656
    1STR   C06621745  49.578  30.015  29.822
    1STR   H06721746  49.587  30.089  29.742
    1STR   H06821747  49.563  30.070  29.915
    1STR   O06921748  49.695  29.935  29.830
    1STR   C07021749  49.817  30.007  29.850
    1STR   H07121750  49.819  30.095  29.785
    1STR   C07221751  49.830  30.048  29.997
    1STR   H07321752  49.823  29.962  30.063
    1STR   H07421753  49.754  30.120  30.027
    1STR   H07521754  49.927  30.096  30.015
    1STR   C07621755  49.932  29.914  29.807
    1STR   H07721756  49.934  29.825  29.870
    1STR   H07821757  49.915  29.881  29.705
    1STR   O07921758  50.056  29.985  29.816
    1STR   C08021759  50.172  29.909  29.783
    1STR   H08121760  50.166  29.810  29.828
    1STR   C08221761  50.185  29.898  29.630
    1STR   H08321762  50.186  29.996  29.583
    1STR   H08421763  50.104  29.841  29.586
    1STR   H08521764  50.278  29.847  29.603
    1STR   C08621765  50.293  29.981  29.844
    1STR   H08721766  50.303  30.081  29.801
    1STR   H08821767  50.276  29.995  29.951
    1STR   O08921768  50.411  29.904  29.822
    1STR   C09021769  50.531  29.962  29.870
    1STR   H09121770  50.534  30.069  29.846
    1STR   C09221771  50.542  29.942  30.022
    1STR   H09321772  50.535  29.836  30.048
    1STR   H09421773  50.465  29.995  30.077
    1STR   H09521774  50.638  29.978  30.059
    1STR   C09621775  50.648  29.895  29.796
    1STR   H09721776  50.649  29.788  29.818
    1STR   H09821777  50.632  29.904  29.689
    1STR   O09921778  50.771  29.956  29.834
    1STR   C10021779  50.887  29.899  29.775
    1STR   H10121780  50.882  29.790  29.777
    1STR   C10221781  50.903  29.950  29.631
    1STR   H10321782  50.904  30.059  29.627
    1STR   H10421783  50.822  29.915  29.566
    1STR   H10521784  50.996  29.914  29.587
    1STR   C10621785  51.007  29.941  29.862
    1STR   H10721786  51.017  30.050  29.862
    1STR   H10821787  50.988  29.911  29.965
    1STR   O10921788  51.126  29.879  29.813
    1STR   C11021789  51.245  29.913  29.883
    1STR   H11121790  51.248  30.020  29.904
    1STR   C11221791  51.253  29.833  30.014
    1STR   H11321792  51.246  29.726  29.995
    1STR   H11421793  51.175  29.861  30.084
    1STR   H11521794  51.348  29.852  30.064
    1STR   C11621795  51.363  29.881  29.790
    1STR   H11721796  51.365  29.774  29.768
    1STR   H11821797  51.349  29.932  29.695
    1STR   O11921798  51.485  29.921  29.851
    1STR   C12021799  51.603  29.893  29.777
    1STR   H12121800  51.598  29.793  29.734
    1STR   C12221801  51.620  29.997  29.665
    1STR   H12321802  51.621  30.098  29.705
    1STR   H12421803  51.541  29.991  29.590
    1STR   H12521804  51.715  29.982  29.612
    1STR   C12621805  51.721  29.897  29.875
    1STR   H12721806  51.731  29.996  29.919
    1STR   H12821807  51.701  29.828  29.957
    1STR   O12921808  51.841  29.859  29.807
    1STR   C13021809  51.959  29.862  29.887
    1STR   H13121810  51.960  29.952  29.949
    1STR   C13221811  51.966  29.737  29.975
    1STR   H13321812  51.959  29.646  29.915
    1STR   H13421813  51.886  29.734  30.049
    1STR   H13521814  52.060  29.734  30.030
    1STR   C13621815  52.078  29.869  29.790
    1STR   H13721816  52.081  29.780  29.727
    1STR   H13821817  52.065  29.955  29.724
    1STR   O13921818  52.199  29.882  29.865
    1STR   C14021819  52.318  29.886  29.787
    1STR   H14121820  52.314  29.811  29.708
    1STR   C14221821  52.337  30.026  29.726
    1STR   H14321822  52.336  30.103  29.804
    1STR   H14421823  52.259  30.050  29.654
    1STR   H14521824  52.432  30.033  29.674
    1STR   C14621825  52.435  29.850  29.881
    1STR   H14721826  52.443  29.924  29.960
    1STR   H14821827  52.414  29.754  29.928
    1STR   O14921828  52.556  29.843  29.805
    1STR   C15021829  52.673  29.814  29.881
    1STR   H15121830  52.673  29.871  29.974
    1STR   C15221831  52.679  29.663  29.912
    1STR   H15321832  52.674  29.604  29.821
    1STR   H15421833  52.598  29.631  29.978
    1STR   H15521834  52.772  29.638  29.963
    1STR   C15621835  52.794  29.859  29.798
    1STR   H15721836  52.798  29.802  29.705
    1STR   H15821837  52.781  29.964  29.771
    1STR   O15921838  52.913  29.840  29.873
    1STR   C16021839  53.033  29.875  29.805
    1STR   H16121840  53.031  29.837  29.703
    1STR   C16221841  53.052  30.027  29.806
    1STR   H16321842  53.050  30.067  29.907
    1STR   H16421843  52.975  30.078  29.748
    1STR   H16521844  53.148  30.055  29.762
    1STR   C16621845  53.149  29.804  29.879
    1STR   H16721846  53.155  29.840  29.981
    1STR   H16821847  53.127  29.697  29.883
    1STR   O16921848  53.271  29.828  29.809
    1STR   C17021849  53.387  29.771  29.869
    1STR   H17121850  53.385  29.786  29.977
    1STR   C17221851  53.393  29.620  29.837
    1STR   H17321852  53.390  29.603  29.730
    1STR   H17421853  53.311  29.565  29.883
    1STR   H17521854  53.486  29.577  29.875
    1STR   C17621855  53.508  29.845  29.812
    1STR   H17721856  53.514  29.831  29.704
    1STR   H17821857  53.496  29.952  29.829
    1STR   O17921858  53.627  29.798  29.876
    1STR   C18021859  53.748  29.857  29.830
    1STR   H18121860  53.747  29.864  29.721
    1STR   C18221861  53.766  29.997  29.891
    1STR   H18321862  53.762  29.992  30.000
    1STR   H18421863  53.689  30.066  29.858
    1STR   H18521864  53.862  30.039  29.863
    1STR   C18621865  53.863  29.763  29.871
    1STR   H18721866  53.867  29.755  29.979
    1STR   H18821867  53.842  29.663  29.832
    1STR   O18921868  53.985  29.812  29.818
    1STR   C19021869  54.101  29.736  29.852
    1STR   H19121870  54.097  29.707  29.958
    1STR   C19221871  54.109  29.611  29.764
    1STR   H19321872  54.108  29.637  29.658
    1STR   H19421873  54.026  29.542  29.782
    1STR   H19521874  54.201  29.556  29.783
    1STR   C19621875  54.223  29.827  29.832
    1STR   H19721876  54.231  29.856  29.727
    1STR   H19821877  54.210  29.918  29.890
    1STR   O19921878  54.341  29.758  29.874
    1STR   C20021879  54.462  29.830  29.857
    1STR   H20121880  54.463  29.880  29.760
    1STR   C20221881  54.478  29.933  29.969
    1STR   H20321882  54.473  29.886  30.067
    1STR   H20421883  54.402  30.011  29.965
    1STR   H20521884  54.575  29.983  29.962
    1STR   C20621885  54.577  29.727  29.858
    1STR   H20721886  54.580  29.676  29.955
    1STR   H20821887  54.557  29.651  29.783
    1STR   O20921888  54.700  29.794  29.832
    1STR   C21021889  54.816  29.710  29.835
    1STR   H21121890  54.811  29.641  29.920
    1STR   C21221891  54.826  29.631  29.703
    1STR   H21321892  54.826  29.697  29.617
    1STR   H21421893  54.743  29.560  29.691
    1STR   H21521894  54.918  29.573  29.701
    1STR   C21621895  54.938  29.801  29.855
    1STR   H21721896  54.947  29.870  29.771
    1STR   H21821897  54.923  29.861  29.944
    1STR   O21921898  55.055  29.721  29.867
    1STR   C22021899  55.177  29.794  29.883
    1STR   H22121900  55.179  29.879  29.814
    1STR   C22221901  55.190  29.843  30.028
    1STR   H22321902  55.183  29.761  30.098
    1STR   H22421903  55.113  29.916  30.054
    1STR   H22521904  55.286  29.892  30.043
    1STR   C22621905  55.292  29.699  29.845
    1STR   H22721906  55.294  29.614  29.913
    1STR   H22821907  55.274  29.660  29.745
    1STR   O22921908  55.415  29.770  29.850
    1STR   C23021909  55.531  29.693  29.820
    1STR   H23121910  55.525  29.596  29.871
    1STR   C23221911  55.544  29.672  29.669
    1STR   H23321912  55.545  29.768  29.616
    1STR   H23421913  55.462  29.613  29.628
    1STR   H23521914  55.636  29.620  29.644
    1STR   C23621915  55.653  29.768  29.877
    1STR   H23721916  55.663  29.865  29.828
    1STR   H23821917  55.636  29.787  29.983
    1STR   O23921918  55.771  29.690  29.858
    1STR   C24021919  55.891  29.750  29.904
    1STR   H24121920  55.894  29.855  29.875
    1STR   C24221921  55.902  29.738  30.057
    1STR   H24321922  55.894  29.633  30.088
    1STR   H24421923  55.824  29.794  30.108
    1STR   H24521924  55.998  29.776  30.092
    1STR   C24621925  56.008  29.678  29.834
    1STR   H24721926  56.009  29.573  29.862
    1STR   H24821927  55.992  29.683  29.726
    1STR   O24921928  56.131  29.741  29.869
    1STR   C25021929  56.248  29.682  29.812
    1STR   H25121930  56.242  29.573  29.820
    1STR   C25221931  56.262  29.724  29.665
    1STR   H25321932  56.263  29.833  29.656
    1STR   H25421933  56.182  29.686  29.603
    1STR   H25521934  56.356  29.687  29.623
    1STR   C25621935  56.369  29.728  29.896
    1STR   H25721936  56.378  29.837  29.890
    1STR   H25821937  56.350  29.704  30.001
    1STR   O25921938  56.488  29.665  29.850
    1STR   C26021939  56.607  29.701  29.918
    1STR   H26121940  56.610  29.810  29.933
    1STR   C26221941  56.615  29.629  30.053
    1STR   H26321942  56.607  29.521  30.040
    1STR   H26421943  56.536  29.661  30.121
    1STR   H26521944  56.710  29.650  30.102
    1STR   C26621945  56.726  29.663  29.827
    1STR   H26721946  56.727  29.555  29.811
    1STR   H26821947  56.712  29.710  29.730
    1STR   O26921948  56.849  29.706  29.886
    1STR   C27021949  56.967  29.675  29.813
    1STR   H27121950  56.962  29.572  29.776
    1STR   C27221951  56.983  29.772  29.695
    1STR   H27321952  56.982  29.876  29.729
    1STR   H27421953  56.903  29.761  29.621
    1STR   H27521954  57.077  29.755  29.643
    1STR   C27621955  57.087  29.684  29.909
    1STR   H27721956  57.096  29.786  29.948
    1STR   H27821957  57.068  29.619  29.995
    1STR   O27921958  57.207  29.645  29.843
    1STR   C28021959  57.326  29.651  29.922
    1STR   H28121960  57.328  29.744  29.979
    1STR   C28221961  57.331  29.530  30.017
    1STR   H28321962  57.323  29.436  29.962
    1STR   H28421963  57.252  29.533  30.091
    1STR   H28521964  57.426  29.528  30.072
    1STR   C28621965  57.448  29.651  29.826
    1STR   H28721966  57.449  29.559  29.767
    1STR   H28821967  57.436  29.734  29.756
    1STR   O28921968  57.570  29.665  29.900
    1STR   C29021969  57.690  29.667  29.822
    1STR   H29121970  57.686  29.588  29.747
    1STR   C29221971  57.705  29.804  29.753
    1STR   H29321972  57.702  29.885  29.826
    1STR   H29421973  57.627  29.822  29.679
    1STR   H29521974  57.800  29.810  29.700
    1STR   C29621975  57.809  29.638  29.916
    1STR   H29721976  57.814  29.715  29.993
    1STR   H29821977  57.790  29.544  29.967
    1STR   O29921978  57.932  29.631  29.843
    1STR   C30021979  58.049  29.606  29.922
    1STR   H30121980  58.045  29.667  30.013
    1STR   C30221981  58.055  29.457  29.958
    1STR   H30321982  58.050  29.395  29.869
    1STR   H30421983  57.974  29.428  30.025
    1STR   H30521984  58.149  29.434  30.010
    1STR   C30621985  58.174  29.650  29.842
    1STR   H30721986  58.186  29.586  29.754
    1STR   H30821987  58.158  29.751  29.806
    1STR   O30921988  58.292  29.645  29.925
    1STR    H1R21989  58.426  29.631  29.768
    1STR    H1S21990  58.513  29.868  29.800
    1STR    H1T21991  58.399  29.890  29.931
    1STR    H1U21992  58.341  29.868  29.767
    1STR    H1V21993  58.526  29.538  29.981
    1STR    H1W21994  58.529  29.699  30.049
    1STR    H1X21995  58.842  29.676  29.779
    1STR    H1Y21996  59.007  29.768  29.650
    1STR    H1Z21997  59.221  29.883  29.632
    1STR    H2021998  59.384  30.070  29.901
    1STR    H2121999  59.459  29.934  29.816
    1STR    H2222000  59.363  30.054  29.728
    1STR    H2322001  59.213  29.967  30.163
    1STR    H2722002  59.020  29.809  30.080
    1STR    H2822003  46.454  30.043  29.640
    1STR    H2922004  46.225  29.987  29.596
    1STR    H2A22005  45.987  29.856  29.836
    1STR    H2B22006  46.027  29.878  29.667
    1STR    H2C22007  45.958  30.012  29.758
    1STR   BCK122008  45.982  30.060  45.254
    1STR    O0322009  45.937  30.108  45.358
    1STR    N0422010  46.104  30.089  45.204
    1STR    C0522011  46.199  30.185  45.247
    1STR    C0622012  46.338  30.152  45.248
    1STR    C0722013  46.439  30.246  45.286
    1STR    N0822014  46.577  30.214  45.281
    1STR    C0922015  46.683  30.278  45.334
    1STR    O0A22016  46.675  30.376  45.408
    1STR    O0B22017  46.803  30.222  45.299
    1STR    C0C22018  46.927  30.275  45.353
    1STR    C0D22019  46.947  30.221  45.495
    1STR    C0E22020  47.050  30.242  45.264
    1STR    O0F22021  47.170  30.295  45.322
    1STR    C0G22022  47.293  30.273  45.250
    1STR    C0H22023  47.302  30.372  45.133
    1STR    C0I22024  47.414  30.291  45.345
    1STR    O0J22025  47.537  30.263  45.276
    1STR    C0K22026  58.417  30.504  45.029
    1STR    C0M22027  58.407  30.412  45.151
    1STR    C0N22028  58.541  30.465  44.945
    1STR    O0O22029  58.661  30.497  45.015
    1STR    C0P22030  58.763  30.409  45.034
    1STR    O0Q22031  58.763  30.290  45.003
    1STR    N0R22032  58.863  30.475  45.093
    1STR    C0S22033  58.991  30.444  45.140
    1STR    C0T22034  59.062  30.556  45.187
    1STR    C0U22035  59.188  30.543  45.247
    1STR    C0V22036  59.247  30.417  45.262
    1STR    C0W22037  59.376  30.410  45.343
    1STR    C0X22038  59.184  30.301  45.208
    1STR    N0Y22039  59.247  30.176  45.225
    1STR   BCK222040  59.376  30.148  45.194
    1STR    O1022041  59.442  30.214  45.114
    1STR    C1322042  59.054  30.316  45.150
    1STR    C1422043  46.396  30.375  45.324
    1STR    C1522044  46.260  30.410  45.321
    1STR    C1622045  46.162  30.318  45.279
    1STR    C1722046  46.020  30.371  45.266
    1STR    H1B22047  46.129  30.032  45.125
    1STR    H1C22048  46.368  30.053  45.219
    1STR    H1D22049  46.605  30.131  45.231
    1STR    H1E22050  46.919  30.383  45.357
    1STR    H1F22051  46.956  30.112  45.496
    1STR    H1G22052  47.038  30.262  45.540
    1STR    H1H22053  46.864  30.249  45.560
    1STR    H1I22054  47.034  30.285  45.165
    1STR    H1J22055  47.059  30.134  45.251
    1STR    H1K22056  47.295  30.171  45.213
    1STR    H1M22057  47.296  30.475  45.168
    1STR    H1N22058  47.222  30.357  45.060
    1STR    H1O22059  47.396  30.361  45.080
    1STR    H1P22060  47.416  30.393  45.385
    1STR    H1Q22061  47.402  30.225  45.431
    1STR   C01022062  47.658  30.281  45.351
    1STR   H01122063  47.654  30.375  45.406
    1STR   C01222064  47.676  30.164  45.449
    1STR   H01322065  47.676  30.068  45.397
    1STR   H01422066  47.599  30.161  45.526
    1STR   H01522067  47.772  30.172  45.502
    1STR   C01622068  47.776  30.289  45.252
    1STR   H01722069  47.783  30.197  45.195
    1STR   H01822070  47.758  30.370  45.182
    1STR   O01922071  47.899  30.312  45.322
    1STR   C02022072  48.017  30.317  45.241
    1STR   H02122073  48.015  30.237  45.167
    1STR   C02222074  48.025  30.453  45.169
    1STR   H02322075  48.023  30.535  45.241
    1STR   H02422076  47.944  30.468  45.099
    1STR   H02522077  48.118  30.462  45.113
    1STR   C02622078  48.141  30.295  45.331
    1STR   H02722079  48.147  30.374  45.406
    1STR   H02822080  48.129  30.201  45.384
    1STR   O02922081  48.260  30.293  45.251
    1STR   C03022082  48.382  30.278  45.323
    1STR   H03122083  48.382  30.341  45.412
    1STR   C03222084  48.401  30.131  45.364
    1STR   H03322085  48.397  30.065  45.277
    1STR   H03422086  48.325  30.098  45.435
    1STR   H03522087  48.498  30.116  45.412
    1STR   C03622088  48.498  30.324  45.232
    1STR   H03722089  48.502  30.262  45.143
    1STR   H03822090  48.478  30.426  45.200
    1STR   O03922091  48.622  30.318  45.303
    1STR   C04022092  48.738  30.355  45.229
    1STR   H04122093  48.734  30.310  45.129
    1STR   C04222094  48.747  30.508  45.218
    1STR   H04322095  48.746  30.554  45.316
    1STR   H04422096  48.664  30.550  45.160
    1STR   H04522097  48.839  30.537  45.168
    1STR   C04622098  48.861  30.297  45.301
    1STR   H04722099  48.869  30.340  45.401
    1STR   H04822100  48.848  30.190  45.314
    1STR   O04922101  48.979  30.324  45.226
    1STR   C05022102  49.101  30.280  45.284
    1STR   H05122103  49.102  30.303  45.391
    1STR   C05222104  49.117  30.128  45.263
    1STR   H05322105  49.112  30.103  45.157
    1STR   H05422106  49.041  30.071  45.315
    1STR   H05522107  49.214  30.094  45.300
    1STR   C05622108  49.216  30.358  45.218
    1STR   H05722109  49.219  30.336  45.111
    1STR   H05822110  49.197  30.464  45.229
    1STR   O05922111  49.340  30.322  45.280
    1STR   C06022112  49.456  30.385  45.225
    1STR   H06122113  49.450  30.385  45.116
    1STR   C06222114  49.466  30.530  45.276
    1STR   H06322115  49.467  30.532  45.385
    1STR   H06422116  49.384  30.592  45.241
    1STR   H06522117  49.559  30.576  45.242
    1STR   C06622118  49.578  30.302  45.267
    1STR   H06722119  49.587  30.301  45.375
    1STR   H06822120  49.563  30.198  45.235
    1STR   O06922121  49.695  30.356  45.206
    1STR   C07022122  49.817  30.289  45.240
    1STR   H07122123  49.819  30.268  45.347
    1STR   C07222124  49.830  30.159  45.160
    1STR   H07322125  49.824  30.178  45.053
    1STR   H07422126  49.754  30.087  45.186
    1STR   H07522127  49.927  30.112  45.179
    1STR   C07622128  49.932  30.386  45.209
    1STR   H07722129  49.934  30.409  45.103
    1STR   H07822130  49.915  30.480  45.262
    1STR   O07922131  50.056  30.328  45.251
    1STR   C08022132  50.172  30.407  45.224
    1STR   H08122133  50.166  30.450  45.124
    1STR   C08222134  50.185  30.518  45.329
    1STR   H08322135  50.186  30.478  45.430
    1STR   H08422136  50.104  30.590  45.322
    1STR   H08522137  50.278  30.574  45.314
    1STR   C08622138  50.293  30.312  45.227
    1STR   H08722139  50.303  30.268  45.327
    1STR   H08822140  50.276  30.230  45.158
    1STR   O08922141  50.411  30.384  45.192
    1STR   C09022142  50.531  30.308  45.195
    1STR   H09122143  50.534  30.246  45.285
    1STR   C09222144  50.542  30.221  45.069
    1STR   H09322145  50.535  30.281  44.979
    1STR   H09422146  50.465  30.145  45.065
    1STR   H09522147  50.638  30.169  45.067
    1STR   C09622148  50.648  30.408  45.204
    1STR   H09722149  50.649  30.472  45.115
    1STR   H09822150  50.632  30.474  45.290
    1STR   O09922151  50.771  30.337  45.217
    1STR   C10022152  50.888  30.419  45.223
    1STR   H10122153  50.882  30.498  45.148
    1STR   C10222154  50.903  30.479  45.363
    1STR   H10322155  50.904  30.401  45.439
    1STR   H10422156  50.822  30.548  45.387
    1STR   H10522157  50.996  30.535  45.371
    1STR   C10622158  51.007  30.329  45.187
    1STR   H10722159  51.017  30.249  45.260
    1STR   H10822160  50.988  30.282  45.090
    1STR   O10922161  51.126  30.408  45.181
    1STR   C11022162  51.245  30.336  45.153
    1STR   H11122163  51.248  30.243  45.210
    1STR   C11222164  51.254  30.306  45.002
    1STR   H11322165  51.247  30.398  44.943
    1STR   H11422166  51.175  30.239  44.969
    1STR   H11522167  51.349  30.259  44.977
    1STR   C11622168  51.363  30.423  45.199
    1STR   H11722169  51.365  30.517  45.143
    1STR   H11822170  51.349  30.449  45.304
    1STR   O11922171  51.485  30.351  45.181
    1STR   C12022172  51.603  30.423  45.217
    1STR   H12122173  51.598  30.525  45.181
    1STR   C12222174  51.620  30.422  45.370
    1STR   H12322175  51.621  30.320  45.409
    1STR   H12422176  51.541  30.477  45.421
    1STR   H12522177  51.715  30.469  45.398
    1STR   C12622178  51.721  30.354  45.147
    1STR   H12722179  51.731  30.251  45.183
    1STR   H12822180  51.701  30.349  45.040
    1STR   O12922181  51.841  30.427  45.172
    1STR   C13022182  51.959  30.371  45.116
    1STR   H13122183  51.960  30.263  45.131
    1STR   C13222184  51.966  30.404  44.966
    1STR   H13322185  51.959  30.511  44.948
    1STR   H13422186  51.885  30.356  44.909
    1STR   H13522187  52.060  30.369  44.923
    1STR   C13622188  52.078  30.431  45.191
    1STR   H13722189  52.081  30.539  45.177
    1STR   H13822190  52.065  30.413  45.298
    1STR   O13922191  52.199  30.371  45.145
    1STR   C14022192  52.318  30.421  45.205
    1STR   H14122193  52.314  30.530  45.213
    1STR   C14222194  52.336  30.359  45.344
    1STR   H14322195  52.336  30.250  45.339
    1STR   H14422196  52.258  30.389  45.414
    1STR   H14522197  52.432  30.389  45.388
    1STR   C14622198  52.435  30.384  45.112
    1STR   H14722199  52.443  30.276  45.103
    1STR   H14822200  52.414  30.423  45.012
    1STR   O14922201  52.556  30.440  45.162
    1STR   C15022202  52.673  30.410  45.087
    1STR   H15122203  52.673  30.305  45.057
    1STR   C15222204  52.679  30.500  44.962
    1STR   H15322205  52.674  30.606  44.990
    1STR   H15422206  52.598  30.480  44.893
    1STR   H15522207  52.772  30.485  44.908
    1STR   C15622208  52.793  30.434  45.179
    1STR   H15722209  52.798  30.539  45.209
    1STR   H15822210  52.781  30.375  45.270
    1STR   O15922211  52.913  30.396  45.111
    1STR   C16022212  53.033  30.417  45.184
    1STR   H16122213  53.031  30.514  45.234
    1STR   C16222214  53.052  30.304  45.287
    1STR   H16322215  53.050  30.206  45.239
    1STR   H16422216  52.975  30.305  45.364
    1STR   H16522217  53.148  30.314  45.338
    1STR   C16622218  53.149  30.419  45.082
    1STR   H16722219  53.155  30.323  45.031
    1STR   H16822220  53.127  30.495  45.007
    1STR   O16922221  53.271  30.449  45.150
    1STR   C17022222  53.387  30.451  45.067
    1STR   H17122223  53.385  30.366  44.998
    1STR   C17222224  53.393  30.583  44.989
    1STR   H17322225  53.390  30.669  45.056
    1STR   H17422226  53.311  30.593  44.918
    1STR   H17522227  53.486  30.589  44.931
    1STR   C17622228  53.508  30.434  45.159
    1STR   H17722229  53.514  30.518  45.229
    1STR   H17822230  53.496  30.344  45.219
    1STR   O17922231  53.627  30.425  45.080
    1STR   C18022232  53.748  30.413  45.154
    1STR   H18122233  53.747  30.482  45.239
    1STR   C18222234  53.766  30.269  45.203
    1STR   H18322235  53.762  30.198  45.120
    1STR   H18422236  53.689  30.240  45.275
    1STR   H18522237  53.862  30.256  45.252
    1STR   C18622238  53.862  30.455  45.060
    1STR   H18722239  53.867  30.388  44.975
    1STR   H18822240  53.842  30.555  45.021
    1STR   O18922241  53.985  30.454  45.132
    1STR   C19022242  54.101  30.488  45.056
    1STR   H19122243  54.097  30.438  44.958
    1STR   C19222244  54.109  30.640  45.036
    1STR   H19322245  54.108  30.692  45.132
    1STR   H19422246  54.026  30.678  44.976
    1STR   H19522247  54.201  30.667  44.985
    1STR   C19622248  54.223  30.434  45.132
    1STR   H19722249  54.231  30.483  45.229
    1STR   H19822250  54.210  30.328  45.150
    1STR   O19922251  54.341  30.457  45.054
    1STR   C20022252  54.462  30.415  45.115
    1STR   H20122253  54.464  30.444  45.221
    1STR   C20222254  54.478  30.263  45.102
    1STR   H20322255  54.473  30.231  44.998
    1STR   H20422256  54.402  30.208  45.158
    1STR   H20522257  54.575  30.230  45.141
    1STR   C20622258  54.577  30.490  45.045
    1STR   H20722259  54.580  30.462  44.940
    1STR   H20822260  54.557  30.597  45.050
    1STR   O20922261  54.700  30.458  45.109
    1STR   C21022262  54.816  30.518  45.051
    1STR   H21122263  54.811  30.512  44.942
    1STR   C21222264  54.826  30.666  45.094
    1STR   H21322265  54.826  30.675  45.203
    1STR   H21422266  54.743  30.726  45.056
    1STR   H21522267  54.918  30.710  45.057
    1STR   C21622268  54.938  30.438  45.098
    1STR   H21722269  54.947  30.444  45.206
    1STR   H21822270  54.923  30.333  45.072
    1STR   O21922271  55.055  30.488  45.034
    1STR   C22022272  55.177  30.424  45.072
    1STR   H22122273  55.179  30.408  45.180
    1STR   C22222274  55.190  30.290  44.999
    1STR   H22322275  55.183  30.303  44.891
    1STR   H22422276  55.113  30.219  45.029
    1STR   H22522277  55.286  30.243  45.020
    1STR   C22622278  55.292  30.519  45.036
    1STR   H22722279  55.294  30.536  44.928
    1STR   H22822280  55.274  30.616  45.084
    1STR   O22922281  55.416  30.464  45.081
    1STR   C23022282  55.531  30.541  45.050
    1STR   H23122283  55.526  30.578  44.947
    1STR   C23222284  55.544  30.658  45.148
    1STR   H23322285  55.545  30.623  45.251
    1STR   H23422286  55.462  30.730  45.137
    1STR   H23522287  55.636  30.713  45.131
    1STR   C23622288  55.653  30.447  45.059
    1STR   H23722289  55.663  30.409  45.161
    1STR   H23822290  55.636  30.361  44.994
    1STR   O23922291  55.771  30.517  45.020
    1STR   C24022292  55.892  30.442  45.027
    1STR   H24122293  55.895  30.384  45.120
    1STR   C24222294  55.902  30.348  44.906
    1STR   H24322295  55.894  30.403  44.812
    1STR   H24422296  55.825  30.271  44.906
    1STR   H24522297  55.998  30.296  44.906
    1STR   C24622298  56.009  30.542  45.030
    1STR   H24722299  56.010  30.601  44.938
    1STR   H24822300  55.993  30.612  45.112
    1STR   O24922301  56.132  30.472  45.047
    1STR   C25022302  56.249  30.554  45.048
    1STR   H25122303  56.243  30.629  44.969
    1STR   C25222304  56.263  30.623  45.185
    1STR   H25322305  56.263  30.549  45.266
    1STR   H25422306  56.182  30.693  45.205
    1STR   H25522307  56.356  30.679  45.191
    1STR   C25622308  56.370  30.463  45.018
    1STR   H25722309  56.379  30.388  45.096
    1STR   H25822310  56.351  30.411  44.925
    1STR   O25922311  56.488  30.542  45.010
    1STR   C26022312  56.608  30.469  44.984
    1STR   H26122313  56.611  30.379  45.046
    1STR   C26222314  56.616  30.431  44.835
    1STR   H26322315  56.607  30.519  44.772
    1STR   H26422316  56.537  30.361  44.807
    1STR   H26522317  56.711  30.383  44.813
    1STR   C26622318  56.727  30.558  45.025
    1STR   H26722319  56.728  30.649  44.964
    1STR   H26822320  56.714  30.589  45.128
    1STR   O26922321  56.850  30.487  45.010
    1STR   C27022322  56.969  30.559  45.043
    1STR   H27122323  56.963  30.660  45.001
    1STR   C27222324  56.984  30.567  45.196
    1STR   H27322325  56.983  30.467  45.240
    1STR   H27422326  56.904  30.625  45.243
    1STR   H27522327  57.078  30.615  45.223
    1STR   C27622328  57.089  30.488  44.979
    1STR   H27722329  57.098  30.386  45.019
    1STR   H27822330  57.070  30.478  44.872
    1STR   O27922331  57.210  30.561  45.001
    1STR   C28022332  57.329  30.503  44.947
    1STR   H28122333  57.331  30.396  44.967
    1STR   C28222334  57.333  30.528  44.795
    1STR   H28322335  57.324  30.634  44.772
    1STR   H28422336  57.253  30.476  44.742
    1STR   H28522337  57.427  30.493  44.753
    1STR   C28622338  57.451  30.567  45.017
    1STR   H28722339  57.452  30.675  44.998
    1STR   H28822340  57.439  30.554  45.125
    1STR   O28922341  57.573  30.507  44.972
    1STR   C29022342  57.693  30.559  45.030
    1STR   H29122343  57.690  30.668  45.032
    1STR   C29222344  57.708  30.505  45.173
    1STR   H29322345  57.705  30.396  45.175
    1STR   H29422346  57.630  30.542  45.240
    1STR   H29522347  57.804  30.535  45.216
    1STR   C29622348  57.812  30.516  44.942
    1STR   H29722349  57.817  30.407  44.937
    1STR   H29822350  57.795  30.551  44.840
    1STR   O29922351  57.936  30.568  44.991
    1STR   C30022352  58.054  30.532  44.918
    1STR   H30122353  58.049  30.426  44.891
    1STR   C30222354  58.062  30.618  44.790
    1STR   H30322355  58.057  30.724  44.814
    1STR   H30422356  57.981  30.596  44.721
    1STR   H30522357  58.156  30.600  44.738
    1STR   C30622358  58.178  30.553  45.008
    1STR   H30722359  58.193  30.659  45.028
    1STR   H30822360  58.157  30.506  45.104
    1STR   O30922361  58.297  30.495  44.950
    1STR    H1R22362  58.429  30.608  45.061
    1STR    H1S22363  58.501  30.412  45.207
    1STR    H1T22364  58.387  30.309  45.121
    1STR    H1U22365  58.330  30.442  45.221
    1STR    H1V22366  58.541  30.522  44.851
    1STR    H1W22367  58.538  30.360  44.916
    1STR    H1X22368  58.834  30.570  45.103
    1STR    H1Y22369  59.021  30.655  45.179
    1STR    H1Z22370  59.238  30.631  45.285
    1STR    H2022371  59.376  30.322  45.408
    1STR    H2122372  59.462  30.404  45.277
    1STR    H2222373  59.388  30.497  45.407
    1STR    H2322374  59.197  30.104  45.274
    1STR    H2722375  59.001  30.229  45.113
    1STR    H2822376  46.465  30.452  45.354
    1STR    H2922377  46.232  30.510  45.349
    1STR    H2A22378  45.967  30.322  45.184
    1STR    H2B22379  46.020  30.478  45.244
    1STR    H2C22380  45.965  30.356  45.358
    1STR   BCK122381  45.978  44.998   0.037
    1STR    O0322382  45.956  44.947  60.087
    1STR    N0422383  46.099  44.999   0.096
    1STR    C0522384  46.203  44.909   0.070
    1STR    C0622385  46.338  44.950   0.044
    1STR    C0722386  46.444  44.856   0.024
    1STR    N0822387  46.578  44.897   0.004
    1STR    C0922388  46.692  44.823   0.011
    1STR    O0A22389  46.695  44.704   0.040
    1STR    O0B22390  46.805  44.894  60.141
    1STR    C0C22391  46.931  44.824  60.128
    1STR    C0D22392  46.944  44.770  59.985
    1STR    C0E22393  47.054  44.911   0.006
    1STR    O0F22394  47.174  44.831  60.157
    1STR    C0G22395  47.297  44.894   0.036
    1STR    C0H22396  47.306  44.898   0.189
    1STR    C0I22397  47.416  44.815  60.137
    1STR    O0J22398  47.540  44.881   0.008
    1STR    C0K22399  58.409  44.859   0.383
    1STR    C0M22400  58.416  44.855   0.229
    1STR    C0N22401  58.528  44.939   0.440
    1STR    O0O22402  58.650  44.864   0.427
    1STR    C0P22403  58.758  44.914   0.364
    1STR    O0Q22404  58.766  45.024   0.310
    1STR    N0R22405  58.856  44.823   0.366
    1STR    C0S22406  58.981  44.820   0.304
    1STR    C0T22407  59.032  44.693   0.272
    1STR    C0U22408  59.153  44.680   0.202
    1STR    C0V22409  59.227  44.794   0.164
    1STR    C0W22410  59.345  44.773   0.071
    1STR    C0X22411  59.184  44.922   0.206
    1STR    N0Y22412  59.255  45.038   0.174
    1STR   BCK222413  59.384  45.073   0.191
    1STR    O1022414  59.423  45.180   0.145
    1STR    C1322415  59.059  44.934   0.272
    1STR    C1422416  46.408  44.719   0.026
    1STR    C1522417  46.278  44.677   0.056
    1STR    C1622418  46.176  44.770   0.081
    1STR    C1722419  46.041  44.717   0.126
    1STR    H1B22420  46.108  45.058   0.177
    1STR    H1C22421  46.359  45.056   0.040
    1STR    H1D22422  46.597  44.993  60.144
    1STR    H1E22423  46.933  44.739   0.037
    1STR    H1F22424  46.947  44.851  59.911
    1STR    H1G22425  47.036  44.712  59.973
    1STR    H1H22426  46.861  44.704  59.960
    1STR    H1I22427  47.041  44.948   0.108
    1STR    H1J22428  47.062  44.998  60.101
    1STR    H1K22429  47.301  44.996  60.155
    1STR    H1M22430  47.299  44.798   0.231
    1STR    H1N22431  47.228  44.959   0.234
    1STR    H1O22432  47.402  44.940   0.221
    1STR    H1P22433  47.417  44.714   0.016
    1STR    H1Q22434  47.404  44.808  60.029
    1STR   C01022435  47.660  44.816  60.125
    1STR   H01122436  47.655  44.710  60.148
    1STR   C01222437  47.679  44.836  59.974
    1STR   H01322438  47.679  44.942  59.947
    1STR   H01422439  47.601  44.787  59.916
    1STR   H01522440  47.774  44.794  59.941
    1STR   C01622441  47.779  44.877   0.043
    1STR   H01722442  47.785  44.984   0.023
    1STR   H01822443  47.760  44.866   0.150
    1STR   O01922444  47.901  44.812   0.008
    1STR   C02022445  48.019  44.863   0.072
    1STR   H02122446  48.017  44.972   0.072
    1STR   C02222447  48.027  44.811   0.216
    1STR   H02322448  48.024  44.702   0.219
    1STR   H02422449  47.945  44.848   0.278
    1STR   H02522450  48.120  44.843   0.264
    1STR   C02622451  48.142  44.819  60.150
    1STR   H02722452  48.148  44.710  60.148
    1STR   H02822453  48.131  44.852  60.047
    1STR   O02922454  48.261  44.874   0.047
    1STR   C03022455  48.384  44.837  60.144
    1STR   H03122456  48.383  44.730  60.121
    1STR   C03222457  48.402  44.918  60.014
    1STR   H03322458  48.398  45.025  60.034
    1STR   H03422459  48.326  44.895  59.940
    1STR   H03522460  48.498  44.896  59.968
    1STR   C03622461  48.499  44.864   0.082
    1STR   H03722462  48.503  44.970   0.106
    1STR   H03822463  48.479  44.811   0.175
    1STR   O03922464  48.623  44.821   0.025
    1STR   C04022465  48.739  44.844   0.105
    1STR   H04122466  48.735  44.944   0.149
    1STR   C04222467  48.747  44.739   0.217
    1STR   H04322468  48.746  44.638   0.176
    1STR   H04422469  48.665  44.747   0.288
    1STR   H04522470  48.840  44.751   0.274
    1STR   C04622471  48.862  44.837   0.013
    1STR   H04722472  48.870  44.738  60.129
    1STR   H04822473  48.848  44.908  60.091
    1STR   O04922474  48.980  44.869   0.087
    1STR   C05022475  49.102  44.862   0.014
    1STR   H05122476  49.103  44.773  60.111
    1STR   C05222477  49.117  44.988  60.087
    1STR   H05322478  49.112  45.078  60.148
    1STR   H05422479  49.041  44.995  60.010
    1STR   H05522480  49.214  44.988  60.037
    1STR   C05622481  49.217  44.849   0.115
    1STR   H05722482  49.220  44.937   0.179
    1STR   H05822483  49.198  44.763   0.180
    1STR   O05922484  49.340  44.833   0.046
    1STR   C06022485  49.456  44.824   0.129
    1STR   H06122486  49.451  44.898   0.209
    1STR   C06222487  49.466  44.683   0.189
    1STR   H06322488  49.467  44.607   0.110
    1STR   H06422489  49.384  44.661   0.256
    1STR   H06522490  49.559  44.672   0.245
    1STR   C06622491  49.578  44.857   0.042
    1STR   H06722492  49.588  44.784  60.121
    1STR   H06822493  49.563  44.955  60.155
    1STR   O06922494  49.696  44.859   0.123
    1STR   C07022495  49.817  44.884   0.053
    1STR   H07122496  49.820  44.828  60.119
    1STR   C07222497  49.831  45.035   0.024
    1STR   H07322498  49.824  45.093   0.116
    1STR   H07422499  49.754  45.070  60.116
    1STR   H07522500  49.927  45.057  60.138
    1STR   C07622501  49.933  44.834   0.141
    1STR   H07722502  49.934  44.889   0.235
    1STR   H07822503  49.915  44.729   0.166
    1STR   O07922504  50.056  44.849   0.071
    1STR   C08022505  50.172  44.809   0.144
    1STR   H08122506  50.166  44.845   0.247
    1STR   C08222507  50.185  44.656   0.143
    1STR   H08322508  50.186  44.618   0.040
    1STR   H08422509  50.104  44.607   0.196
    1STR   H08522510  50.278  44.625   0.191
    1STR   C08622511  50.293  44.876   0.078
    1STR   H08722512  50.303  44.842  60.135
    1STR   H08822513  50.276  44.984   0.073
    1STR   O08922514  50.411  44.847   0.153
    1STR   C09022515  50.532  44.901   0.099
    1STR   H09122516  50.534  44.886  60.151
    1STR   C09222517  50.542  45.050   0.133
    1STR   H09322518  50.535  45.067   0.240
    1STR   H09422519  50.465  45.109   0.084
    1STR   H09522520  50.638  45.090   0.100
    1STR   C09622521  50.648  44.821   0.160
    1STR   H09722522  50.649  44.834   0.268
    1STR   H09822523  50.632  44.715   0.141
    1STR   O09922524  50.771  44.864   0.102
    1STR   C10022525  50.887  44.801   0.153
    1STR   H10122526  50.882  44.793   0.262
    1STR   C10222527  50.903  44.661   0.091
    1STR   H10322528  50.904  44.667  60.142
    1STR   H10422529  50.822  44.594   0.120
    1STR   H10522530  50.996  44.615   0.122
    1STR   C10622531  51.007  44.891   0.119
    1STR   H10722532  51.017  44.900   0.011
    1STR   H10822533  50.988  44.991   0.158
    1STR   O10922534  51.126  44.836   0.177
    1STR   C11022535  51.245  44.909   0.149
    1STR   H11122536  51.248  44.939   0.044
    1STR   C11222537  51.253  45.032   0.240
    1STR   H11322538  51.246  45.004   0.345
    1STR   H11422539  51.175  45.104   0.219
    1STR   H11522540  51.348  45.084   0.226
    1STR   C11622541  51.363  44.813   0.173
    1STR   H11722542  51.365  44.782   0.278
    1STR   H11822543  51.349  44.723   0.113
    1STR   O11922544  51.485  44.878   0.138
    1STR   C12022545  51.603  44.802   0.160
    1STR   H12122546  51.598  44.751   0.256
    1STR   C12222547  51.620  44.699   0.047
    1STR   H12322548  51.621  44.748  60.109
    1STR   H12422549  51.541  44.624   0.046
    1STR   H12522550  51.715  44.645   0.058
    1STR   C12622551  51.721  44.900   0.165
    1STR   H12722552  51.730  44.952   0.069
    1STR   H12822553  51.701  44.976   0.241
    1STR   O12922554  51.841  44.829   0.196
    1STR   C13022555  51.959  44.908   0.200
    1STR   H13122556  51.960  44.978   0.116
    1STR   C13222557  51.966  44.986   0.332
    1STR   H13322558  51.960  44.918   0.418
    1STR   H13422559  51.886  45.059   0.342
    1STR   H13522560  52.060  45.040   0.340
    1STR   C13622561  52.078  44.813   0.184
    1STR   H13722562  52.081  44.743   0.268
    1STR   H13822563  52.065  44.754   0.093
    1STR   O13922564  52.199  44.889   0.178
    1STR   C14022565  52.318  44.811   0.168
    1STR   H14122566  52.314  44.726   0.235
    1STR   C14222567  52.337  44.763   0.023
    1STR   H14322568  52.336  44.847  60.113
    1STR   H14422569  52.259  44.694  60.152
    1STR   H14522570  52.432  44.711   0.011
    1STR   C14622571  52.435  44.901   0.212
    1STR   H14722572  52.443  44.987   0.145
    1STR   H14822573  52.414  44.940   0.312
    1STR   O14922574  52.556  44.826   0.212
    1STR   C15022575  52.673  44.899   0.248
    1STR   H15122576  52.673  44.996   0.199
    1STR   C15222577  52.679  44.916   0.400
    1STR   H15322578  52.674  44.820   0.451
    1STR   H15422579  52.598  44.979   0.438
    1STR   H15522580  52.772  44.965   0.430
    1STR   C15622581  52.794  44.819   0.196
    1STR   H15722582  52.798  44.722   0.244
    1STR   H15822583  52.781  44.802   0.089
    1STR   O15922584  52.913  44.893   0.221
    1STR   C16022585  53.033  44.829   0.180
    1STR   H16122586  53.031  44.723   0.208
    1STR   C16222587  53.052  44.843   0.028
    1STR   H16322588  53.050  44.947  60.158
    1STR   H16422589  52.975  44.790  60.132
    1STR   H16522590  53.148  44.801  60.157
    1STR   C16622591  53.149  44.895   0.257
    1STR   H16722592  53.155  45.001   0.230
    1STR   H16822593  53.127  44.891   0.364
    1STR   O16922594  53.271  44.828   0.228
    1STR   C17022595  53.387  44.882   0.290
    1STR   H17122596  53.385  44.991   0.283
    1STR   C17222597  53.393  44.838   0.437
    1STR   H17322598  53.390  44.729   0.445
    1STR   H17422599  53.311  44.878   0.496
    1STR   H17522600  53.486  44.872   0.483
    1STR   C17622601  53.508  44.833   0.210
    1STR   H17722602  53.514  44.724   0.216
    1STR   H17822603  53.496  44.859   0.105
    1STR   O17922604  53.627  44.892   0.263
    1STR   C18022605  53.748  44.851   0.200
    1STR   H18122606  53.747  44.743   0.184
    1STR   C18222607  53.766  44.925   0.067
    1STR   H18322608  53.762  45.033   0.080
    1STR   H18422609  53.689  44.897  60.154
    1STR   H18522610  53.862  44.901   0.022
    1STR   C18622611  53.862  44.884   0.298
    1STR   H18722612  53.867  44.991   0.315
    1STR   H18822613  53.842  44.836   0.394
    1STR   O18922614  53.985  44.836   0.244
    1STR   C19022615  54.101  44.863   0.323
    1STR   H19122616  54.097  44.965   0.361
    1STR   C19222617  54.109  44.763   0.440
    1STR   H19322618  54.108  44.660   0.404
    1STR   H19422619  54.026  44.775   0.510
    1STR   H19522620  54.201  44.778   0.496
    1STR   C19622621  54.223  44.851   0.231
    1STR   H19722622  54.231  44.749   0.192
    1STR   H19822623  54.210  44.917   0.145
    1STR   O19922624  54.341  44.887   0.303
    1STR   C20022625  54.462  44.876   0.229
    1STR   H20122626  54.463  44.784   0.171
    1STR   C20222627  54.478  44.997   0.136
    1STR   H20322628  54.473  45.091   0.193
    1STR   H20422629  54.402  45.000   0.059
    1STR   H20522630  54.575  44.995   0.086
    1STR   C20622631  54.577  44.868   0.332
    1STR   H20722632  54.580  44.960   0.391
    1STR   H20822633  54.557  44.786   0.401
    1STR   O20922634  54.700  44.848   0.263
    1STR   C21022635  54.816  44.843   0.347
    1STR   H21122636  54.811  44.922   0.423
    1STR   C21222637  54.826  44.705   0.414
    1STR   H21322638  54.826  44.625   0.340
    1STR   H21422639  54.743  44.687   0.483
    1STR   H21522640  54.918  44.697   0.472
    1STR   C21622641  54.938  44.871   0.258
    1STR   H21722642  54.947  44.794   0.182
    1STR   H21822643  54.923  44.966   0.206
    1STR   O21922644  55.055  44.877   0.339
    1STR   C22022645  55.177  44.898   0.268
    1STR   H22122646  55.179  44.837   0.177
    1STR   C22222647  55.190  45.047   0.231
    1STR   H22322648  55.183  45.110   0.320
    1STR   H22422649  55.113  45.079   0.161
    1STR   H22522650  55.286  45.067   0.184
    1STR   C22622651  55.292  44.853   0.359
    1STR   H22722652  55.293  44.913   0.450
    1STR   H22822653  55.274  44.749   0.389
    1STR   O22922654  55.415  44.863   0.288
    1STR   C23022655  55.531  44.827   0.363
    1STR   H23122656  55.525  44.869   0.464
    1STR   C23222657  55.543  44.674   0.370
    1STR   H23322658  55.544  44.631   0.270
    1STR   H23422659  55.462  44.629   0.426
    1STR   H23522660  55.636  44.645   0.420
    1STR   C23622661  55.652  44.891   0.293
    1STR   H23722662  55.662  44.850   0.192
    1STR   H23822663  55.635  44.998   0.283
    1STR   O23922664  55.770  44.865   0.369
    1STR   C24022665  55.891  44.916   0.313
    1STR   H24122666  55.894  44.896   0.206
    1STR   C24222667  55.901  45.067   0.339
    1STR   H24322668  55.894  45.089   0.445
    1STR   H24422669  55.824  45.123   0.287
    1STR   H24522670  55.997  45.105   0.304
    1STR   C24622671  56.007  44.839   0.378
    1STR   H24722672  56.009  44.858   0.486
    1STR   H24822673  55.991  44.732   0.365
    1STR   O24922674  56.130  44.880   0.319
    1STR   C25022675  56.247  44.818   0.373
    1STR   H25122676  56.241  44.816   0.482
    1STR   C25222677  56.262  44.676   0.318
    1STR   H25322678  56.263  44.675   0.209
    1STR   H25422679  56.181  44.610   0.351
    1STR   H25522680  56.355  44.631   0.352
    1STR   C25622681  56.367  44.906   0.334
    1STR   H25722682  56.377  44.909   0.225
    1STR   H25822683  56.349  45.008   0.368
    1STR   O25922684  56.486  44.854   0.394
    1STR   C26022685  56.606  44.925   0.363
    1STR   H26122686  56.609  44.949   0.256
    1STR   C26222687  56.614  45.054   0.447
    1STR   H26322688  56.606  45.032   0.553
    1STR   H26422689  56.535  45.124   0.421
    1STR   H26522690  56.709  45.104   0.430
    1STR   C26622691  56.724  44.831   0.393
    1STR   H26722692  56.725  44.806   0.499
    1STR   H26822693  56.710  44.738   0.338
    1STR   O26922694  56.847  44.894   0.355
    1STR   C27022695  56.965  44.818   0.380
    1STR   H27122696  56.959  44.772   0.479
    1STR   C27222697  56.981  44.709   0.273
    1STR   H27322698  56.981  44.752   0.173
    1STR   H27422699  56.901  44.635   0.277
    1STR   H27522700  57.075  44.656   0.286
    1STR   C27622701  57.084  44.915   0.379
    1STR   H27722702  57.093  44.962   0.281
    1STR   H27822703  57.065  44.995   0.451
    1STR   O27922704  57.204  44.846   0.413
    1STR   C28022705  57.323  44.925   0.414
    1STR   H28122706  57.325  44.990   0.326
    1STR   C28222707  57.329  45.009   0.542
    1STR   H28322708  57.321  44.946   0.631
    1STR   H28422709  57.249  45.083   0.546
    1STR   H28522710  57.423  45.064   0.548
    1STR   C28622711  57.444  44.829   0.404
    1STR   H28722712  57.446  44.763   0.491
    1STR   H28822713  57.432  44.766   0.316
    1STR   O28922714  57.566  44.904   0.396
    1STR   C29022715  57.686  44.827   0.389
    1STR   H29122716  57.682  44.745   0.461
    1STR   C29222717  57.702  44.770   0.246
    1STR   H29322718  57.700  44.850   0.172
    1STR   H29422719  57.624  44.699   0.221
    1STR   H29522720  57.797  44.718   0.236
    1STR   C29622721  57.804  44.918   0.426
    1STR   H29722722  57.810  45.001   0.356
    1STR   H29822723  57.784  44.961   0.525
    1STR   O29922724  57.927  44.845   0.427
    1STR   C30022725  58.044  44.921   0.459
    1STR   H30122726  58.041  45.016   0.407
    1STR   C30222727  58.049  44.944   0.611
    1STR   H30322728  58.044  44.850   0.666
    1STR   H30422729  57.968  45.008   0.646
    1STR   H30522730  58.143  44.993   0.639
    1STR   C30622731  58.168  44.843   0.410
    1STR   H30722732  58.177  44.749   0.464
    1STR   H30822733  58.152  44.817   0.305
    1STR   O30922734  58.287  44.922   0.425
    1STR    H1R22735  58.413  44.758   0.424
    1STR    H1S22736  58.512  44.816   0.196
    1STR    H1T22737  58.404  44.955   0.187
    1STR    H1U22738  58.339  44.791   0.186
    1STR    H1V22739  58.513  44.958   0.546
    1STR    H1W22740  58.535  45.038   0.393
    1STR    H1X22741  58.826  44.741   0.415
    1STR    H1Y22742  58.977  44.604   0.297
    1STR    H1Z22743  59.187  44.582   0.173
    1STR    H2022744  59.364  44.862   0.010
    1STR    H2122745  59.436  44.750   0.127
    1STR    H2222746  59.326  44.691   0.002
    1STR    H2322747  59.203  45.113   0.131
    1STR    H2722748  59.022  45.032   0.299
    1STR    H2822749  46.480  44.641   0.007
    1STR    H2922750  46.257  44.571   0.061
    1STR    H2A22751  46.001  44.778   0.207
    1STR    H2B22752  46.049  44.615   0.164
    1STR    H2C22753  45.971  44.717   0.043
    1STR   BCK122754  45.985  45.106  15.033
    1STR    O0322755  45.928  45.214  15.042
    1STR    N0422756  46.112  45.089  14.990
    1STR    C0522757  46.200  45.180  14.927
    1STR    C0622758  46.340  45.183  14.959
    1STR    C0722759  46.434  45.266  14.891
    1STR    N0822760  46.573  45.263  14.921
    1STR    C0922761  46.678  45.323  14.860
    1STR    O0A22762  46.669  45.397  14.762
    1STR    O0B22763  46.799  45.292  14.917
    1STR    C0C22764  46.921  45.355  14.868
    1STR    C0D22765  46.935  45.495  14.932
    1STR    C0E22766  47.048  45.270  14.894
    1STR    O0F22767  47.166  45.336  14.846
    1STR    C0G22768  47.290  45.265  14.860
    1STR    C0H22769  47.300  45.158  14.750
    1STR    C0I22770  47.411  45.362  14.850
    1STR    O0J22771  47.534  45.292  14.871
    1STR    C0K22772  58.420  45.056  14.607
    1STR    C0M22773  58.415  45.171  14.709
    1STR    C0N22774  58.540  44.962  14.639
    1STR    O0O22775  58.665  45.028  14.618
    1STR    C0P22776  58.766  45.025  14.710
    1STR    O0Q22777  58.761  44.975  14.821
    1STR    N0R22778  58.871  45.089  14.658
    1STR    C0S22779  58.997  45.127  14.706
    1STR    C0T22780  59.065  45.219  14.624
    1STR    C0U22781  59.187  45.275  14.664
    1STR    C0V22782  59.248  45.237  14.784
    1STR    C0W22783  59.371  45.316  14.826
    1STR    C0X22784  59.191  45.134  14.864
    1STR    N0Y22785  59.256  45.088  14.981
    1STR   BCK222786  59.386  45.056  14.995
    1STR    O1022787  59.466  45.051  14.901
    1STR    C1322788  59.062  45.083  14.826
    1STR    C1422789  46.382  45.351  14.790
    1STR    C1522790  46.247  45.348  14.755
    1STR    C1622791  46.156  45.262  14.819
    1STR    C1722792  46.015  45.257  14.763
    1STR    H1B22793  46.147  44.996  15.005
    1STR    H1C22794  46.376  45.119  15.038
    1STR    H1D22795  46.603  45.207  14.998
    1STR    H1E22796  46.913  45.368  14.760
    1STR    H1F22797  46.944  45.489  15.040
    1STR    H1G22798  47.023  45.546  14.894
    1STR    H1H22799  46.849  45.558  14.909
    1STR    H1I22800  47.035  45.174  14.845
    1STR    H1J22801  47.058  45.250  15.001
    1STR    H1K22802  47.294  45.218  14.958
    1STR    H1M22803  47.293  45.202  14.651
    1STR    H1N22804  47.222  45.082  14.759
    1STR    H1O22805  47.396  45.105  14.756
    1STR    H1P22806  47.412  45.411  14.752
    1STR    H1Q22807  47.399  45.441  14.924
    1STR   C01022808  47.655  45.368  14.860
    1STR   H01122809  47.651  45.431  14.770
    1STR   C01222810  47.674  45.456  14.984
    1STR   H01322811  47.674  45.396  15.075
    1STR   H01422812  47.596  45.532  14.994
    1STR   H01522813  47.769  45.509  14.980
    1STR   C01622814  47.774  45.271  14.843
    1STR   H01722815  47.780  45.205  14.930
    1STR   H01822816  47.756  45.207  14.756
    1STR   O01922817  47.898  45.342  14.826
    1STR   C02022818  48.015  45.261  14.814
    1STR   H02122819  48.013  45.181  14.888
    1STR   C02222820  48.024  45.202  14.673
    1STR   H02322821  48.022  45.280  14.597
    1STR   H02422822  47.942  45.133  14.652
    1STR   H02522823  48.116  45.146  14.660
    1STR   C02622824  48.139  45.349  14.844
    1STR   H02722825  48.146  45.430  14.772
    1STR   H02822826  48.128  45.394  14.942
    1STR   O02922827  48.259  45.269  14.839
    1STR   C03022828  48.381  45.340  14.861
    1STR   H03122829  48.381  45.433  14.805
    1STR   C03222830  48.400  45.368  15.011
    1STR   H03322831  48.396  45.275  15.069
    1STR   H03422832  48.324  45.435  15.050
    1STR   H03522833  48.496  45.414  15.030
    1STR   C03622834  48.497  45.253  14.806
    1STR   H03722835  48.501  45.158  14.860
    1STR   H03822836  48.478  45.230  14.702
    1STR   O03922837  48.621  45.324  14.819
    1STR   C04022838  48.737  45.252  14.776
    1STR   H04122839  48.733  45.149  14.812
    1STR   C04222840  48.746  45.255  14.623
    1STR   H04322841  48.745  45.357  14.585
    1STR   H04422842  48.664  45.201  14.576
    1STR   H04522843  48.838  45.208  14.589
    1STR   C04622844  48.860  45.320  14.840
    1STR   H04722845  48.868  45.423  14.805
    1STR   H04822846  48.847  45.323  14.948
    1STR   O04922847  48.978  45.247  14.806
    1STR   C05022848  49.101  45.301  14.855
    1STR   H05122849  49.102  45.409  14.842
    1STR   C05222850  49.116  45.266  15.004
    1STR   H05322851  49.111  45.159  15.020
    1STR   H05422852  49.040  45.314  15.066
    1STR   H05522853  49.213  45.300  15.041
    1STR   C05622854  49.216  45.242  14.772
    1STR   H05722855  49.219  45.134  14.784
    1STR   H05822856  49.197  45.262  14.666
    1STR   O05922857  49.340  45.300  14.812
    1STR   C06022858  49.455  45.251  14.745
    1STR   H06122859  49.450  45.142  14.736
    1STR   C06222860  49.466  45.315  14.606
    1STR   H06322861  49.467  45.424  14.612
    1STR   H06422862  49.384  45.286  14.541
    1STR   H06522863  49.558  45.284  14.557
    1STR   C06622864  49.578  45.285  14.832
    1STR   H06722865  49.587  45.394  14.842
    1STR   H06822866  49.563  45.245  14.932
    1STR   O06922867  49.695  45.230  14.773
    1STR   C07022868  49.817  45.258  14.842
    1STR   H07122869  49.819  45.363  14.873
    1STR   C07222870  49.830  45.167  14.965
    1STR   H07322871  49.823  45.062  14.936
    1STR   H07422872  49.753  45.187  15.039
    1STR   H07522873  49.927  45.182  15.013
    1STR   C07622874  49.932  45.236  14.743
    1STR   H07722875  49.934  45.131  14.711
    1STR   H07822876  49.915  45.296  14.654
    1STR   O07922877  50.056  45.272  14.804
    1STR   C08022878  50.172  45.252  14.724
    1STR   H08122879  50.166  45.156  14.672
    1STR   C08222880  50.185  45.366  14.622
    1STR   H08322881  50.186  45.463  14.671
    1STR   H08422882  50.103  45.366  14.549
    1STR   H08522883  50.278  45.357  14.565
    1STR   C08622884  50.293  45.247  14.818
    1STR   H08722885  50.303  45.342  14.871
    1STR   H08822886  50.276  45.171  14.894
    1STR   O08922887  50.411  45.218  14.743
    1STR   C09022888  50.531  45.215  14.819
    1STR   H09122889  50.534  45.299  14.889
    1STR   C09222890  50.542  45.082  14.895
    1STR   H09322891  50.535  44.997  14.827
    1STR   H09422892  50.465  45.071  14.971
    1STR   H09522893  50.638  45.075  14.947
    1STR   C09622894  50.648  45.233  14.720
    1STR   H09722895  50.649  45.150  14.649
    1STR   H09822896  50.632  45.324  14.662
    1STR   O09922897  50.771  45.240  14.792
    1STR   C10022898  50.887  45.252  14.711
    1STR   H10122899  50.882  45.184  14.626
    1STR   C10222900  50.903  45.397  14.663
    1STR   H10322901  50.904  45.466  14.748
    1STR   H10422902  50.822  45.427  14.597
    1STR   H10522903  50.996  45.410  14.609
    1STR   C10622904  51.007  45.208  14.797
    1STR   H10722905  51.017  45.275  14.883
    1STR   H10822906  50.988  45.108  14.836
    1STR   O10922907  51.126  45.210  14.718
    1STR   C11022908  51.245  45.175  14.787
    1STR   H11122909  51.248  45.223  14.885
    1STR   C11222910  51.253  45.022  14.804
    1STR   H11322911  51.246  44.972  14.707
    1STR   H11422912  51.175  44.983  14.868
    1STR   H11522913  51.348  44.994  14.849
    1STR   C11622914  51.363  45.229  14.705
    1STR   H11722915  51.365  45.181  14.607
    1STR   H11822916  51.349  45.336  14.689
    1STR   O11922917  51.485  45.205  14.775
    1STR   C12022918  51.603  45.247  14.707
    1STR   H12122919  51.598  45.219  14.602
    1STR   C12222920  51.620  45.399  14.721
    1STR   H12322921  51.621  45.429  14.826
    1STR   H12422922  51.541  45.454  14.671
    1STR   H12522923  51.715  45.431  14.677
    1STR   C12622924  51.721  45.171  14.770
    1STR   H12722925  51.731  45.197  14.875
    1STR   H12822926  51.701  45.064  14.765
    1STR   O12922927  51.841  45.202  14.699
    1STR   C13022928  51.959  45.141  14.750
    1STR   H13122929  51.960  45.147  14.859
    1STR   C13222930  51.966  44.994  14.704
    1STR   H13322931  51.959  44.987  14.595
    1STR   H13422932  51.885  44.934  14.747
    1STR   H13522933  52.060  44.949  14.735
    1STR   C13622934  52.078  45.222  14.697
    1STR   H13722935  52.081  45.217  14.588
    1STR   H13822936  52.065  45.327  14.724
    1STR   O13922937  52.199  45.170  14.752
    1STR   C14022938  52.318  45.234  14.708
    1STR   H14122939  52.314  45.251  14.600
    1STR   C14222940  52.337  45.368  14.782
    1STR   H14322941  52.336  45.353  14.890
    1STR   H14422942  52.259  45.439  14.758
    1STR   H14522943  52.432  45.414  14.756
    1STR   C14622944  52.435  45.138  14.736
    1STR   H14722945  52.443  45.120  14.843
    1STR   H14822946  52.414  45.042  14.689
    1STR   O14922947  52.556  45.194  14.685
    1STR   C15022948  52.673  45.116  14.708
    1STR   H15122949  52.673  45.077  14.810
    1STR   C15222950  52.679  44.999  14.607
    1STR   H15322951  52.674  45.036  14.505
    1STR   H15422952  52.598  44.928  14.622
    1STR   H15522953  52.772  44.944  14.618
    1STR   C15622954  52.794  45.209  14.693
    1STR   H15722955  52.798  45.249  14.591
    1STR   H15822956  52.781  45.295  14.760
    1STR   O15922957  52.913  45.138  14.724
    1STR   C16022958  53.033  45.213  14.710
    1STR   H16122959  53.031  45.272  14.618
    1STR   C16222960  53.052  45.306  14.831
    1STR   H16322961  53.050  45.249  14.925
    1STR   H16422962  52.975  45.382  14.837
    1STR   H16522963  53.148  45.357  14.826
    1STR   C16622964  53.149  45.112  14.699
    1STR   H16722965  53.155  45.052  14.790
    1STR   H16822966  53.127  45.043  14.617
    1STR   O16922967  53.271  45.182  14.675
    1STR   C17022968  53.387  45.100  14.666
    1STR   H17122969  53.385  45.023  14.744
    1STR   C17222970  53.393  45.033  14.527
    1STR   H17322971  53.390  45.108  14.448
    1STR   H17422972  53.311  44.964  14.511
    1STR   H17522973  53.486  44.977  14.516
    1STR   C17622974  53.509  45.190  14.691
    1STR   H17722975  53.514  45.267  14.613
    1STR   H17822976  53.496  45.241  14.786
    1STR   O17922977  53.627  45.110  14.692
    1STR   C18022978  53.748  45.183  14.711
    1STR   H18122979  53.747  45.273  14.650
    1STR   C18222980  53.766  45.219  14.859
    1STR   H18322981  53.762  45.130  14.922
    1STR   H18422982  53.689  45.288  14.894
    1STR   H18522983  53.862  45.267  14.876
    1STR   C18622984  53.863  45.093  14.661
    1STR   H18722985  53.867  45.002  14.721
    1STR   H18822986  53.842  45.063  14.558
    1STR   O18922987  53.986  45.165  14.668
    1STR   C19022988  54.101  45.091  14.628
    1STR   H19122989  54.097  44.990  14.669
    1STR   C19222990  54.109  45.086  14.475
    1STR   H19322991  54.108  45.186  14.432
    1STR   H19422992  54.026  45.029  14.431
    1STR   H19522993  54.201  45.037  14.443
    1STR   C19622994  54.223  45.163  14.688
    1STR   H19722995  54.231  45.264  14.648
    1STR   H19822996  54.210  45.172  14.796
    1STR   O19922997  54.341  45.088  14.659
    1STR   C20022998  54.462  45.145  14.706
    1STR   H20122999  54.463  45.252  14.687
    1STR   C20223000  54.478  45.118  14.856
    1STR   H20323001  54.473  45.012  14.878
    1STR   H20423002  54.402  45.169  14.915
    1STR   H20523003  54.575  45.154  14.892
    1STR   C20623004  54.577  45.081  14.625
    1STR   H20723005  54.580  44.974  14.644
    1STR   H20823006  54.558  45.095  14.519
    1STR   O20923007  54.700  45.142  14.662
    1STR   C21023008  54.816  45.090  14.597
    1STR   H21123009  54.811  44.981  14.594
    1STR   C21223010  54.826  45.146  14.454
    1STR   H21323011  54.826  45.255  14.455
    1STR   H21423012  54.743  45.112  14.391
    1STR   H21523013  54.918  45.113  14.407
    1STR   C21623014  54.938  45.129  14.682
    1STR   H21723015  54.947  45.238  14.685
    1STR   H21823016  54.923  45.095  14.784
    1STR   O21923017  55.055  45.071  14.626
    1STR   C22023018  55.177  45.103  14.693
    1STR   H22123019  55.179  45.209  14.718
    1STR   C22223020  55.190  45.018  14.821
    1STR   H22323021  55.183  44.911  14.798
    1STR   H22423022  55.113  45.042  14.894
    1STR   H22523023  55.286  45.035  14.869
    1STR   C22623024  55.292  45.075  14.595
    1STR   H22723025  55.294  44.969  14.569
    1STR   H22823026  55.274  45.131  14.503
    1STR   O22923027  55.416  45.114  14.654
    1STR   C23023028  55.532  45.090  14.575
    1STR   H23123029  55.526  44.992  14.529
    1STR   C23223030  55.544  45.198  14.466
    1STR   H23323031  55.545  45.298  14.510
    1STR   H23423032  55.462  45.194  14.394
    1STR   H23523033  55.636  45.186  14.410
    1STR   C23623034  55.653  45.091  14.669
    1STR   H23723035  55.663  45.189  14.716
    1STR   H23823036  55.637  45.019  14.749
    1STR   O23923037  55.771  45.059  14.596
    1STR   C24023038  55.892  45.059  14.671
    1STR   H24123039  55.895  45.147  14.737
    1STR   C24223040  55.902  44.930  14.754
    1STR   H24323041  55.895  44.842  14.691
    1STR   H24423042  55.825  44.924  14.830
    1STR   H24523043  55.998  44.926  14.806
    1STR   C24623044  56.009  45.071  14.572
    1STR   H24723045  56.010  44.985  14.505
    1STR   H24823046  55.993  45.159  14.509
    1STR   O24923047  56.132  45.082  14.643
    1STR   C25023048  56.249  45.090  14.561
    1STR   H25123049  56.243  45.019  14.479
    1STR   C25223050  56.263  45.233  14.505
    1STR   H25323051  56.264  45.307  14.586
    1STR   H25423052  56.182  45.259  14.437
    1STR   H25523053  56.356  45.243  14.450
    1STR   C25623054  56.370  45.052  14.649
    1STR   H25723055  56.379  45.123  14.731
    1STR   H25823056  56.352  44.954  14.693
    1STR   O25923057  56.489  45.051  14.570
    1STR   C26023058  56.609  45.019  14.640
    1STR   H26123059  56.612  45.073  14.735
    1STR   C26223060  56.616  44.867  14.665
    1STR   H26323061  56.608  44.812  14.572
    1STR   H26423062  56.537  44.833  14.732
    1STR   H26523063  56.711  44.840  14.711
    1STR   C26623064  56.728  45.067  14.555
    1STR   H26723065  56.729  45.015  14.459
    1STR   H26823066  56.714  45.173  14.533
    1STR   O26923067  56.851  45.046  14.625
    1STR   C27023068  56.969  45.085  14.556
    1STR   H27123069  56.964  45.052  14.452
    1STR   C27223070  56.984  45.238  14.562
    1STR   H27323071  56.983  45.274  14.665
    1STR   H27423072  56.905  45.290  14.508
    1STR   H27523073  57.078  45.269  14.516
    1STR   C27623074  57.089  45.015  14.622
    1STR   H27723075  57.098  45.046  14.726
    1STR   H27823076  57.070  44.907  14.622
    1STR   O27923077  57.210  45.044  14.550
    1STR   C28023078  57.329  44.984  14.603
    1STR   H28123079  57.331  44.995  14.711
    1STR   C28223080  57.333  44.835  14.565
    1STR   H28323081  57.325  44.822  14.457
    1STR   H28423082  57.254  44.778  14.612
    1STR   H28523083  57.428  44.790  14.596
    1STR   C28623084  57.451  45.060  14.545
    1STR   H28723085  57.452  45.051  14.436
    1STR   H28823086  57.439  45.166  14.568
    1STR   O28923087  57.573  45.010  14.601
    1STR   C29023088  57.693  45.073  14.555
    1STR   H29123089  57.690  45.084  14.446
    1STR   C29223090  57.708  45.211  14.621
    1STR   H29323091  57.705  45.203  14.730
    1STR   H29423092  57.630  45.280  14.590
    1STR   H29523093  57.803  45.257  14.595
    1STR   C29623094  57.813  44.981  14.590
    1STR   H29723095  57.818  44.967  14.698
    1STR   H29823096  57.795  44.883  14.546
    1STR   O29923097  57.937  45.036  14.542
    1STR   C30023098  58.054  44.958  14.571
    1STR   H30123099  58.050  44.922  14.674
    1STR   C30223100  58.062  44.839  14.474
    1STR   H30323101  58.057  44.872  14.370
    1STR   H30423102  57.981  44.768  14.490
    1STR   H30523103  58.155  44.784  14.487
    1STR   C30623104  58.180  45.048  14.559
    1STR   H30723105  58.195  45.078  14.455
    1STR   H30823106  58.161  45.139  14.616
    1STR   O30923107  58.297  44.982  14.610
    1STR    H1R23108  58.435  45.097  14.506
    1STR    H1S23109  58.511  45.223  14.714
    1STR    H1T23110  58.394  45.133  14.809
    1STR    H1U23111  58.340  45.246  14.685
    1STR    H1V23112  58.537  44.876  14.573
    1STR    H1W23113  58.531  44.923  14.740
    1STR    H1X23114  58.848  45.118  14.565
    1STR    H1Y23115  59.022  45.253  14.531
    1STR    H1Z23116  59.234  45.349  14.601
    1STR    H2023117  59.380  45.320  14.935
    1STR    H2123118  59.461  45.271  14.785
    1STR    H2223119  59.365  45.419  14.791
    1STR    H2323120  59.200  45.074  15.063
    1STR    H2723121  59.012  45.010  14.887
    1STR    H2823122  46.444  45.420  14.735
    1STR    H2923123  46.213  45.412  14.675
    1STR    H2A23124  45.972  45.157  14.771
    1STR    H2B23125  46.014  45.284  14.658
    1STR    H2C23126  45.951  45.327  14.817
    1STR   BCK123127  45.970  45.001  30.212
    1STR    O0323128  45.934  44.949  30.317
    1STR    N0423129  46.091  45.058  30.192
    1STR    C0523130  46.195  45.085  30.284
    1STR    C0623131  46.332  45.063  30.250
    1STR    C0723132  46.440  45.093  30.339
    1STR    N0823133  46.576  45.076  30.302
    1STR    C0923134  46.686  45.070  30.380
    1STR    O0A23135  46.684  45.068  30.503
    1STR    O0B23136  46.803  45.065  30.309
    1STR    C0C23137  46.930  45.053  30.378
    1STR    C0D23138  46.951  44.906  30.419
    1STR    C0E23139  47.051  45.105  30.297
    1STR    O0F23140  47.172  45.090  30.373
    1STR    C0G23141  47.294  45.134  30.311
    1STR    C0H23142  47.303  45.287  30.319
    1STR    C0I23143  47.415  45.070  30.384
    1STR    O0J23144  47.538  45.107  30.319
    1STR    C0K23145  58.413  45.464  30.360
    1STR    C0M23146  58.411  45.310  30.363
    1STR    C0N23147  58.534  45.514  30.278
    1STR    O0O23148  58.655  45.494  30.352
    1STR    C0P23149  58.759  45.421  30.306
    1STR    O0Q23150  58.767  45.364  30.197
    1STR    N0R23151  58.852  45.420  30.401
    1STR    C0S23152  58.975  45.357  30.421
    1STR    C0T23153  59.019  45.358  30.554
    1STR    C0U23154  59.140  45.298  30.590
    1STR    C0V23155  59.223  45.238  30.494
    1STR    C0W23156  59.348  45.176  30.550
    1STR    C0X23157  59.186  45.239  30.356
    1STR    N0Y23158  59.269  45.201  30.247
    1STR   BCK223159  59.386  45.142  30.214
    1STR    O1023160  59.424  45.155  30.098
    1STR    C1323161  59.059  45.297  30.323
    1STR    C1423162  46.405  45.146  30.465
    1STR    C1523163  46.272  45.172  30.500
    1STR    C1623164  46.167  45.146  30.410
    1STR    C1723165  46.028  45.194  30.450
    1STR    H1B23166  46.108  45.085  30.097
    1STR    H1C23167  46.355  45.021  30.153
    1STR    H1D23168  46.598  45.066  30.205
    1STR    H1E23169  46.925  45.114  30.469
    1STR    H1F23170  46.956  44.841  30.332
    1STR    H1G23171  47.043  44.894  30.476
    1STR    H1H23172  46.869  44.871  30.483
    1STR    H1I23173  47.035  45.209  30.271
    1STR    H1J23174  47.059  45.049  30.203
    1STR    H1K23175  47.297  45.102  30.207
    1STR    H1M23176  47.298  45.322  30.422
    1STR    H1N23177  47.224  45.336  30.262
    1STR    H1O23178  47.398  45.322  30.277
    1STR    H1P23179  47.417  45.101  30.488
    1STR    H1Q23180  47.404  44.961  30.383
    1STR   C01023181  47.659  45.059  30.379
    1STR   H01123182  47.655  45.073  30.488
    1STR   C01223183  47.678  44.910  30.347
    1STR   H01323184  47.678  44.893  30.239
    1STR   H01423185  47.601  44.847  30.391
    1STR   H01523186  47.774  44.874  30.386
    1STR   C01623187  47.778  45.142  30.326
    1STR   H01723188  47.785  45.131  30.218
    1STR   H01823189  47.759  45.247  30.346
    1STR   O01923190  47.901  45.101  30.387
    1STR   C02023191  48.019  45.169  30.342
    1STR   H02123192  48.017  45.178  30.233
    1STR   C02223193  48.027  45.308  30.406
    1STR   H02323194  48.024  45.302  30.515
    1STR   H02423195  47.945  45.373  30.375
    1STR   H02523196  48.119  45.358  30.379
    1STR   C02623197  48.142  45.084  30.379
    1STR   H02723198  48.148  45.073  30.488
    1STR   H02823199  48.130  44.984  30.338
    1STR   O02923200  48.261  45.145  30.329
    1STR   C03023201  48.383  45.079  30.360
    1STR   H03123202  48.383  45.047  30.465
    1STR   C03223203  48.402  44.957  30.269
    1STR   H03323204  48.398  44.986  30.164
    1STR   H03423205  48.326  44.881  30.286
    1STR   H03523206  48.498  44.910  30.286
    1STR   C03623207  48.499  45.179  30.342
    1STR   H03723208  48.503  45.213  30.238
    1STR   H03823209  48.479  45.268  30.403
    1STR   O03923210  48.623  45.119  30.380
    1STR   C04023211  48.739  45.201  30.364
    1STR   H04123212  48.735  45.253  30.268
    1STR   C04223213  48.747  45.303  30.479
    1STR   H04323214  48.747  45.253  30.576
    1STR   H04423215  48.665  45.374  30.477
    1STR   H04523216  48.840  45.361  30.472
    1STR   C04623217  48.862  45.108  30.363
    1STR   H04723218  48.870  45.055  30.458
    1STR   H04823219  48.848  45.033  30.285
    1STR   O04923220  48.980  45.185  30.338
    1STR   C05023221  49.102  45.111  30.338
    1STR   H05123222  49.103  45.040  30.422
    1STR   C05223223  49.118  45.036  30.205
    1STR   H05323224  49.112  45.104  30.121
    1STR   H05423225  49.041  44.959  30.192
    1STR   H05523226  49.214  44.986  30.201
    1STR   C05623227  49.217  45.211  30.360
    1STR   H05723228  49.220  45.283  30.278
    1STR   H05823229  49.198  45.268  30.451
    1STR   O05923230  49.340  45.141  30.370
    1STR   C06023231  49.456  45.223  30.386
    1STR   H06123232  49.451  45.309  30.319
    1STR   C06223233  49.466  45.270  30.532
    1STR   H06323234  49.467  45.185  30.601
    1STR   H06423235  49.384  45.336  30.560
    1STR   H06523236  49.559  45.326  30.548
    1STR   C06623237  49.578  45.139  30.345
    1STR   H06723238  49.588  45.052  30.411
    1STR   H06823239  49.563  45.100  30.244
    1STR   O06923240  49.696  45.219  30.351
    1STR   C07023241  49.817  45.152  30.320
    1STR   H07123242  49.820  45.054  30.368
    1STR   C07223243  49.831  45.136  30.167
    1STR   H07323244  49.824  45.233  30.117
    1STR   H07423245  49.754  45.072  30.126
    1STR   H07523246  49.927  45.093  30.141
    1STR   C07623247  49.933  45.235  30.378
    1STR   H07723248  49.934  45.334  30.331
    1STR   H07823249  49.915  45.251  30.484
    1STR   O07923250  50.056  45.167  30.357
    1STR   C08023251  50.172  45.236  30.402
    1STR   H08123252  50.166  45.342  30.375
    1STR   C08223253  50.185  45.221  30.555
    1STR   H08323254  50.187  45.116  30.584
    1STR   H08423255  50.104  45.270  30.608
    1STR   H08523256  50.278  45.266  30.590
    1STR   C08623257  50.293  45.176  30.329
    1STR   H08723258  50.303  45.070  30.355
    1STR   H08823259  50.276  45.181  30.222
    1STR   O08923260  50.411  45.248  30.365
    1STR   C09023261  50.532  45.199  30.307
    1STR   H09123262  50.534  45.090  30.312
    1STR   C09223263  50.542  45.246  30.161
    1STR   H09323264  50.535  45.355  30.154
    1STR   H09423265  50.465  45.203  30.098
    1STR   H09523266  50.638  45.216  30.118
    1STR   C09623267  50.648  45.253  30.392
    1STR   H09723268  50.649  45.362  30.388
    1STR   H09823269  50.632  45.225  30.496
    1STR   O09923270  50.771  45.199  30.344
    1STR   C10023271  50.888  45.245  30.411
    1STR   H10123272  50.882  45.352  30.429
    1STR   C10223273  50.903  45.170  30.545
    1STR   H10323274  50.904  45.062  30.529
    1STR   H10423275  50.822  45.193  30.614
    1STR   H10523276  50.996  45.198  30.594
    1STR   C10623277  51.007  45.219  30.318
    1STR   H10723278  51.017  45.112  30.300
    1STR   H10823279  50.988  45.267  30.222
    1STR   O10923280  51.126  45.271  30.378
    1STR   C11023281  51.245  45.250  30.303
    1STR   H11123282  51.248  45.148  30.264
    1STR   C11223283  51.254  45.351  30.188
    1STR   H11323284  51.247  45.454  30.225
    1STR   H11423285  51.175  45.337  30.115
    1STR   H11523286  51.349  45.342  30.135
    1STR   C11623287  51.363  45.266  30.401
    1STR   H11723288  51.365  45.367  30.441
    1STR   H11823289  51.349  45.198  30.485
    1STR   O11923290  51.485  45.236  30.333
    1STR   C12023291  51.603  45.251  30.411
    1STR   H12123292  51.598  45.343  30.470
    1STR   C12223293  51.620  45.130  30.503
    1STR   H12323294  51.621  45.037  30.446
    1STR   H12423295  51.541  45.123  30.578
    1STR   H12523296  51.715  45.136  30.558
    1STR   C12623297  51.721  45.265  30.314
    1STR   H12723298  51.731  45.174  30.254
    1STR   H12823299  51.701  45.347  30.245
    1STR   O12923300  51.841  45.290  30.387
    1STR   C13023301  51.959  45.300  30.308
    1STR   H13123302  51.960  45.223  30.232
    1STR   C13223303  51.966  45.439  30.243
    1STR   H13323304  51.959  45.518  30.318
    1STR   H13423305  51.885  45.455  30.171
    1STR   H13523306  52.060  45.452  30.189
    1STR   C13623307  52.078  45.277  30.402
    1STR   H13723308  52.081  45.354  30.479
    1STR   H13823309  52.065  45.181  30.453
    1STR   O13923310  52.199  45.277  30.326
    1STR   C14023311  52.318  45.260  30.402
    1STR   H14123312  52.314  45.320  30.493
    1STR   C14223313  52.337  45.112  30.438
    1STR   H14323314  52.336  45.049  30.348
    1STR   H14423315  52.259  45.075  30.504
    1STR   H14523316  52.432  45.096  30.489
    1STR   C14623317  52.435  45.312  30.316
    1STR   H14723318  52.443  45.253  30.225
    1STR   H14823319  52.414  45.415  30.286
    1STR   O14923320  52.556  45.306  30.392
    1STR   C15023321  52.673  45.348  30.322
    1STR   H15123322  52.673  45.307  30.221
    1STR   C15223323  52.679  45.501  30.318
    1STR   H15323324  52.674  45.543  30.418
    1STR   H15423325  52.598  45.544  30.259
    1STR   H15523326  52.772  45.535  30.272
    1STR   C15623327  52.794  45.289  30.397
    1STR   H15723328  52.798  45.328  30.498
    1STR   H15823329  52.781  45.181  30.405
    1STR   O15923330  52.913  45.320  30.325
    1STR   C16023331  53.033  45.274  30.386
    1STR   H16123332  53.031  45.293  30.494
    1STR   C16223333  53.052  45.124  30.359
    1STR   H16323334  53.050  45.103  30.252
    1STR   H16423335  52.975  45.064  30.407
    1STR   H16523336  53.148  45.089  30.398
    1STR   C16623337  53.149  45.356  30.326
    1STR   H16723338  53.155  45.339  30.219
    1STR   H16823339  53.127  45.462  30.340
    1STR   O16923340  53.271  45.321  30.391
    1STR   C17023341  53.387  45.388  30.342
    1STR   H17123342  53.385  45.391  30.233
    1STR   C17223343  53.393  45.530  30.399
    1STR   H17323344  53.390  45.529  30.508
    1STR   H17423345  53.311  45.593  30.364
    1STR   H17523346  53.486  45.579  30.369
    1STR   C17623347  53.508  45.304  30.385
    1STR   H17723348  53.514  45.300  30.494
    1STR   H17823349  53.496  45.202  30.349
    1STR   O17923350  53.627  45.362  30.330
    1STR   C18023351  53.748  45.296  30.365
    1STR   H18123352  53.747  45.270  30.471
    1STR   C18223353  53.766  45.169  30.280
    1STR   H18323354  53.762  45.192  30.174
    1STR   H18423355  53.689  45.094  30.301
    1STR   H18523356  53.862  45.122  30.301
    1STR   C18623357  53.863  45.396  30.341
    1STR   H18723358  53.867  45.422  30.236
    1STR   H18823359  53.842  45.487  30.397
    1STR   O18923360  53.985  45.338  30.385
    1STR   C19023361  54.101  45.419  30.364
    1STR   H19123362  54.097  45.466  30.266
    1STR   C19223363  54.109  45.527  30.473
    1STR   H19323364  54.108  45.483  30.573
    1STR   H19423365  54.026  45.598  30.467
    1STR   H19523366  54.201  45.584  30.464
    1STR   C19623367  54.223  45.326  30.368
    1STR   H19723368  54.231  45.279  30.466
    1STR   H19823369  54.210  45.246  30.295
    1STR   O19923370  54.341  45.401  30.339
    1STR   C20023371  54.462  45.327  30.343
    1STR   H20123372  54.463  45.261  30.430
    1STR   C20223373  54.478  45.245  30.214
    1STR   H20323374  54.473  45.309  30.126
    1STR   H20423375  54.402  45.168  30.205
    1STR   H20523376  54.575  45.194  30.212
    1STR   C20623377  54.577  45.428  30.360
    1STR   H20723378  54.580  45.495  30.273
    1STR   H20823379  54.557  45.490  30.447
    1STR   O20923380  54.700  45.359  30.374
    1STR   C21023381  54.816  45.441  30.386
    1STR   H21123382  54.811  45.524  30.314
    1STR   C21223383  54.826  45.497  30.529
    1STR   H21323384  54.826  45.416  30.602
    1STR   H21423385  54.743  45.564  30.553
    1STR   H21523386  54.918  45.553  30.542
    1STR   C21623387  54.938  45.355  30.350
    1STR   H21723388  54.947  45.273  30.421
    1STR   H21823389  54.923  45.311  30.252
    1STR   O21923390  55.055  45.436  30.352
    1STR   C22023391  55.177  45.367  30.324
    1STR   H22123392  55.179  45.272  30.377
    1STR   C22223393  55.190  45.343  30.173
    1STR   H22323394  55.183  45.437  30.118
    1STR   H22423395  55.113  45.276  30.135
    1STR   H22523396  55.286  45.298  30.149
    1STR   C22623397  55.292  45.454  30.378
    1STR   H22723398  55.294  45.550  30.326
    1STR   H22823399  55.274  45.475  30.483
    1STR   O22923400  55.415  45.385  30.361
    1STR   C23023401  55.531  45.456  30.403
    1STR   H23123402  55.525  45.560  30.370
    1STR   C23223403  55.543  45.450  30.556
    1STR   H23323404  55.545  45.346  30.591
    1STR   H23423405  55.462  45.501  30.606
    1STR   H23523406  55.636  45.497  30.589
    1STR   C23623407  55.653  45.392  30.334
    1STR   H23723408  55.663  45.288  30.366
    1STR   H23823409  55.636  45.391  30.227
    1STR   O23923410  55.770  45.466  30.366
    1STR   C24023411  55.891  45.414  30.311
    1STR   H24123412  55.894  45.305  30.321
    1STR   C24223413  55.902  45.453  30.163
    1STR   H24323414  55.894  45.561  30.150
    1STR   H24423415  55.824  45.407  30.102
    1STR   H24523416  55.998  45.422  30.121
    1STR   C24623417  56.008  45.472  30.393
    1STR   H24723418  56.009  45.581  30.383
    1STR   H24823419  55.992  45.449  30.498
    1STR   O24923420  56.131  45.417  30.347
    1STR   C25023421  56.248  45.465  30.413
    1STR   H25123422  56.242  45.574  30.425
    1STR   C25223423  56.262  45.398  30.550
    1STR   H25323424  56.263  45.289  30.541
    1STR   H25423425  56.182  45.425  30.618
    1STR   H25523426  56.356  45.428  30.598
    1STR   C25623427  56.368  45.434  30.322
    1STR   H25723428  56.378  45.326  30.309
    1STR   H25823429  56.350  45.477  30.224
    1STR   O25923430  56.487  45.489  30.379
    1STR   C26023431  56.607  45.464  30.306
    1STR   H26123432  56.610  45.361  30.272
    1STR   C26223433  56.615  45.559  30.185
    1STR   H26323434  56.607  45.663  30.217
    1STR   H26423435  56.536  45.540  30.113
    1STR   H26523436  56.710  45.548  30.133
    1STR   C26623437  56.726  45.486  30.402
    1STR   H26723438  56.727  45.589  30.437
    1STR   H26823439  56.712  45.423  30.489
    1STR   O26923440  56.848  45.454  30.336
    1STR   C27023441  56.967  45.472  30.414
    1STR   H27123442  56.961  45.567  30.468
    1STR   C27223443  56.982  45.356  30.513
    1STR   H27323444  56.982  45.260  30.461
    1STR   H27423445  56.903  45.354  30.587
    1STR   H27523446  57.076  45.364  30.567
    1STR   C27623447  57.086  45.480  30.317
    1STR   H27723448  57.095  45.387  30.262
    1STR   H27823449  57.067  45.559  30.244
    1STR   O27923450  57.207  45.507  30.390
    1STR   C28023451  57.326  45.515  30.311
    1STR   H28123452  57.328  45.434  30.238
    1STR   C28223453  57.331  45.650  30.238
    1STR   H28323454  57.323  45.733  30.308
    1STR   H28423455  57.251  45.661  30.164
    1STR   H28523456  57.425  45.662  30.184
    1STR   C28623457  57.447  45.498  30.405
    1STR   H28723458  57.449  45.578  30.479
    1STR   H28823459  57.435  45.404  30.460
    1STR   O28923460  57.569  45.497  30.330
    1STR   C29023461  57.689  45.482  30.406
    1STR   H29123462  57.686  45.547  30.493
    1STR   C29223463  57.705  45.336  30.450
    1STR   H29323464  57.702  45.268  30.364
    1STR   H29423465  57.627  45.305  30.519
    1STR   H29523466  57.800  45.321  30.500
    1STR   C29623467  57.808  45.527  30.317
    1STR   H29723468  57.813  45.464  30.228
    1STR   H29823469  57.789  45.629  30.284
    1STR   O29923470  57.931  45.520  30.390
    1STR   C30023471  58.048  45.558  30.316
    1STR   H30123472  58.043  45.515  30.215
    1STR   C30223473  58.056  45.711  30.307
    1STR   H30323474  58.051  45.757  30.406
    1STR   H30423475  57.974  45.753  30.247
    1STR   H30523476  58.149  45.743  30.260
    1STR   C30623477  58.173  45.499  30.386
    1STR   H30723478  58.187  45.547  30.483
    1STR   H30823479  58.154  45.394  30.405
    1STR   O30923480  58.291  45.514  30.304
    1STR    H1R23481  58.423  45.502  30.462
    1STR    H1S23482  58.507  45.271  30.397
    1STR    H1T23483  58.394  45.270  30.263
    1STR    H1U23484  58.335  45.269  30.429
    1STR    H1V23485  58.524  45.621  30.261
    1STR    H1W23486  58.538  45.467  30.180
    1STR    H1X23487  58.818  45.475  30.478
    1STR    H1Y23488  58.960  45.404  30.632
    1STR    H1Z23489  59.168  45.299  30.694
    1STR    H2023490  59.346  45.068  30.531
    1STR    H2123491  59.436  45.223  30.507
    1STR    H2223492  59.356  45.187  30.658
    1STR    H2323493  59.230  45.231  30.159
    1STR    H2723494  59.025  45.299  30.220
    1STR    H2823495  46.480  45.172  30.539
    1STR    H2923496  46.251  45.216  30.596
    1STR    H2A23497  45.973  45.232  30.364
    1STR    H2B23498  46.034  45.275  30.522
    1STR    H2C23499  45.972  45.113  30.496
    1STR   BCK123500  45.989  45.017  45.120
    1STR    O0323501  45.946  45.072  45.019
    1STR    N0423502  46.116  44.975  45.134
    1STR    C0523503  46.209  44.947  45.033
    1STR    C0623504  46.346  44.989  45.043
    1STR    C0723505  46.444  44.952  44.946
    1STR    N0823506  46.580  44.988  44.960
    1STR    C0923507  46.689  44.935  44.900
    1STR    O0A23508  46.685  44.840  44.822
    1STR    O0B23509  46.805  44.999  44.934
    1STR    C0C23510  46.928  44.963  44.868
    1STR    C0D23511  46.940  45.043  44.736
    1STR    C0E23512  47.053  44.985  44.957
    1STR    O0F23513  47.172  44.944  44.888
    1STR    C0G23514  47.295  44.953  44.961
    1STR    C0H23515  47.305  44.834  45.058
    1STR    C0I23516  47.415  44.952  44.863
    1STR    O0J23517  47.538  44.967  44.935
    1STR    C0K23518  58.411  44.663  45.145
    1STR    C0M23519  58.413  44.781  45.047
    1STR    C0N23520  58.531  44.671  45.242
    1STR    O0O23521  58.654  44.648  45.171
    1STR    C0P23522  58.763  44.725  45.192
    1STR    O0Q23523  58.769  44.822  45.266
    1STR    N0R23524  58.864  44.679  45.117
    1STR    C0S23525  58.994  44.726  45.093
    1STR    C0T23526  59.062  44.667  44.985
    1STR    C0U23527  59.188  44.714  44.945
    1STR    C0V23528  59.251  44.820  45.013
    1STR    C0W23529  59.377  44.879  44.951
    1STR    C0X23530  59.190  44.875  45.128
    1STR    N0Y23531  59.243  44.986  45.195
    1STR   BCK223532  59.364  45.015  45.247
    1STR    O1023533  59.382  45.129  45.290
    1STR    C1323534  59.060  44.829  45.165
    1STR    C1423535  46.399  44.877  44.834
    1STR    C1523536  46.266  44.833  44.824
    1STR    C1623537  46.172  44.864  44.924
    1STR    C1723538  46.035  44.800  44.912
    1STR    H1B23539  46.143  44.952  45.229
    1STR    H1C23540  46.375  45.048  45.128
    1STR    H1D23541  46.603  45.062  45.024
    1STR    H1E23542  46.927  44.857  44.843
    1STR    H1F23543  46.944  45.150  44.755
    1STR    H1G23544  47.030  45.015  44.682
    1STR    H1H23545  46.855  45.023  44.671
    1STR    H1I23546  47.040  44.927  45.049
    1STR    H1J23547  47.061  45.090  44.986
    1STR    H1K23548  47.298  45.047  45.016
    1STR    H1M23549  47.298  44.739  45.005
    1STR    H1N23550  47.227  44.836  45.134
    1STR    H1O23551  47.400  44.835  45.111
    1STR    H1P23552  47.416  44.859  44.806
    1STR    H1Q23553  47.403  45.033  44.791
    1STR   C01023554  47.658  44.962  44.857
    1STR   H01123555  47.654  44.879  44.787
    1STR   C01223556  47.677  45.095  44.781
    1STR   H01323557  47.677  45.180  44.849
    1STR   H01423558  47.599  45.111  44.706
    1STR   H01523559  47.772  45.095  44.728
    1STR   C01623560  47.777  44.937  44.953
    1STR   H01723561  47.783  45.018  45.026
    1STR   H01823562  47.758  44.846  45.009
    1STR   O01923563  47.900  44.926  44.880
    1STR   C02023564  48.018  44.907  44.960
    1STR   H02123565  48.015  44.974  45.046
    1STR   C02223566  48.026  44.761  45.006
    1STR   H02323567  48.023  44.692  44.922
    1STR   H02423568  47.944  44.734  45.073
    1STR   H02523569  48.118  44.743  45.061
    1STR   C02623570  48.141  44.944  44.875
    1STR   H02723571  48.147  44.880  44.787
    1STR   H02823572  48.130  45.046  44.839
    1STR   O02923573  48.260  44.933  44.954
    1STR   C03023574  48.383  44.961  44.886
    1STR   H03123575  48.382  44.914  44.787
    1STR   C03223576  48.401  45.113  44.871
    1STR   H03323577  48.397  45.162  44.968
    1STR   H03423578  48.325  45.158  44.807
    1STR   H03523579  48.498  45.136  44.826
    1STR   C03623580  48.498  44.899  44.967
    1STR   H03723581  48.502  44.944  45.066
    1STR   H03823582  48.479  44.793  44.981
    1STR   O03923583  48.622  44.918  44.898
    1STR   C04023584  48.738  44.869  44.965
    1STR   H04123585  48.734  44.895  45.071
    1STR   C04223586  48.747  44.716  44.949
    1STR   H04323587  48.746  44.687  44.844
    1STR   H04423588  48.664  44.664  44.999
    1STR   H04523589  48.839  44.678  44.993
    1STR   C04623590  48.861  44.938  44.904
    1STR   H04723591  48.869  44.913  44.798
    1STR   H04823592  48.848  45.046  44.910
    1STR   O04923593  48.979  44.898  44.974
    1STR   C05023594  49.101  44.952  44.924
    1STR   H05123595  49.102  44.948  44.815
    1STR   C05223596  49.117  45.097  44.971
    1STR   H05323597  49.112  45.104  45.080
    1STR   H05423598  49.041  45.163  44.929
    1STR   H05523599  49.214  45.138  44.941
    1STR   C05623600  49.216  44.864  44.975
    1STR   H05723601  49.219  44.866  45.084
    1STR   H05823602  49.197  44.760  44.946
    1STR   O05923603  49.340  44.909  44.920
    1STR   C06023604  49.456  44.838  44.964
    1STR   H06123605  49.451  44.819  45.071
    1STR   C06223606  49.466  44.705  44.888
    1STR   H06323607  49.467  44.721  44.780
    1STR   H06423608  49.384  44.637  44.911
    1STR   H06523609  49.559  44.653  44.914
    1STR   C06623610  49.578  44.927  44.937
    1STR   H06723611  49.587  44.947  44.830
    1STR   H06823612  49.563  45.023  44.986
    1STR   O06923613  49.695  44.864  44.987
    1STR   C07023614  49.817  44.935  44.965
    1STR   H07123615  49.819  44.975  44.863
    1STR   C07223616  49.830  45.049  45.067
    1STR   H07323617  49.824  45.011  45.169
    1STR   H07423618  49.754  45.125  45.054
    1STR   H07523619  49.927  45.099  45.056
    1STR   C07623620  49.932  44.834  44.979
    1STR   H07723621  49.934  44.793  45.080
    1STR   H07823622  49.915  44.750  44.910
    1STR   O07923623  50.056  44.898  44.948
    1STR   C08023624  50.172  44.816  44.961
    1STR   H08123625  50.166  44.757  45.052
    1STR   C08223626  50.185  44.724  44.838
    1STR   H08323627  50.186  44.782  44.746
    1STR   H08423628  50.104  44.653  44.832
    1STR   H08523629  50.278  44.667  44.843
    1STR   C08623630  50.293  44.910  44.973
    1STR   H08723631  50.303  44.971  44.883
    1STR   H08823632  50.276  44.979  45.056
    1STR   O08923633  50.411  44.833  44.996
    1STR   C09023634  50.531  44.908  45.006
    1STR   H09123635  50.534  44.985  44.929
    1STR   C09223636  50.542  44.972  45.145
    1STR   H09323637  50.535  44.897  45.224
    1STR   H09423638  50.464  45.046  45.163
    1STR   H09523639  50.638  45.023  45.157
    1STR   C09623640  50.648  44.811  44.980
    1STR   H09723641  50.649  44.733  45.056
    1STR   H09823642  50.632  44.762  44.884
    1STR   O09923643  50.771  44.883  44.979
    1STR   C10023644  50.888  44.804  44.960
    1STR   H10123645  50.882  44.713  45.020
    1STR   C10223646  50.903  44.769  44.811
    1STR   H10323647  50.904  44.859  44.749
    1STR   H10423648  50.822  44.705  44.775
    1STR   H10523649  50.996  44.716  44.794
    1STR   C10623650  51.007  44.886  45.011
    1STR   H10723651  51.017  44.978  44.952
    1STR   H10823652  50.988  44.916  45.114
    1STR   O10923653  51.126  44.807  45.002
    1STR   C11023654  51.245  44.873  45.043
    1STR   H11123655  51.248  44.975  45.004
    1STR   C11223656  51.254  44.876  45.197
    1STR   H11323657  51.247  44.776  45.238
    1STR   H11423658  51.175  44.936  45.241
    1STR   H11523659  51.348  44.919  45.229
    1STR   C11623660  51.363  44.796  44.982
    1STR   H11723661  51.365  44.694  45.021
    1STR   H11823662  51.349  44.789  44.874
    1STR   O11923663  51.485  44.864  45.012
    1STR   C12023664  51.603  44.800  44.964
    1STR   H12123665  51.598  44.692  44.982
    1STR   C12223666  51.620  44.827  44.814
    1STR   H12323667  51.621  44.934  44.794
    1STR   H12423668  51.541  44.782  44.755
    1STR   H12523669  51.715  44.786  44.778
    1STR   C12623670  51.721  44.856  45.046
    1STR   H12723671  51.731  44.963  45.029
    1STR   H12823672  51.701  44.841  45.152
    1STR   O12923673  51.841  44.788  45.008
    1STR   C13023674  51.959  44.833  45.074
    1STR   H13123675  51.960  44.942  45.078
    1STR   C13223676  51.966  44.774  45.216
    1STR   H13323677  51.959  44.666  45.214
    1STR   H13423678  51.885  44.811  45.279
    1STR   H13523679  52.060  44.801  45.264
    1STR   C13623680  52.078  44.787  44.989
    1STR   H13723681  52.081  44.678  44.983
    1STR   H13823682  52.065  44.823  44.887
    1STR   O13923683  52.199  44.838  45.045
    1STR   C14023684  52.318  44.799  44.977
    1STR   H14123685  52.314  44.693  44.951
    1STR   C14223686  52.337  44.885  44.851
    1STR   H14323687  52.336  44.991  44.875
    1STR   H14423688  52.259  44.867  44.777
    1STR   H14523689  52.432  44.862  44.802
    1STR   C14623690  52.435  44.819  45.075
    1STR   H14723691  52.443  44.924  45.103
    1STR   H14823692  52.414  44.763  45.167
    1STR   O14923693  52.556  44.772  45.016
    1STR   C15023694  52.673  44.789  45.095
    1STR   H15123695  52.673  44.887  45.143
    1STR   C15223696  52.679  44.678  45.202
    1STR   H15323697  52.674  44.579  45.157
    1STR   H15423698  52.598  44.686  45.274
    1STR   H15523699  52.772  44.685  45.259
    1STR   C15623700  52.794  44.782  45.001
    1STR   H15723701  52.798  44.684  44.953
    1STR   H15823702  52.781  44.856  44.922
    1STR   O15923703  52.913  44.807  45.074
    1STR   C16023704  53.033  44.800  44.998
    1STR   H16123705  53.031  44.713  44.932
    1STR   C16223706  53.052  44.929  44.917
    1STR   H16323707  53.050  45.016  44.981
    1STR   H16423708  52.975  44.941  44.841
    1STR   H16523709  53.148  44.928  44.865
    1STR   C16623710  53.149  44.779  45.098
    1STR   H16723711  53.155  44.865  45.165
    1STR   H16823712  53.127  44.692  45.160
    1STR   O16923713  53.271  44.762  45.026
    1STR   C17023714  53.387  44.746  45.108
    1STR   H17123715  53.385  44.817  45.190
    1STR   C17223716  53.393  44.602  45.162
    1STR   H17323717  53.390  44.529  45.080
    1STR   H17423718  53.311  44.580  45.230
    1STR   H17523719  53.486  44.586  45.217
    1STR   C17623720  53.508  44.778  45.020
    1STR   H17723721  53.514  44.708  44.937
    1STR   H17823722  53.496  44.878  44.977
    1STR   O17923723  53.627  44.773  45.099
    1STR   C18023724  53.748  44.797  45.029
    1STR   H18123725  53.747  44.745  44.933
    1STR   C18223726  53.766  44.948  45.006
    1STR   H18323727  53.762  45.003  45.100
    1STR   H18423728  53.689  44.989  44.940
    1STR   H18523729  53.862  44.969  44.959
    1STR   C18623730  53.863  44.740  45.114
    1STR   H18723731  53.867  44.792  45.210
    1STR   H18823732  53.842  44.635  45.135
    1STR   O18923733  53.985  44.753  45.043
    1STR   C19023734  54.101  44.707  45.112
    1STR   H19123735  54.097  44.740  45.217
    1STR   C19223736  54.109  44.554  45.105
    1STR   H19323737  54.108  44.520  45.001
    1STR   H19423738  54.026  44.506  45.157
    1STR   H19523739  54.201  44.518  45.150
    1STR   C19623740  54.223  44.773  45.047
    1STR   H19723741  54.231  44.742  44.942
    1STR   H19823742  54.210  44.881  45.046
    1STR   O19923743  54.341  44.738  45.119
    1STR   C20023744  54.462  44.789  45.066
    1STR   H20123745  54.463  44.779  44.957
    1STR   C20223746  54.478  44.937  45.105
    1STR   H20323747  54.473  44.949  45.214
    1STR   H20423748  54.402  45.000  45.060
    1STR   H20523749  54.575  44.976  45.073
    1STR   C20623750  54.577  44.704  45.122
    1STR   H20723751  54.580  44.712  45.231
    1STR   H20823752  54.557  44.599  45.099
    1STR   O20923753  54.700  44.745  45.064
    1STR   C21023754  54.816  44.676  45.112
    1STR   H21123755  54.811  44.664  45.220
    1STR   C21223756  54.826  44.539  45.043
    1STR   H21323757  54.826  44.549  44.935
    1STR   H21423758  54.743  44.473  45.071
    1STR   H21523759  54.918  44.488  45.072
    1STR   C21623760  54.938  44.764  45.079
    1STR   H21723761  54.947  44.777  44.971
    1STR   H21823762  54.923  44.863  45.122
    1STR   O21923763  55.055  44.703  45.133
    1STR   C22023764  55.177  44.773  45.107
    1STR   H22123765  55.179  44.807  45.003
    1STR   C22223766  55.190  44.893  45.203
    1STR   H22323767  55.183  44.861  45.307
    1STR   H22423768  55.113  44.968  45.185
    1STR   H22523769  55.286  44.942  45.189
    1STR   C22623770  55.292  44.673  45.126
    1STR   H22723771  55.294  44.637  45.229
    1STR   H22823772  55.274  44.586  45.063
    1STR   O22923773  55.415  44.735  45.092
    1STR   C23023774  55.531  44.654  45.109
    1STR   H23123775  55.525  44.599  45.203
    1STR   C23223776  55.543  44.555  44.992
    1STR   H23323777  55.545  44.608  44.896
    1STR   H23423778  55.462  44.483  44.989
    1STR   H23523779  55.636  44.498  44.999
    1STR   C23623780  55.652  44.748  45.116
    1STR   H23723781  55.662  44.803  45.023
    1STR   H23823782  55.636  44.821  45.195
    1STR   O23923783  55.770  44.672  45.143
    1STR   C24023784  55.891  44.747  45.148
    1STR   H24123785  55.894  44.820  45.067
    1STR   C24223786  55.902  44.819  45.284
    1STR   H24323787  55.894  44.748  45.367
    1STR   H24423788  55.824  44.894  45.297
    1STR   H24523789  55.997  44.870  45.293
    1STR   C24623790  56.008  44.649  45.128
    1STR   H24723791  56.009  44.575  45.208
    1STR   H24823792  55.992  44.595  45.034
    1STR   O24923793  56.131  44.721  45.123
    1STR   C25023794  56.248  44.641  45.108
    1STR   H25123795  56.242  44.553  45.172
    1STR   C25223796  56.262  44.597  44.961
    1STR   H25323797  56.263  44.684  44.894
    1STR   H25423798  56.181  44.531  44.929
    1STR   H25523799  56.355  44.543  44.946
    1STR   C25623800  56.368  44.725  45.153
    1STR   H25723801  56.378  44.813  45.090
    1STR   H25823802  56.350  44.760  45.255
    1STR   O25923803  56.487  44.646  45.149
    1STR   C26023804  56.607  44.714  45.186
    1STR   H26123805  56.609  44.813  45.141
    1STR   C26223806  56.614  44.725  45.339
    1STR   H26323807  56.606  44.627  45.386
    1STR   H26423808  56.536  44.788  45.380
    1STR   H26523809  56.709  44.769  45.370
    1STR   C26623810  56.725  44.633  45.130
    1STR   H26723811  56.726  44.533  45.174
    1STR   H26823812  56.711  44.620  45.023
    1STR   O26923813  56.848  44.701  45.157
    1STR   C27023814  56.966  44.635  45.112
    1STR   H27123815  56.960  44.528  45.136
    1STR   C27223816  56.982  44.654  44.960
    1STR   H27323817  56.982  44.760  44.934
    1STR   H27423818  56.902  44.605  44.904
    1STR   H27523819  57.076  44.611  44.925
    1STR   C27623820  57.085  44.694  45.188
    1STR   H27723821  57.094  44.801  45.166
    1STR   H27823822  57.066  44.686  45.295
    1STR   O27923823  57.206  44.625  45.154
    1STR   C28023824  57.324  44.673  45.217
    1STR   H28123825  57.326  44.782  45.215
    1STR   C28223826  57.330  44.622  45.362
    1STR   H28323827  57.322  44.514  45.366
    1STR   H28423828  57.250  44.664  45.423
    1STR   H28523829  57.424  44.650  45.409
    1STR   C28623830  57.445  44.622  45.136
    1STR   H28723831  57.447  44.513  45.136
    1STR   H28823832  57.433  44.654  45.032
    1STR   O28923833  57.567  44.674  45.190
    1STR   C29023834  57.687  44.633  45.124
    1STR   H29123835  57.683  44.526  45.103
    1STR   C29223836  57.703  44.711  44.992
    1STR   H29323837  57.701  44.819  45.010
    1STR   H29423838  57.625  44.687  44.920
    1STR   H29523839  57.798  44.688  44.945
    1STR   C29623840  57.806  44.659  45.219
    1STR   H29723841  57.812  44.765  45.242
    1STR   H29823842  57.786  44.607  45.313
    1STR   O29923843  57.929  44.613  45.161
    1STR   C30023844  58.046  44.634  45.241
    1STR   H30123845  58.043  44.734  45.285
    1STR   C30223846  58.052  44.528  45.352
    1STR   H30323847  58.046  44.427  45.311
    1STR   H30423848  57.970  44.539  45.424
    1STR   H30523849  58.145  44.536  45.408
    1STR   C30623850  58.170  44.627  45.150
    1STR   H30723851  58.180  44.526  45.108
    1STR   H30823852  58.153  44.694  45.065
    1STR   O30923853  58.289  44.664  45.221
    1STR    H1R23854  58.418  44.569  45.090
    1STR    H1S23855  58.509  44.787  44.995
    1STR    H1T23856  58.399  44.876  45.100
    1STR    H1U23857  58.336  44.774  44.970
    1STR    H1V23858  58.522  44.595  45.319
    1STR    H1W23859  58.531  44.768  45.294
    1STR    H1X23860  58.834  44.597  45.067
    1STR    H1Y23861  59.017  44.587  44.928
    1STR    H1Z23862  59.236  44.670  44.858
    1STR    H2023863  59.381  44.987  44.967
    1STR    H2123864  59.466  44.833  44.994
    1STR    H2223865  59.380  44.863  44.844
    1STR    H2323866  59.179  45.062  45.210
    1STR    H2723867  59.010  44.874  45.249
    1STR    H2823868  46.465  44.849  44.754
    1STR    H2923869  46.238  44.772  44.740
    1STR    H2A23870  45.997  44.771  45.010
    1STR    H2B23871  46.038  44.710  44.851
    1STR    H2C23872  45.964  44.870  44.867
    1STR   BCK123873  60.021   0.849  60.077
    1STR    O0323874  59.970   0.813   0.022
    1STR    N0423875  60.029   0.978  60.037
    1STR    C0523876  59.940   1.082  60.071
    1STR    C0623877  59.984   1.215  60.102
    1STR    C0723878  59.892   1.323  60.124
    1STR    N0823879  59.934   1.456  60.147
    1STR    C0923880  59.863   1.571  60.134
    1STR    O0A23881  59.747   1.576  60.093
    1STR    O0B23882  59.932   1.684   0.011
    1STR    C0C23883  59.863   1.811   0.020
    1STR    C0D23884  59.802   1.824   0.160
    1STR    C0E23885  59.951   1.934  60.145
    1STR    O0F23886  59.872   2.054  60.151
    1STR    C0G23887  59.937   2.176  60.115
    1STR    C0H23888  59.948   2.185  59.962
    1STR    C0I23889  59.855   2.296   0.010
    1STR    O0J23890  59.923   2.420  60.141
    1STR    C0K23891  59.911  13.299  59.764
    1STR    C0M23892  59.899  13.304  59.917
    1STR    C0N23893  59.988  13.423  59.712
    1STR    O0O23894  59.903  13.539  59.713
    1STR    C0P23895  59.942  13.656  59.770
    1STR    O0Q23896  60.049  13.677  59.826
    1STR    N0R23897  59.842  13.745  59.760
    1STR    C0S23898  59.826  13.866  59.828
    1STR    C0T23899  59.708  13.881  59.904
    1STR    C0U23900  59.689  13.994  59.985
    1STR    C0V23901  59.783  14.099  59.986
    1STR    C0W23902  59.770  14.202  60.096
    1STR    C0X23903  59.892  14.097  59.894
    1STR    N0Y23904  59.979  14.204  59.874
    1STR   BCK223905  59.959  14.335  59.848
    1STR    O1023906  60.054  14.402  59.810
    1STR    C1323907  59.916  13.976  59.821
    1STR    C1423908  59.754   1.290  60.121
    1STR    C1523909  59.709   1.162  60.088
    1STR    C1623910  59.800   1.059  60.058
    1STR    C1723911  59.743   0.929  60.006
    1STR    H1B23912  60.094   0.996  59.963
    1STR    H1C23913  60.090   1.235  60.107
    1STR    H1D23914  60.029   1.473   0.016
    1STR    H1E23915  59.781   1.812  60.107
    1STR    H1F23916  59.879   1.827   0.237
    1STR    H1G23917  59.743   1.916   0.168
    1STR    H1H23918  59.734   1.742   0.182
    1STR    H1I23919  59.993   1.920  60.046
    1STR    H1J23920  60.035   1.941   0.055
    1STR    H1K23921  60.036   2.180  60.160
    1STR    H1M23922  59.849   2.178  59.915
    1STR    H1N23923  60.011   2.107  59.920
    1STR    H1O23924  59.991   2.281  59.932
    1STR    H1P23925  59.755   2.297  60.126
    1STR    H1Q23926  59.842   2.285   0.117
    1STR   C01023927  59.856   2.540   0.021
    1STR   H01123928  59.750   2.535  60.153
    1STR   C01223929  59.868   2.559   0.173
    1STR   H01323930  59.972   2.559   0.204
    1STR   H01423931  59.816   2.481   0.229
    1STR   H01523932  59.824   2.654   0.203
    1STR   C01623933  59.919   2.659  60.105
    1STR   H01723934  60.025   2.666  60.130
    1STR   H01823935  59.913   2.640  59.998
    1STR   O01923936  59.853   2.782  60.138
    1STR   C02023937  59.907   2.899  60.076
    1STR   H02123938  60.016   2.897  60.081
    1STR   C02223939  59.861   2.907  59.930
    1STR   H02323940  59.752   2.905  59.922
    1STR   H02423941  59.901   2.825  59.870
    1STR   H02523942  59.895   3.000  59.884
    1STR   C02623943  59.858   3.023  60.156
    1STR   H02723944  59.749   3.029  60.152
    1STR   H02823945  59.887   3.011   0.100
    1STR   O02923946  59.917   3.141  60.101
    1STR   C03023947  59.877   3.264   0.003
    1STR   H03123948  59.769   3.264   0.021
    1STR   C03223949  59.952   3.282   0.136
    1STR   H03323950  60.060   3.278   0.121
    1STR   H03423951  59.925   3.206   0.209
    1STR   H03523952  59.928   3.379   0.181
    1STR   C03623953  59.908   3.379  60.066
    1STR   H03723954  60.015   3.384  60.047
    1STR   H03823955  59.859   3.359  59.971
    1STR   O03923956  59.862   3.503  60.121
    1STR   C04023957  59.889   3.619  60.042
    1STR   H04123958  59.991   3.615  60.003
    1STR   C04223959  59.789   3.628  59.925
    1STR   H04323960  59.686   3.627  59.962
    1STR   H04423961  59.800   3.545  59.855
    1STR   H04523962  59.803   3.720  59.869
    1STR   C04623963  59.878   3.742  60.134
    1STR   H04723964  59.777   3.750   0.014
    1STR   H04823965  59.945   3.729   0.059
    1STR   O04923966  59.913   3.860  60.061
    1STR   C05023967  59.903   3.982  60.134
    1STR   H05123968  59.811   3.983   0.033
    1STR   C05223969  60.025   3.998   0.066
    1STR   H05323970  60.118   3.992   0.010
    1STR   H05423971  60.028   3.921   0.144
    1STR   H05523972  60.023   4.094   0.117
    1STR   C05623973  59.895   4.097  60.032
    1STR   H05723974  59.986   4.100  59.972
    1STR   H05823975  59.812   4.078  59.964
    1STR   O05923976  59.876   4.220  60.101
    1STR   C06023977  59.870   4.336  60.017
    1STR   H06123978  59.948   4.331  59.941
    1STR   C06223979  59.732   4.347  59.951
    1STR   H06323980  59.653   4.347  60.026
    1STR   H06423981  59.713   4.265  59.883
    1STR   H06523982  59.724   4.439  59.894
    1STR   C06623983  59.900   4.458  60.106
    1STR   H06723984  59.823   4.468   0.023
    1STR   H06823985  59.995   4.443  60.157
    1STR   O06923986  59.905   4.576  60.025
    1STR   C07023987  59.927   4.697  60.096
    1STR   H07123988  59.866   4.700   0.027
    1STR   C07223989  60.076   4.710  60.132
    1STR   H07323990  60.138   4.704  60.043
    1STR   H07423991  60.109   4.634   0.042
    1STR   H07523992  60.096   4.807   0.019
    1STR   C07623993  59.881   4.813  60.006
    1STR   H07723994  59.940   4.815  59.914
    1STR   H07823995  59.777   4.795  59.976
    1STR   O07923996  59.892   4.936  60.076
    1STR   C08023997  59.856   5.052  60.002
    1STR   H08123998  59.897   5.046  59.901
    1STR   C08223999  59.703   5.065  59.997
    1STR   H08324000  59.660   5.066  60.097
    1STR   H08424001  59.656   4.984  59.941
    1STR   H08524002  59.674   5.158  59.947
    1STR   C08624003  59.920   5.173  60.072
    1STR   H08724004  59.881   5.183   0.013
    1STR   H08824005  60.028   5.156  60.081
    1STR   O08924006  59.895   5.291  59.995
    1STR   C09024007  59.945   5.411  60.051
    1STR   H09124008  59.926   5.414  60.159
    1STR   C09224009  60.096   5.422  60.024
    1STR   H09324010  60.118   5.415  59.918
    1STR   H09424011  60.153   5.345  60.076
    1STR   H09524012  60.135   5.518  60.059
    1STR   C09624013  59.869   5.528  59.987
    1STR   H09724014  59.887   5.529  59.879
    1STR   H09824015  59.762   5.512  60.001
    1STR   O09924016  59.909   5.651  60.046
    1STR   C10024017  59.848   5.768  59.992
    1STR   H10124018  59.845   5.762  59.883
    1STR   C10224019  59.706   5.783  60.048
    1STR   H10324020  59.707   5.784  60.157
    1STR   H10424021  59.640   5.702  60.016
    1STR   H10524022  59.661   5.876  60.015
    1STR   C10624023  59.937   5.887  60.031
    1STR   H10724024  59.941   5.897  60.139
    1STR   H10824025  60.039   5.868  59.996
    1STR   O10924026  59.885   6.006  59.971
    1STR   C11024027  59.956   6.125  60.001
    1STR   H11124028  59.981   6.128  60.108
    1STR   C11224029  60.084   6.134  59.916
    1STR   H11324030  60.061   6.126  59.810
    1STR   H11424031  60.155   6.055  59.941
    1STR   H11524032  60.135   6.228  59.933
    1STR   C11624033  59.862   6.243  59.973
    1STR   H11724034  59.835   6.245  59.867
    1STR   H11824035  59.769   6.229  60.028
    1STR   O11924036  59.925   6.365  60.011
    1STR   C12024037  59.849   6.483  59.986
    1STR   H12124038  59.803   6.478  59.887
    1STR   C12224039  59.742   6.500  60.094
    1STR   H12324040  59.786   6.501   0.034
    1STR   H12424041  59.667   6.421  60.091
    1STR   H12524042  59.688   6.595  60.081
    1STR   C12624043  59.948   6.601  59.985
    1STR   H12724044  59.995   6.611  60.083
    1STR   H12824045  60.027   6.581  59.913
    1STR   O12924046  59.878   6.721  59.951
    1STR   C13024047  59.958   6.839  59.951
    1STR   H13124048  60.023   6.840  60.038
    1STR   C13224049  60.041   6.846  59.821
    1STR   H13324050  59.977   6.839  59.733
    1STR   H13424051  60.114   6.765  59.815
    1STR   H13524052  60.096   6.940  59.816
    1STR   C13624053  59.862   6.958  59.962
    1STR   H13724054  59.795   6.961  59.875
    1STR   H13824055  59.799   6.945  60.050
    1STR   O13924056  59.937   7.079  59.971
    1STR   C14024057  59.860   7.198  59.978
    1STR   H14124058  59.777   7.194  59.907
    1STR   C14224059  59.805   7.217  60.121
    1STR   H14324060  59.885   7.216   0.034
    1STR   H14424061  59.734   7.139  60.148
    1STR   H14524062  59.752   7.312  60.130
    1STR   C14624063  59.951   7.315  59.938
    1STR   H14724064  60.034   7.323  60.009
    1STR   H14824065  59.995   7.294  59.840
    1STR   O14924066  59.876   7.436  59.934
    1STR   C15024067  59.950   7.553  59.902
    1STR   H15124068  60.046   7.553  59.956
    1STR   C15224069  59.975   7.559  59.751
    1STR   H15324070  59.881   7.554  59.695
    1STR   H15424071  60.039   7.478  59.716
    1STR   H15524072  60.025   7.652  59.723
    1STR   C15624073  59.869   7.674  59.951
    1STR   H15724074  59.773   7.678  59.898
    1STR   H15824075  59.846   7.661  60.057
    1STR   O15924076  59.944   7.793  59.929
    1STR   C16024077  59.877   7.913  59.966
    1STR   H16124078  59.773   7.911  59.933
    1STR   C16224079  59.884   7.932  60.119
    1STR   H16324080  59.987   7.930  60.154
    1STR   H16424081  59.829   7.855   0.012
    1STR   H16524082  59.841   8.028  60.148
    1STR   C16624083  59.947   8.029  59.893
    1STR   H16724084  60.052   8.035  59.925
    1STR   H16824085  59.948   8.007  59.786
    1STR   O16924086  59.879   8.151  59.919
    1STR   C17024087  59.936   8.267  59.860
    1STR   H17124088  60.045   8.265  59.871
    1STR   C17224089  59.898   8.273  59.711
    1STR   H17324090  59.790   8.270  59.698
    1STR   H17424091  59.941   8.191  59.654
    1STR   H17524092  59.934   8.366  59.666
    1STR   C17624093  59.883   8.388  59.937
    1STR   H17724094  59.774   8.394  59.926
    1STR   H17824095  59.904   8.376  60.043
    1STR   O17924096  59.945   8.507  59.887
    1STR   C18024097  59.901   8.628  59.947
    1STR   H18124098  59.792   8.627  59.959
    1STR   C18224099  59.968   8.646  60.084
    1STR   H18324100  60.077   8.642  60.076
    1STR   H18424101  59.937   8.569  60.156
    1STR   H18524102  59.942   8.742  60.128
    1STR   C18624103  59.938   8.743  59.852
    1STR   H18724104  60.046   8.747  59.839
    1STR   H18824105  59.895   8.722  59.753
    1STR   O18924106  59.887   8.866  59.903
    1STR   C19024107  59.918   8.981  59.826
    1STR   H19124108  60.022   8.977  59.793
    1STR   C19224109  59.824   8.989  59.704
    1STR   H19324110  59.720   8.988  59.735
    1STR   H19424111  59.840   8.906  59.635
    1STR   H19524112  59.841   9.081  59.648
    1STR   C19624113  59.902   9.103  59.917
    1STR   H19724114  59.798   9.111  59.951
    1STR   H19824115  59.964   9.090  60.006
    1STR   O19924116  59.941   9.221  59.847
    1STR   C20024117  59.927   9.342  59.919
    1STR   H20124118  59.832   9.343  59.973
    1STR   C20224119  60.044   9.358  60.018
    1STR   H20324120  60.140   9.353  59.967
    1STR   H20424121  60.043   9.282  60.096
    1STR   H20524122  60.039   9.455  60.068
    1STR   C20624123  59.924   9.457  59.817
    1STR   H20724124  60.018   9.460  59.762
    1STR   H20824125  59.845   9.438  59.744
    1STR   O20924126  59.901   9.580  59.884
    1STR   C21024127  59.900   9.696  59.801
    1STR   H21124128  59.982   9.691  59.729
    1STR   C21224129  59.765   9.706  59.727
    1STR   H21324130  59.682   9.706  59.797
    1STR   H21424131  59.750   9.623  59.657
    1STR   H21524132  59.760   9.798  59.669
    1STR   C21624133  59.923   9.818  59.891
    1STR   H21724134  59.842   9.827  59.963
    1STR   H21824135  60.015   9.803  59.947
    1STR   O21924136  59.933   9.935  59.810
    1STR   C22024137  59.951  10.057  59.883
    1STR   H22124138  59.886  10.059  59.970
    1STR   C22224139  60.098  10.070  59.926
    1STR   H22324140   0.005  10.063  59.840
    1STR   H22424141  60.127   9.993  59.997
    1STR   H22524142  60.115  10.166  59.974
    1STR   C22624143  59.909  10.172  59.790
    1STR   H22724144  59.974  10.174  59.701
    1STR   H22824145  59.808  10.154  59.755
    1STR   O22924146  59.917  10.295  59.860
    1STR   C23024147  59.884  10.411  59.784
    1STR   H23124148  59.931  10.405  59.685
    1STR   C23224149  59.732  10.424  59.770
    1STR   H23324150  59.683  10.425  59.868
    1STR   H23424151  59.689  10.342  59.712
    1STR   H23524152  59.705  10.516  59.719
    1STR   C23624153  59.944  10.533  59.857
    1STR   H23724154  59.899  10.543  59.956
    1STR   H23824155  60.051  10.516  59.872
    1STR   O23924156  59.923  10.651  59.779
    1STR   C24024157  59.970  10.771  59.838
    1STR   H24124158  59.945  10.774  59.944
    1STR   C24224159  60.123  10.782  59.819
    1STR   H24324160  60.150  10.774  59.714
    1STR   H24424161   0.016  10.704  59.873
    1STR   H24524162  60.159  10.878  59.856
    1STR   C24624163  59.897  10.888  59.769
    1STR   H24724164  59.921  10.889  59.663
    1STR   H24824165  59.790  10.872  59.778
    1STR   O24924166  59.935  11.011  59.830
    1STR   C25024167  59.876  11.128  59.773
    1STR   H25124168  59.879  11.122  59.664
    1STR   C25224169  59.731  11.142  59.822
    1STR   H25324170  59.726  11.143  59.931
    1STR   H25424171  59.667  11.062  59.786
    1STR   H25524172  59.687  11.236  59.786
    1STR   C25624173  59.962  11.248  59.816
    1STR   H25724174  59.960  11.258  59.925
    1STR   H25824175  60.065  11.230  59.787
    1STR   O25924176  59.913  11.367  59.754
    1STR   C26024177  59.982  11.487  59.788
    1STR   H26124178  60.002  11.490  59.896
    1STR   C26224179  60.114  11.495  59.710
    1STR   H26324180  60.097  11.487  59.603
    1STR   H26424181   0.024  11.416  59.739
    1STR   H26524182   0.005  11.590  59.729
    1STR   C26624183  59.890  11.606  59.754
    1STR   H26724184  59.869  11.607  59.647
    1STR   H26824185  59.795  11.592  59.805
    1STR   O26924186  59.951  11.729  59.794
    1STR   C27024187  59.876  11.847  59.766
    1STR   H27124188  59.835  11.842  59.665
    1STR   C27224189  59.762  11.862  59.868
    1STR   H27324190  59.801  11.862  59.970
    1STR   H27424191  59.689  11.783  59.860
    1STR   H27524192  59.710  11.957  59.853
    1STR   C27624193  59.973  11.967  59.771
    1STR   H27724194  60.015  11.976  59.871
    1STR   H27824195  60.056  11.948  59.703
    1STR   O27924196  59.905  12.088  59.735
    1STR   C28024197  59.984  12.207  59.737
    1STR   H28124198  60.045  12.209  59.828
    1STR   C28224199  60.074  12.211  59.613
    1STR   H28324200  60.015  12.202  59.522
    1STR   H28424201  60.148  12.132  59.613
    1STR   H28524202  60.129  12.305  59.608
    1STR   C28624203  59.889  12.328  59.742
    1STR   H28724204  59.826  12.330  59.653
    1STR   H28824205  59.822  12.317  59.827
    1STR   O28924206  59.963  12.450  59.753
    1STR   C29024207  59.886  12.571  59.758
    1STR   H29124208  59.808  12.567  59.682
    1STR   C29224209  59.823  12.586  59.897
    1STR   H29324210  59.899  12.583  59.975
    1STR   H29424211  59.750  12.508  59.918
    1STR   H29524212  59.771  12.681  59.905
    1STR   C29624213  59.979  12.690  59.725
    1STR   H29724214  60.059  12.696  59.799
    1STR   H29824215  60.026  12.672  59.629
    1STR   O29924216  59.906  12.814  59.722
    1STR   C30024217  59.983  12.932  59.693
    1STR   H30124218  60.076  12.930  59.750
    1STR   C30224219  60.013  12.937  59.542
    1STR   H30324220  59.922  12.930  59.483
    1STR   H30424221  60.079  12.856  59.511
    1STR   H30524222  60.063  13.030  59.516
    1STR   C30624223  59.902  13.056  59.738
    1STR   H30724224  59.810  13.063  59.680
    1STR   H30824225  59.873  13.041  59.842
    1STR   O30924226  59.978  13.178  59.725
    1STR    H1R24227  59.812  13.299  59.719
    1STR    H1S24228  59.859  13.400  59.949
    1STR    H1T24229  59.997  13.293  59.964
    1STR    H1U24230  59.834  13.227  59.957
    1STR    H1V24231  60.019  13.407  59.608
    1STR    H1W24232  60.080  13.438  59.768
    1STR    H1X24233  59.764  13.708  59.710
    1STR    H1Y24234  59.635  13.801  59.907
    1STR    H1Z24235  59.603  13.998  60.049
    1STR    H2024236  59.783  14.152   0.032
    1STR    H2124237  59.847  14.279  60.092
    1STR    H2224238  59.672  14.249  60.095
    1STR    H2324239  60.076  14.180  59.861
    1STR    H2724240  60.003  13.967  59.759
    1STR    H2824241  59.678   1.363  60.143
    1STR    H2924242  59.603   1.144  60.081
    1STR    H2A24243  59.804   0.890  59.924
    1STR    H2B24244  59.642   0.943  59.966
    1STR    H2C24245  59.738   0.855  60.085
    1STR   BCK124246  60.143   0.864  15.007
    1STR    O0324247   0.081   0.795  15.031
    1STR    N0424248  60.126   0.992  15.049
    1STR    C0524249   0.047   1.076  15.130
    1STR    C0624250   0.054   1.217  15.102
    1STR    C0724251   0.128   1.310  15.183
    1STR    N0824252   0.128   1.450  15.156
    1STR    C0924253   0.189   1.553  15.220
    1STR    O0A24254   0.263   1.540  15.317
    1STR    O0B24255   0.160   1.676  15.166
    1STR    C0C24256   0.222   1.796  15.220
    1STR    C0D24257   0.365   1.809  15.164
    1STR    C0E24258   0.140   1.925  15.192
    1STR    O0F24259   0.206   2.043  15.243
    1STR    C0G24260   0.136   2.168  15.227
    1STR    C0H24261   0.024   2.178  15.332
    1STR    C0I24262   0.233   2.288  15.241
    1STR    O0J24263   0.164   2.412  15.217
    1STR    C0K24264  60.066  13.311  15.457
    1STR    C0M24265   0.030  13.305  15.366
    1STR    C0N24266  59.971  13.425  15.409
    1STR    O0O24267  60.034  13.554  15.418
    1STR    C0P24268  60.010  13.653  15.329
    1STR    O0Q24269  59.941  13.643  15.228
    1STR    N0R24270  60.075  13.764  15.367
    1STR    C0S24271  60.094  13.893  15.314
    1STR    C0T24272   0.024  13.973  15.387
    1STR    C0U24273   0.061  14.100  15.343
    1STR    C0V24274   0.007  14.154  15.224
    1STR    C0W24275   0.065  14.285  15.174
    1STR    C0X24276  60.067  14.082  15.152
    1STR    N0Y24277  60.013  14.137  15.034
    1STR   BCK224278  59.961  14.261  15.014
    1STR    O1024279  59.934  14.340  15.104
    1STR    C1324280  60.034  13.949  15.197
    1STR    C1424281   0.199   1.256  15.292
    1STR    C1524282   0.192   1.119  15.323
    1STR    C1624283   0.114   1.030  15.247
    1STR    C1724284   0.103   0.889  15.301
    1STR    H1B24285  60.042   1.033  15.012
    1STR    H1C24286   0.000   1.255  15.017
    1STR    H1D24287   0.074   1.483  15.078
    1STR    H1E24288   0.229   1.786  15.328
    1STR    H1F24289   0.365   1.820  15.055
    1STR    H1G24290   0.415   1.897  15.206
    1STR    H1H24291   0.426   1.722  15.189
    1STR    H1I24292   0.042   1.914  15.237
    1STR    H1J24293   0.125   1.936  15.084
    1STR    H1K24294   0.093   2.172  15.126
    1STR    H1M24295   0.064   2.171  15.433
    1STR    H1N24296  60.109   2.101  15.320
    1STR    H1O24297  60.133   2.274  15.323
    1STR    H1P24298   0.278   2.289  15.340
    1STR    H1Q24299   0.315   2.277  15.170
    1STR   C01024300   0.240   2.533  15.232
    1STR   H01124301   0.299   2.529  15.324
    1STR   C01224302   0.333   2.552  15.111
    1STR   H01324303   0.276   2.552  15.018
    1STR   H01424304   0.409   2.475  15.105
    1STR   H01524305   0.385   2.648  15.117
    1STR   C01624306   0.142   2.653  15.244
    1STR   H01724307   0.079   2.659  15.155
    1STR   H01824308   0.075   2.634  15.328
    1STR   O01924309   0.212   2.776  15.263
    1STR   C02024310   0.131   2.894  15.272
    1STR   H02124311   0.054   2.892  15.195
    1STR   C02224312   0.065   2.902  15.411
    1STR   H02324313   0.140   2.901  15.490
    1STR   H02424314  60.155   2.821  15.428
    1STR   H02524315   0.009   2.995  15.421
    1STR   C02624316   0.219   3.019  15.246
    1STR   H02724317   0.298   3.025  15.322
    1STR   H02824318   0.269   3.007  15.150
    1STR   O02924319   0.140   3.138  15.248
    1STR   C03024320   0.211   3.261  15.229
    1STR   H03124321   0.302   3.260  15.289
    1STR   C03224322   0.246   3.279  15.081
    1STR   H03324323   0.156   3.276  15.018
    1STR   H03424324   0.315   3.203  15.045
    1STR   H03524325   0.294   3.376  15.064
    1STR   C03624326   0.122   3.376  15.280
    1STR   H03724327   0.030   3.381  15.222
    1STR   H03824328   0.094   3.357  15.383
    1STR   O03924329   0.193   3.500  15.270
    1STR   C04024330   0.120   3.617  15.310
    1STR   H04124331   0.019   3.613  15.269
    1STR   C04224332   0.115   3.626  15.463
    1STR   H04324333   0.216   3.625  15.506
    1STR   H04424334   0.059   3.544  15.507
    1STR   H04524335   0.067   3.718  15.495
    1STR   C04624336   0.190   3.740  15.249
    1STR   H04724337   0.292   3.748  15.288
    1STR   H04824338   0.198   3.727  15.141
    1STR   O04924339   0.116   3.858  15.280
    1STR   C05024340   0.172   3.980  15.233
    1STR   H05124341   0.280   3.982  15.251
    1STR   C05224342   0.145   3.996  15.082
    1STR   H05324343   0.038   3.991  15.061
    1STR   H05424344   0.195   3.920  15.023
    1STR   H05524345   0.180   4.093  15.047
    1STR   C05624346   0.109   4.096  15.313
    1STR   H05724347   0.002   4.099  15.296
    1STR   H05824348   0.124   4.077  15.420
    1STR   O05924349   0.170   4.219  15.276
    1STR   C06024350   0.117   4.335  15.340
    1STR   H06124351   0.008   4.330  15.344
    1STR   C06224352   0.174   4.346  15.482
    1STR   H06324353   0.283   4.346  15.481
    1STR   H06424354   0.142   4.264  15.546
    1STR   H06524355   0.142   4.438  15.530
    1STR   C06624356   0.156   4.458  15.255
    1STR   H06724357   0.264   4.467  15.251
    1STR   H06824358   0.120   4.443  15.153
    1STR   O06924359   0.098   4.575  15.312
    1STR   C07024360   0.129   4.697  15.245
    1STR   H07124361   0.235   4.699  15.219
    1STR   C07224362   0.044   4.710  15.118
    1STR   H07324363  60.097   4.703  15.141
    1STR   H07424364   0.067   4.633  15.044
    1STR   H07524365   0.061   4.807  15.070
    1STR   C07624366   0.102   4.812  15.343
    1STR   H07724367  60.157   4.814  15.370
    1STR   H07824368   0.159   4.795  15.434
    1STR   O07924369   0.141   4.936  15.283
    1STR   C08024370   0.117   5.052  15.362
    1STR   H08124371   0.019   5.046  15.409
    1STR   C08224372   0.226   5.065  15.470
    1STR   H08324373   0.326   5.066  15.425
    1STR   H08424374   0.223   4.983  15.542
    1STR   H08524375   0.214   5.158  15.526
    1STR   C08624376   0.117   5.173  15.267
    1STR   H08724377   0.215   5.183  15.220
    1STR   H08824378   0.044   5.156  15.188
    1STR   O08924379   0.084   5.291  15.341
    1STR   C09024380   0.085   5.411  15.265
    1STR   H09124381   0.172   5.414  15.199
    1STR   C09224382  60.115   5.422  15.183
    1STR   H09324383  60.027   5.414  15.247
    1STR   H09424384  60.108   5.344  15.107
    1STR   H09524385  60.110   5.518  15.131
    1STR   C09624386   0.098   5.528  15.365
    1STR   H09724387   0.012   5.529  15.432
    1STR   H09824388   0.186   5.512  15.427
    1STR   O09924389   0.108   5.651  15.293
    1STR   C10024390   0.116   5.767  15.374
    1STR   H10124391   0.045   5.761  15.457
    1STR   C10224392   0.259   5.783  15.429
    1STR   H10324393   0.332   5.784  15.348
    1STR   H10424394   0.286   5.702  15.497
    1STR   H10524395   0.269   5.876  15.484
    1STR   C10624396   0.077   5.887  15.286
    1STR   H10724397   0.147   5.897  15.203
    1STR   H10824398  60.139   5.868  15.243
    1STR   O10924399   0.075   6.006  15.365
    1STR   C11024400   0.043   6.125  15.295
    1STR   H11124401   0.096   6.128  15.199
    1STR   C11224402  60.052   6.134  15.271
    1STR   H11324403  59.997   6.126  15.365
    1STR   H11424404  60.016   6.055  15.205
    1STR   H11524405  60.025   6.229  15.225
    1STR   C11624406   0.094   6.243  15.380
    1STR   H11724407   0.042   6.245  15.476
    1STR   H11824408   0.200   6.229  15.401
    1STR   O11924409   0.073   6.365  15.309
    1STR   C12024410   0.111   6.483  15.378
    1STR   H12124411   0.079   6.478  15.483
    1STR   C12224412   0.264   6.500  15.371
    1STR   H12324413   0.299   6.501  15.268
    1STR   H12424414   0.317   6.421  15.424
    1STR   H12524415   0.294   6.595  15.417
    1STR   C12624416   0.038   6.601  15.312
    1STR   H12724417   0.069   6.610  15.208
    1STR   H12824418  60.091   6.581  15.312
    1STR   O12924419   0.066   6.721  15.385
    1STR   C13024420   0.008   6.839  15.331
    1STR   H13124421   0.018   6.840  15.222
    1STR   C13224422  60.019   6.845  15.370
    1STR   H13324423  60.006   6.839  15.478
    1STR   H13424424  59.961   6.765  15.325
    1STR   H13524425  59.975   6.940  15.337
    1STR   C13624426   0.086   6.958  15.388
    1STR   H13724427   0.076   6.961  15.497
    1STR   H13824428   0.192   6.945  15.365
    1STR   O13924429   0.037   7.079  15.330
    1STR   C14024430   0.099   7.198  15.377
    1STR   H14124431   0.111   7.194  15.486
    1STR   C14224432   0.235   7.217  15.309
    1STR   H14324433   0.226   7.216  15.201
    1STR   H14424434   0.306   7.139  15.337
    1STR   H14524435   0.280   7.312  15.338
    1STR   C14624436   0.004   7.315  15.345
    1STR   H14724437  60.150   7.323  15.237
    1STR   H14824438  60.066   7.294  15.388
    1STR   O14924439   0.057   7.436  15.398
    1STR   C15024440  60.140   7.553  15.372
    1STR   H15124441  60.107   7.553  15.268
    1STR   C15224442  60.020   7.559  15.467
    1STR   H15324443  60.051   7.554  15.571
    1STR   H15424444  59.949   7.478  15.449
    1STR   H15524445  59.965   7.652  15.453
    1STR   C15624446   0.073   7.673  15.391
    1STR   H15724447   0.108   7.678  15.494
    1STR   H15824448   0.161   7.661  15.328
    1STR   O15924449   0.004   7.793  15.356
    1STR   C16024450   0.078   7.913  15.374
    1STR   H16124451   0.132   7.911  15.469
    1STR   C16224452   0.176   7.932  15.257
    1STR   H16324453   0.124   7.930  15.161
    1STR   H16424454   0.253   7.855  15.255
    1STR   H16524455   0.227   8.028  15.265
    1STR   C16624456  60.136   8.029  15.381
    1STR   H16724457  60.081   8.035  15.287
    1STR   H16824458  60.064   8.007  15.459
    1STR   O16924459   0.045   8.151  15.408
    1STR   C17024460  60.122   8.267  15.413
    1STR   H17124461  60.050   8.265  15.331
    1STR   C17224462  60.050   8.273  15.548
    1STR   H17324463  60.120   8.270  15.631
    1STR   H17424464  59.979   8.191  15.561
    1STR   H17524465  59.993   8.366  15.556
    1STR   C17624466   0.054   8.388  15.392
    1STR   H17724467   0.127   8.394  15.473
    1STR   H17824468   0.110   8.376  15.299
    1STR   O17924469  60.134   8.507  15.387
    1STR   C18024470   0.048   8.628  15.372
    1STR   H18124471   0.135   8.628  15.437
    1STR   C18224472   0.091   8.646  15.225
    1STR   H18324473   0.005   8.642  15.158
    1STR   H18424474   0.162   8.569  15.194
    1STR   H18524475   0.139   8.742  15.211
    1STR   C18624476  60.116   8.743  15.417
    1STR   H18724477  60.028   8.747  15.353
    1STR   H18824478  60.081   8.722  15.519
    1STR   O18924479   0.028   8.866  15.413
    1STR   C19024480  60.113   8.981  15.450
    1STR   H19124481  60.013   8.977  15.404
    1STR   C19224482  60.100   8.989  15.603
    1STR   H19324483   0.038   8.988  15.651
    1STR   H19424484  60.042   8.906  15.644
    1STR   H19524485  60.050   9.081  15.633
    1STR   C19624486   0.026   9.103  15.393
    1STR   H19724487   0.126   9.111  15.438
    1STR   H19824488   0.040   9.090  15.286
    1STR   O19924489  60.110   9.221  15.419
    1STR   C20024490   0.009   9.343  15.375
    1STR   H20124491   0.116   9.344  15.399
    1STR   C20224492  60.150   9.358  15.223
    1STR   H20324493  60.044   9.353  15.197
    1STR   H20424494   0.043   9.282  15.167
    1STR   H20524495   0.027   9.455  15.190
    1STR   C20624496  60.102   9.457  15.452
    1STR   H20724497  59.996   9.460  15.429
    1STR   H20824498  60.111   9.438  15.559
    1STR   O20924499   0.005   9.581  15.419
    1STR   C21024500  60.109   9.696  15.481
    1STR   H21124501  60.000   9.691  15.479
    1STR   C21224502  60.158   9.706  15.626
    1STR   H21324503   0.107   9.706  15.631
    1STR   H21424504  60.122   9.624  15.688
    1STR   H21524505  60.123   9.798  15.673
    1STR   C21624506  60.153   9.818  15.399
    1STR   H21724507   0.101   9.827  15.400
    1STR   H21824508  60.123   9.803  15.295
    1STR   O21924509  60.091   9.936  15.452
    1STR   C22024510  60.127  10.057  15.386
    1STR   H22124511   0.074  10.060  15.366
    1STR   C22224512  60.048  10.070  15.255
    1STR   H22324513  59.940  10.063  15.272
    1STR   H22424514  60.075   9.994  15.182
    1STR   H22524515  60.067  10.167  15.208
    1STR   C22624516  60.094  10.173  15.483
    1STR   H22724517  59.987  10.174  15.504
    1STR   H22824518  60.146  10.155  15.577
    1STR   O22924519  60.136  10.296  15.425
    1STR   C23024520  60.109  10.412  15.504
    1STR   H23124521  60.008  10.406  15.545
    1STR   C23224522   0.052  10.424  15.617
    1STR   H23324523   0.154  10.425  15.577
    1STR   H23424524   0.044  10.343  15.688
    1STR   H23524525   0.037  10.517  15.672
    1STR   C23624526  60.114  10.534  15.410
    1STR   H23724527   0.054  10.544  15.367
    1STR   H23824528  60.046  10.517  15.327
    1STR   O23924529  60.078  10.652  15.481
    1STR   C24024530  60.082  10.773  15.406
    1STR   H24124531   0.012  10.776  15.344
    1STR   C24224532  59.957  10.783  15.317
    1STR   H24324533  59.866  10.775  15.376
    1STR   H24424534  59.955  10.705  15.241
    1STR   H24524535  59.955  10.879  15.265
    1STR   C24624536  60.089  10.890  15.506
    1STR   H24724537  60.000  10.891  15.568
    1STR   H24824538   0.015  10.874  15.572
    1STR   O24924539  60.103  11.013  15.435
    1STR   C25024540  60.108  11.130  15.517
    1STR   H25124541  60.033  11.124  15.595
    1STR   C25224542   0.088  11.144  15.579
    1STR   H25324543   0.165  11.144  15.502
    1STR   H25424544   0.110  11.063  15.649
    1STR   H25524545   0.096  11.237  15.635
    1STR   C25624546  60.074  11.251  15.428
    1STR   H25724547  60.149  11.261  15.348
    1STR   H25824548  59.978  11.233  15.379
    1STR   O25924549  60.069  11.371  15.506
    1STR   C26024550  60.041  11.491  15.434
    1STR   H26124551  60.099  11.494  15.342
    1STR   C26224552  59.890  11.497  15.402
    1STR   H26324553  59.830  11.489  15.493
    1STR   H26424554  59.859  11.418  15.334
    1STR   H26524555  59.865  11.592  15.355
    1STR   C26624556  60.084  11.610  15.522
    1STR   H26724557  60.028  11.611  15.615
    1STR   H26824558   0.029  11.597  15.548
    1STR   O26924559  60.066  11.733  15.451
    1STR   C27024560  60.103  11.852  15.522
    1STR   H27124561  60.065  11.847  15.625
    1STR   C27224562   0.096  11.866  15.523
    1STR   H27324563   0.136  11.865  15.422
    1STR   H27424564   0.144  11.787  15.580
    1STR   H27524565   0.125  11.961  15.570
    1STR   C27624566  60.036  11.973  15.453
    1STR   H27724567  60.071  11.981  15.351
    1STR   H27824568  59.928  11.955  15.448
    1STR   O27924569  60.062  12.094  15.525
    1STR   C28024570  60.005  12.214  15.471
    1STR   H28124571  60.021  12.216  15.363
    1STR   C28224572  59.854  12.217  15.501
    1STR   H28324573  59.836  12.208  15.608
    1STR   H28424574  59.800  12.138  15.451
    1STR   H28524575  59.810  12.312  15.469
    1STR   C28624576  60.077  12.336  15.532
    1STR   H28724577  60.063  12.337  15.640
    1STR   H28824578   0.024  12.325  15.514
    1STR   O28924579  60.029  12.459  15.474
    1STR   C29024580  60.090  12.580  15.522
    1STR   H29124581  60.097  12.577  15.631
    1STR   C29224582   0.071  12.593  15.462
    1STR   H29324583   0.068  12.589  15.353
    1STR   H29424584   0.139  12.515  15.497
    1STR   H29524585   0.116  12.689  15.490
    1STR   C29624586  60.001  12.700  15.482
    1STR   H29724587  59.991  12.703  15.373
    1STR   H29824588  59.901  12.683  15.522
    1STR   O29924589  60.053  12.825  15.530
    1STR   C30024590  59.976  12.942  15.497
    1STR   H30124591  59.943  12.935  15.393
    1STR   C30224592  59.853  12.949  15.590
    1STR   H30324593  59.883  12.945  15.695
    1STR   H30424594  59.783  12.867  15.572
    1STR   H30524595  59.799  13.042  15.575
    1STR   C30624596  60.063  13.070  15.510
    1STR   H30724597  60.088  13.088  15.614
    1STR   H30824598  60.156  13.052  15.457
    1STR   O30924599  59.996  13.185  15.453
    1STR    H1R24600  60.096  13.332  15.560
    1STR    H1S24601   0.079  13.403  15.361
    1STR    H1T24602   0.003  13.277  15.265
    1STR    H1U24603   0.105  13.235  15.402
    1STR    H1V24604  59.882  13.427  15.471
    1STR    H1W24605  59.937  13.406  15.307
    1STR    H1X24606  60.121  13.745  15.454
    1STR    H1Y24607   0.069  13.936  15.478
    1STR    H1Z24608   0.134  14.157  15.399
    1STR    H2024609   0.074  14.285  15.065
    1STR    H2124610   0.003  14.369  15.204
    1STR    H2224611   0.165  14.302  15.214
    1STR    H2324612  60.013  14.079  14.953
    1STR    H2724613  59.963  13.890  15.141
    1STR    H2824614   0.260   1.316  15.357
    1STR    H2924615   0.246   1.084  15.410
    1STR    H2A24616   0.005   0.846  15.280
    1STR    H2B24617   0.115   0.888  15.409
    1STR    H2C24618   0.181   0.826  15.259
    1STR   BCK124619  60.036   0.858  29.912
    1STR    O0324620  59.943   0.866  29.833
    1STR    N0424621  60.118   0.961  29.942
    1STR    C0524622  60.141   1.073  29.861
    1STR    C0624623  60.115   1.208  29.901
    1STR    C0724624  60.147   1.319  29.816
    1STR    N0824625  60.126   1.454  29.855
    1STR    C0924626  60.120   1.566  29.778
    1STR    O0A24627  60.120   1.564  29.655
    1STR    O0B24628  60.113   1.683  29.849
    1STR    C0C24629  60.105   1.809  29.779
    1STR    C0D24630  59.960   1.832  29.731
    1STR    C0E24631  60.154   1.931  29.863
    1STR    O0F24632  60.143   2.052  29.786
    1STR    C0G24633   0.025   2.174  29.849
    1STR    C0H24634   0.178   2.182  29.849
    1STR    C0I24635  60.124   2.295  29.774
    1STR    O0J24636  60.158   2.418  29.840
    1STR    C0K24637   0.320  13.303  29.806
    1STR    C0M24638   0.168  13.280  29.798
    1STR    C0N24639   0.346  13.437  29.881
    1STR    O0O24640   0.301  13.546  29.798
    1STR    C0P24641   0.242  13.659  29.847
    1STR    O0Q24642   0.210  13.680  29.963
    1STR    N0R24643   0.231  13.746  29.746
    1STR    C0S24644   0.192  13.881  29.733
    1STR    C0T24645   0.268  13.953  29.640
    1STR    C0U24646   0.239  14.087  29.612
    1STR    C0V24647   0.132  14.153  29.674
    1STR    C0W24648   0.120  14.301  29.643
    1STR    C0X24649   0.046  14.083  29.764
    1STR    N0Y24650  60.097  14.142  29.833
    1STR   BCK224651  60.006  14.242  29.822
    1STR    O1024652  59.934  14.264  29.919
    1STR    C1324653   0.081  13.947  29.795
    1STR    C1424654   0.048   1.290  29.691
    1STR    C1524655   0.076   1.158  29.653
    1STR    C1624656   0.046   1.050  29.737
    1STR    C1724657   0.088   0.911  29.694
    1STR    H1B24658   0.021   0.945  30.019
    1STR    H1C24659  60.069   1.226  29.997
    1STR    H1D24660  60.113   1.474  29.953
    1STR    H1E24661   0.010   1.804  29.691
    1STR    H1F24662  59.891   1.838  29.815
    1STR    H1G24663  59.952   1.924  29.674
    1STR    H1H24664  59.927   1.751  29.666
    1STR    H1I24665   0.097   1.914  29.893
    1STR    H1J24666  60.094   1.940  29.954
    1STR    H1K24667  60.148   2.176  29.952
    1STR    H1M24668   0.218   2.177  29.748
    1STR    H1N24669   0.224   2.103  29.907
    1STR    H1O24670   0.212   2.277  29.892
    1STR    H1P24671  60.160   2.297  29.671
    1STR    H1Q24672  60.016   2.284  29.770
    1STR   C01024673  60.113   2.539  29.778
    1STR   H01124674  60.132   2.535  29.670
    1STR   C01224675  59.962   2.558  29.804
    1STR   H01324676  59.941   2.558  29.911
    1STR   H01424677  59.902   2.480  29.757
    1STR   H01524678  59.928   2.653  29.764
    1STR   C01624679   0.034   2.658  29.835
    1STR   H01724680   0.018   2.664  29.943
    1STR   H01824681   0.140   2.639  29.819
    1STR   O01924682  60.155   2.781  29.772
    1STR   C02024683   0.061   2.898  29.821
    1STR   H02124684   0.065   2.896  29.930
    1STR   C02224685   0.203   2.906  29.763
    1STR   H02324686   0.201   2.904  29.654
    1STR   H02424687   0.266   2.825  29.797
    1STR   H02524688   0.252   2.999  29.793
    1STR   C02624689  60.138   3.022  29.780
    1STR   H02724690  60.132   3.028  29.671
    1STR   H02824691  60.036   3.010  29.817
    1STR   O02924692   0.037   3.141  29.833
    1STR   C03024693  60.132   3.263  29.798
    1STR   H03124694  60.105   3.263  29.692
    1STR   C03224695  60.006   3.282  29.884
    1STR   H03324696  60.030   3.278  29.990
    1STR   H03424697  59.931   3.205  29.864
    1STR   H03524698  59.959   3.378  29.864
    1STR   C03624699   0.071   3.379  29.821
    1STR   H03724700   0.100   3.383  29.926
    1STR   H03824701   0.162   3.359  29.764
    1STR   O03924702   0.013   3.503  29.780
    1STR   C04024703   0.094   3.619  29.800
    1STR   H04124704   0.141   3.615  29.898
    1STR   C04224705   0.201   3.627  29.690
    1STR   H04324706   0.156   3.627  29.591
    1STR   H04424707   0.272   3.545  29.695
    1STR   H04524708   0.258   3.720  29.700
    1STR   C04624709   0.001   3.742  29.797
    1STR   H04724710  60.113   3.750  29.700
    1STR   H04824711  60.082   3.728  29.871
    1STR   O04924712   0.077   3.860  29.825
    1STR   C05024713   0.003   3.982  29.822
    1STR   H05124714  60.096   3.983  29.735
    1STR   C05224715  60.082   3.998  29.951
    1STR   H05324716  60.146   3.992  30.039
    1STR   H05424717  60.005   3.921  29.961
    1STR   H05524718  60.032   4.094  29.953
    1STR   C05624719   0.104   4.097  29.805
    1STR   H05724720   0.172   4.100  29.890
    1STR   H05824721   0.165   4.078  29.716
    1STR   O05924722   0.034   4.220  29.792
    1STR   C06024723   0.117   4.336  29.779
    1STR   H06124724   0.200   4.331  29.850
    1STR   C06224725   0.170   4.347  29.636
    1STR   H06324726   0.089   4.347  29.563
    1STR   H06424727   0.237   4.264  29.610
    1STR   H06524728   0.227   4.439  29.622
    1STR   C06624729   0.031   4.458  29.816
    1STR   H06724730  60.107   4.467  29.746
    1STR   H06824731  60.148   4.443  29.915
    1STR   O06924732   0.112   4.576  29.814
    1STR   C07024733   0.043   4.697  29.842
    1STR   H07124734  60.107   4.700  29.790
    1STR   C07224735   0.020   4.711  29.994
    1STR   H07324736   0.115   4.704  30.048
    1STR   H07424737  60.114   4.634  30.032
    1STR   H07524738  60.135   4.807  30.017
    1STR   C07624739   0.129   4.813  29.788
    1STR   H07724740   0.225   4.814  29.839
    1STR   H07824741   0.149   4.795  29.682
    1STR   O07924742   0.060   4.936  29.806
    1STR   C08024743   0.131   5.052  29.763
    1STR   H08124744   0.235   5.046  29.795
    1STR   C08224745   0.123   5.065  29.610
    1STR   H08324746   0.019   5.066  29.576
    1STR   H08424747   0.174   4.984  29.559
    1STR   H08524748   0.170   5.158  29.577
    1STR   C08624749   0.067   5.173  29.833
    1STR   H08724750  60.123   5.183  29.803
    1STR   H08824751   0.068   5.156  29.941
    1STR   O08924752   0.141   5.291  29.801
    1STR   C09024753   0.090   5.411  29.857
    1STR   H09124754  60.141   5.414  29.847
    1STR   C09224755   0.129   5.422  30.005
    1STR   H09324756   0.237   5.415  30.017
    1STR   H09424757   0.083   5.344  30.066
    1STR   H09524758   0.098   5.518  30.046
    1STR   C09624759   0.147   5.528  29.775
    1STR   H09724760   0.256   5.529  29.784
    1STR   H09824761   0.124   5.512  29.669
    1STR   O09924762   0.091   5.651  29.820
    1STR   C10024763   0.140   5.767  29.755
    1STR   H10124764   0.248   5.762  29.742
    1STR   C10224765   0.072   5.783  29.618
    1STR   H10324766  60.123   5.784  29.628
    1STR   H10424767   0.098   5.702  29.550
    1STR   H10524768   0.101   5.876  29.570
    1STR   C10624769   0.110   5.887  29.846
    1STR   H10724770   0.002   5.897  29.860
    1STR   H10824771   0.153   5.868  29.945
    1STR   O10924772   0.165   6.006  29.789
    1STR   C11024773   0.140   6.125  29.863
    1STR   H11124774   0.037   6.128  29.898
    1STR   C11224775   0.236   6.134  29.983
    1STR   H11324776   0.340   6.126  29.950
    1STR   H11424777   0.218   6.055  30.056
    1STR   H11524778   0.224   6.229  30.035
    1STR   C11624779   0.161   6.243  29.766
    1STR   H11724780   0.264   6.245  29.731
    1STR   H11824781   0.097   6.229  29.679
    1STR   O11924782   0.128   6.365  29.833
    1STR   C12024783   0.147   6.483  29.755
    1STR   H12124784   0.241   6.478  29.700
    1STR   C12224785   0.029   6.500  29.658
    1STR   H12324786  60.094   6.501  29.711
    1STR   H12424787   0.025   6.421  29.583
    1STR   H12524788   0.037   6.595  29.604
    1STR   C12624789   0.156   6.601  29.853
    1STR   H12724790   0.063   6.611  29.909
    1STR   H12824791   0.235   6.581  29.926
    1STR   O12924792   0.184   6.721  29.781
    1STR   C13024793   0.191   6.839  29.860
    1STR   H13124794   0.110   6.840  29.933
    1STR   C13224795   0.327   6.846  29.931
    1STR   H13324796   0.409   6.839  29.860
    1STR   H13424797   0.339   6.766  30.004
    1STR   H13524798   0.337   6.940  29.986
    1STR   C13624799   0.171   6.958  29.765
    1STR   H13724800   0.252   6.961  29.692
    1STR   H13824801   0.078   6.945  29.711
    1STR   O13924802   0.168   7.079  29.841
    1STR   C14024803   0.155   7.198  29.765
    1STR   H14124804   0.219   7.194  29.676
    1STR   C14224805   0.008   7.217  29.723
    1STR   H14324806  60.102   7.216  29.809
    1STR   H14424807  60.135   7.139  29.654
    1STR   H14524808  60.154   7.312  29.671
    1STR   C14624809   0.203   7.315  29.853
    1STR   H14724810   0.140   7.323  29.941
    1STR   H14824811   0.304   7.294  29.887
    1STR   O14924812   0.200   7.436  29.777
    1STR   C15024813   0.238   7.553  29.849
    1STR   H15124814   0.193   7.553  29.948
    1STR   C15224815   0.391   7.559  29.860
    1STR   H15324816   0.438   7.554  29.762
    1STR   H15424817   0.432   7.478  29.921
    1STR   H15524818   0.423   7.652  29.907
    1STR   C15624819   0.183   7.673  29.772
    1STR   H15724820   0.227   7.678  29.672
    1STR   H15824821   0.075   7.661  29.758
    1STR   O15924822   0.211   7.793  29.844
    1STR   C16024823   0.168   7.913  29.781
    1STR   H16124824   0.192   7.911  29.675
    1STR   C16224825   0.017   7.932  29.801
    1STR   H16324826  60.151   7.930  29.907
    1STR   H16424827  60.119   7.855  29.751
    1STR   H16524828  60.144   8.028  29.761
    1STR   C16624829   0.247   8.029  29.845
    1STR   H16724830   0.225   8.035  29.951
    1STR   H16824831   0.354   8.007  29.836
    1STR   O16924832   0.215   8.151  29.779
    1STR   C17024833   0.279   8.267  29.831
    1STR   H17124834   0.278   8.265  29.940
    1STR   C17224835   0.424   8.273  29.780
    1STR   H17324836   0.428   8.270  29.671
    1STR   H17424837   0.485   8.191  29.818
    1STR   H17524838   0.472   8.366  29.812
    1STR   C17624839   0.198   8.389  29.784
    1STR   H17724840   0.199   8.394  29.675
    1STR   H17824841   0.094   8.376  29.815
    1STR   O17924842   0.253   8.507  29.842
    1STR   C18024843   0.189   8.628  29.803
    1STR   H18124844   0.168   8.628  29.696
    1STR   C18224845   0.059   8.646  29.882
    1STR   H18324846   0.077   8.642  29.990
    1STR   H18424847  60.145   8.569  29.858
    1STR   H18524848   0.013   8.742  29.860
    1STR   C18624849   0.288   8.743  29.831
    1STR   H18724850   0.310   8.747  29.938
    1STR   H18824851   0.382   8.722  29.780
    1STR   O18924852   0.232   8.866  29.786
    1STR   C19024853   0.312   8.981  29.810
    1STR   H19124854   0.354   8.978  29.911
    1STR   C19224855   0.425   8.989  29.706
    1STR   H19324856   0.385   8.988  29.604
    1STR   H19424857   0.496   8.907  29.715
    1STR   H19524858   0.482   9.081  29.718
    1STR   C19624859   0.219   9.103  29.801
    1STR   H19724860   0.177   9.111  29.701
    1STR   H19824861   0.136   9.090  29.871
    1STR   O19924862   0.293   9.221  29.834
    1STR   C20024863   0.219   9.343  29.826
    1STR   H20124864   0.157   9.344  29.737
    1STR   C20224865   0.131   9.358  29.951
    1STR   H20324866   0.191   9.353  30.043
    1STR   H20424867   0.054   9.282  29.957
    1STR   H20524868   0.081   9.455  29.951
    1STR   C20624869   0.321   9.457  29.815
    1STR   H20724870   0.384   9.460  29.904
    1STR   H20824871   0.387   9.438  29.730
    1STR   O20924872   0.252   9.581  29.797
    1STR   C21024873   0.335   9.696  29.789
    1STR   H21124874   0.414   9.691  29.865
    1STR   C21224875   0.397   9.706  29.649
    1STR   H21324876   0.320   9.706  29.572
    1STR   H21424877   0.465   9.624  29.628
    1STR   H21524878   0.454   9.798  29.638
    1STR   C21624879   0.247   9.818  29.821
    1STR   H21724880   0.168   9.827  29.746
    1STR   H21824881   0.199   9.803  29.917
    1STR   O21924882   0.328   9.936  29.823
    1STR   C22024883   0.258  10.057  29.847
    1STR   H22124884   0.165  10.060  29.790
    1STR   C22224885   0.228  10.070  29.998
    1STR   H22324886   0.319  10.063  30.057
    1STR   H22424887   0.159   9.994  30.033
    1STR   H22524888   0.182  10.167  30.019
    1STR   C22624889   0.347  10.173  29.798
    1STR   H22724890   0.441  10.174  29.854
    1STR   H22824891   0.373  10.155  29.694
    1STR   O22924892   0.277  10.296  29.812
    1STR   C23024893   0.351  10.412  29.773
    1STR   H23124894   0.453  10.406  29.810
    1STR   C23224895   0.351  10.424  29.620
    1STR   H23324896   0.250  10.425  29.580
    1STR   H23424897   0.405  10.343  29.572
    1STR   H23524898   0.399  10.517  29.588
    1STR   C23624899   0.283  10.534  29.838
    1STR   H23724900   0.181  10.544  29.802
    1STR   H23824901   0.278  10.517  29.946
    1STR   O23924902   0.358  10.652  29.810
    1STR   C24024903   0.304  10.773  29.863
    1STR   H24124904   0.196  10.776  29.847
    1STR   C24224905   0.337  10.783  30.013
    1STR   H24324906   0.444  10.775  30.031
    1STR   H24424907   0.287  10.705  30.071
    1STR   H24524908   0.303  10.879  30.053
    1STR   C24624909   0.367  10.890  29.784
    1STR   H24724910   0.475  10.891  29.798
    1STR   H24824911   0.348  10.874  29.678
    1STR   O24924912   0.309  11.013  29.827
    1STR   C25024913   0.360  11.130  29.764
    1STR   H25124914   0.469  11.124  29.757
    1STR   C25224915   0.300  11.144  29.623
    1STR   H25324916   0.191  11.144  29.627
    1STR   H25424917   0.330  11.063  29.557
    1STR   H25524918   0.331  11.237  29.576
    1STR   C25624919   0.325  11.251  29.852
    1STR   H25724920   0.217  11.261  29.860
    1STR   H25824921   0.363  11.233  29.953
    1STR   O25924922   0.382  11.370  29.797
    1STR   C26024923   0.355  11.491  29.870
    1STR   H26124924   0.249  11.493  29.899
    1STR   C26224925   0.444  11.497  29.995
    1STR   H26324926   0.549  11.489  29.969
    1STR   H26424927   0.420  11.418  30.066
    1STR   H26524928   0.430  11.592  30.047
    1STR   C26624929   0.381  11.610  29.776
    1STR   H26724930   0.486  11.611  29.745
    1STR   H26824931   0.322  11.597  29.685
    1STR   O26924932   0.347  11.733  29.840
    1STR   C27024933   0.368  11.852  29.763
    1STR   H27124934   0.465  11.847  29.713
    1STR   C27224935   0.256  11.866  29.659
    1STR   H27324936   0.158  11.865  29.706
    1STR   H27424937   0.258  11.787  29.584
    1STR   H27524938   0.266  11.960  29.605
    1STR   C27624939   0.371  11.973  29.859
    1STR   H27724940   0.275  11.981  29.911
    1STR   H27824941   0.446  11.954  29.935
    1STR   O27924942   0.400  12.094  29.788
    1STR   C28024943   0.405  12.213  29.868
    1STR   H28124944   0.321  12.215  29.937
    1STR   C28224945   0.537  12.217  29.946
    1STR   H28324946   0.623  12.207  29.880
    1STR   H28424947   0.543  12.137  30.020
    1STR   H28524948   0.548  12.311  30.000
    1STR   C28624949   0.393  12.336  29.775
    1STR   H28724950   0.476  12.337  29.704
    1STR   H28824951   0.302  12.325  29.716
    1STR   O28924952   0.390  12.459  29.850
    1STR   C29024953   0.378  12.580  29.774
    1STR   H29124954   0.447  12.577  29.689
    1STR   C29224955   0.234  12.593  29.722
    1STR   H29324956   0.162  12.589  29.804
    1STR   H29424957   0.208  12.516  29.650
    1STR   H29524958   0.220  12.689  29.672
    1STR   C29624959   0.417  12.700  29.863
    1STR   H29724960   0.351  12.703  29.950
    1STR   H29824961   0.518  12.684  29.901
    1STR   O29924962   0.410  12.825  29.791
    1STR   C30024963   0.441  12.944  29.866
    1STR   H30124964   0.393  12.939  29.964
    1STR   C30224965   0.594  12.954  29.883
    1STR   H30324966   0.644  12.949  29.786
    1STR   H30424967   0.633  12.873  29.945
    1STR   H30524968   0.622  13.048  29.930
    1STR   C30624969   0.384  13.067  29.791
    1STR   H30724970   0.439  13.082  29.698
    1STR   H30824971   0.282  13.041  29.762
    1STR   O30924972   0.383  13.189  29.869
    1STR    H1R24973   0.361  13.313  29.706
    1STR    H1S24974   0.118  13.370  29.761
    1STR    H1T24975   0.127  13.259  29.897
    1STR    H1U24976   0.140  13.199  29.731
    1STR    H1V24977   0.453  13.450  29.899
    1STR    H1W24978   0.298  13.438  29.979
    1STR    H1X24979   0.269  13.703  29.664
    1STR    H1Y24980   0.353  13.907  29.591
    1STR    H1Z24981   0.303  14.140  29.543
    1STR    H2024982   0.051  14.315  29.560
    1STR    H2124983   0.088  14.356  29.731
    1STR    H2224984   0.216  14.343  29.613
    1STR    H2324985  60.076  14.094  29.920
    1STR    H2724986   0.022  13.890  29.865
    1STR    H2824987   0.077   1.367  29.622
    1STR    H2924988   0.124   1.141  29.557
    1STR    H2A24989   0.139   0.860  29.775
    1STR    H2B24990   0.155   0.914  29.608
    1STR    H2C24991   0.000   0.852  29.666
    1STR   BCK124992  60.021   0.857  45.079
    1STR    O0324993  60.059   0.796  45.178
    1STR    N0424994  59.993   0.990  45.077
    1STR    C0524995  59.971   1.081  45.183
    1STR    C0624996  60.014   1.218  45.175
    1STR    C0724997  59.981   1.315  45.275
    1STR    N0824998  60.018   1.452  45.264
    1STR    C0924999  59.965   1.561  45.325
    1STR    O0A25000  59.868   1.556  45.401
    1STR    O0B25001  60.029   1.678  45.294
    1STR    C0C25002  59.990   1.802  45.361
    1STR    C0D25003  60.064   1.812  45.496
    1STR    C0E25004  60.016   1.928  45.275
    1STR    O0F25005  59.973   2.048  45.343
    1STR    C0G25006  59.986   2.172  45.272
    1STR    C0H25007  59.872   2.183  45.169
    1STR    C0I25008  59.981   2.292  45.370
    1STR    O0J25009  59.999   2.416  45.298
    1STR    C0K25010  59.698  13.293  45.071
    1STR    C0M25011  59.811  13.298  45.175
    1STR    C0N25012  59.709  13.415  44.975
    1STR    O0O25013  59.679  13.536  45.045
    1STR    C0P25014  59.740  13.653  45.012
    1STR    O0Q25015  59.825  13.667  44.926
    1STR    N0R25016  59.694  13.750  45.092
    1STR    C0S25017  59.732  13.883  45.109
    1STR    C0T25018  59.707  13.940  45.236
    1STR    C0U25019  59.752  14.070  45.266
    1STR    C0V25020  59.820  14.148  45.170
    1STR    C0W25021  59.887  14.276  45.218
    1STR    C0X25022  59.836  14.098  45.038
    1STR    N0Y25023  59.903  14.169  44.938
    1STR   BCK225024  59.879  14.286  44.876
    1STR    O1025025  59.949  14.318  44.780
    1STR    C1325026  59.796  13.964  45.011
    1STR    C1425027  59.909   1.270  45.388
    1STR    C1525028  59.863   1.138  45.397
    1STR    C1625029  59.890   1.044  45.295
    1STR    C1725030  59.821   0.909  45.308
    1STR    H1B25031  59.984   1.027  44.984
    1STR    H1C25032  60.072   1.249  45.090
    1STR    H1D25033  60.093   1.476  45.201
    1STR    H1E25034  59.883   1.799  45.381
    1STR    H1F25035   0.012   1.817  45.482
    1STR    H1G25036  60.034   1.902  45.550
    1STR    H1H25037  60.042   1.727  45.560
    1STR    H1I25038  59.962   1.918  45.181
    1STR    H1J25039  60.122   1.936  45.250
    1STR    H1K25040  60.082   2.175  45.221
    1STR    H1M25041  59.774   2.176  45.217
    1STR    H1N25042  59.877   2.105  45.093
    1STR    H1O25043  59.876   2.279  45.117
    1STR    H1P25044  59.885   2.294  45.422
    1STR    H1Q25045  60.058   2.281  45.445
    1STR   C01025046  59.991   2.537  45.375
    1STR   H01125047  59.904   2.532  45.442
    1STR   C01225048  60.119   2.556  45.458
    1STR   H01325049   0.047   2.556  45.394
    1STR   H01425050  60.132   2.478  45.533
    1STR   H01525051  60.117   2.651  45.511
    1STR   C01625052  59.970   2.656  45.278
    1STR   H01725053  60.054   2.662  45.209
    1STR   H01825054  59.881   2.637  45.218
    1STR   O01925055  59.956   2.779  45.350
    1STR   C02025056  59.940   2.897  45.270
    1STR   H02125057  60.011   2.895  45.187
    1STR   C02225058  59.796   2.905  45.217
    1STR   H02325059  59.724   2.903  45.298
    1STR   H02425060  59.773   2.823  45.149
    1STR   H02525061  59.781   2.998  45.162
    1STR   C02625062  59.974   3.021  45.357
    1STR   H02725063  59.905   3.027  45.441
    1STR   H02825064  60.074   3.009  45.398
    1STR   O02925065  59.966   3.140  45.277
    1STR   C03025066  59.990   3.262  45.347
    1STR   H03125067  59.939   3.262  45.443
    1STR   C03225068  60.141   3.281  45.368
    1STR   H03325069   0.035   3.277  45.274
    1STR   H03425070   0.023   3.205  45.434
    1STR   H03525071   0.002   3.378  45.414
    1STR   C03625072  59.932   3.378  45.263
    1STR   H03725073  59.982   3.382  45.166
    1STR   H03825074  59.827   3.358  45.244
    1STR   O03925075  59.948   3.502  45.333
    1STR   C04025076  59.902   3.618  45.263
    1STR   H04125077  59.933   3.614  45.159
    1STR   C04225078  59.748   3.627  45.272
    1STR   H04325079  59.715   3.626  45.376
    1STR   H04425080  59.699   3.545  45.220
    1STR   H04525081  59.713   3.719  45.226
    1STR   C04625082  59.968   3.741  45.328
    1STR   H04725083  59.938   3.749  45.432
    1STR   H04825084  60.076   3.728  45.326
    1STR   O04925085  59.931   3.859  45.256
    1STR   C05025086  59.983   3.981  45.309
    1STR   H05125087  59.974   3.982  45.417
    1STR   C05225088  60.131   3.997  45.268
    1STR   H05325089  60.142   3.992  45.160
    1STR   H05425090   0.034   3.921  45.313
    1STR   H05525091   0.009   4.094  45.300
    1STR   C05625092  59.897   4.096  45.253
    1STR   H05725093  59.905   4.099  45.144
    1STR   H05825094  59.793   4.077  45.277
    1STR   O05925095  59.940   4.220  45.310
    1STR   C06025096  59.871   4.336  45.263
    1STR   H06125097  59.857   4.331  45.155
    1STR   C06225098  59.734   4.346  45.333
    1STR   H06325099  59.745   4.347  45.441
    1STR   H06425100  59.668   4.264  45.306
    1STR   H06525101  59.684   4.439  45.304
    1STR   C06625102  59.959   4.458  45.294
    1STR   H06725103  59.973   4.467  45.402
    1STR   H06825104  60.057   4.443  45.250
    1STR   O06925105  59.898   4.575  45.241
    1STR   C07025106  59.968   4.697  45.266
    1STR   H07125107  60.003   4.699  45.370
    1STR   C07225108  60.087   4.710  45.170
    1STR   H07325109  60.054   4.703  45.066
    1STR   H07425110   0.002   4.634  45.187
    1STR   H07525111  60.136   4.807  45.183
    1STR   C07625112  59.868   4.812  45.248
    1STR   H07725113  59.831   4.814  45.145
    1STR   H07825114  59.781   4.795  45.312
    1STR   O07925115  59.931   4.936  45.282
    1STR   C08025116  59.849   5.052  45.265
    1STR   H08125117  59.794   5.046  45.171
    1STR   C08225118  59.752   5.065  45.383
    1STR   H08325119  59.805   5.066  45.478
    1STR   H08425120  59.680   4.983  45.386
    1STR   H08525121  59.695   5.158  45.376
    1STR   C08625122  59.944   5.173  45.257
    1STR   H08725123  60.000   5.183  45.350
    1STR   H08825124  60.016   5.156  45.177
    1STR   O08925125  59.868   5.291  45.230
    1STR   C09025126  59.943   5.411  45.224
    1STR   H09125127  60.016   5.414  45.305
    1STR   C09225128  60.013   5.422  45.088
    1STR   H09325129  59.942   5.415  45.006
    1STR   H09425130  60.088   5.344  45.074
    1STR   H09525131  60.065   5.518  45.079
    1STR   C09625132  59.845   5.528  45.246
    1STR   H09725133  59.771   5.529  45.166
    1STR   H09825134  59.791   5.512  45.339
    1STR   O09925135  59.917   5.651  45.250
    1STR   C10025136  59.837   5.768  45.265
    1STR   H10125137  59.749   5.762  45.202
    1STR   C10225138  59.795   5.783  45.412
    1STR   H10325139  59.882   5.784  45.478
    1STR   H10425140  59.729   5.703  45.445
    1STR   H10525141  59.741   5.876  45.427
    1STR   C10625142  59.921   5.887  45.218
    1STR   H10725143  60.010   5.897  45.281
    1STR   H10825144  59.956   5.868  45.117
    1STR   O10925145  59.842   6.006  45.223
    1STR   C11025146  59.910   6.125  45.185
    1STR   H11125147  60.010   6.128  45.230
    1STR   C11225148  59.920   6.134  45.032
    1STR   H11325149  59.822   6.127  44.986
    1STR   H11425150  59.983   6.055  44.991
    1STR   H11525151  59.964   6.229  45.002
    1STR   C11625152  59.830   6.243  45.243
    1STR   H11725153  59.730   6.245  45.199
    1STR   H11825154  59.818   6.229  45.350
    1STR   O11925155  59.899   6.365  45.216
    1STR   C12025156  59.833   6.483  45.261
    1STR   H12125157  59.726   6.478  45.238
    1STR   C12225158  59.853   6.500  45.412
    1STR   H12325159  59.959   6.501  45.437
    1STR   H12425160  59.805   6.421  45.469
    1STR   H12525161  59.811   6.595  45.446
    1STR   C12625162  59.892   6.601  45.182
    1STR   H12725163  59.999   6.611  45.204
    1STR   H12825164  59.883   6.581  45.075
    1STR   O12925165  59.823   6.721  45.216
    1STR   C13025166  59.871   6.839  45.153
    1STR   H13125167  59.980   6.840  45.154
    1STR   C13225168  59.819   6.845  45.009
    1STR   H13325169  59.710   6.839  45.005
    1STR   H13425170  59.859   6.765  44.947
    1STR   H13525171  59.848   6.940  44.962
    1STR   C13625172  59.821   6.958  45.236
    1STR   H13725173  59.712   6.961  45.236
    1STR   H13825174  59.853   6.945  45.339
    1STR   O13925175  59.874   7.079  45.182
    1STR   C14025176  59.833   7.198  45.248
    1STR   H14125177  59.726   7.194  45.269
    1STR   C14225178  59.912   7.217  45.378
    1STR   H14325179  60.020   7.216  45.359
    1STR   H14425180  59.891   7.139  45.451
    1STR   H14525181  59.888   7.312  45.425
    1STR   C14625182  59.857   7.315  45.151
    1STR   H14725183  59.963   7.323  45.128
    1STR   H14825184  59.806   7.294  45.057
    1STR   O14925185  59.808   7.436  45.208
    1STR   C15025186  59.828   7.553  45.129
    1STR   H15125187  59.928   7.553  45.087
    1STR   C15225188  59.723   7.559  45.017
    1STR   H15325189  59.622   7.554  45.058
    1STR   H15425190  59.734   7.478  44.946
    1STR   H15525191  59.732   7.652  44.961
    1STR   C15625192  59.817   7.674  45.224
    1STR   H15725193  59.717   7.678  45.267
    1STR   H15825194  59.887   7.661  45.306
    1STR   O15925195  59.845   7.793  45.151
    1STR   C16025196  59.834   7.913  45.226
    1STR   H16125197  59.745   7.911  45.289
    1STR   C16225198  59.959   7.932  45.314
    1STR   H16325199  60.050   7.930  45.254
    1STR   H16425200  59.968   7.855  45.390
    1STR   H16525201  59.956   8.028  45.366
    1STR   C16625202  59.819   8.029  45.126
    1STR   H16725203  59.907   8.035  45.063
    1STR   H16825204  59.734   8.007  45.061
    1STR   O16925205  59.798   8.151  45.197
    1STR   C17025206  59.786   8.267  45.115
    1STR   H17125207  59.861   8.265  45.036
    1STR   C17225208  59.644   8.273  45.054
    1STR   H17325209  59.568   8.270  45.132
    1STR   H17425210  59.625   8.191  44.985
    1STR   H17525211  59.631   8.366  44.998
    1STR   C17625212  59.814   8.389  45.204
    1STR   H17725213  59.740   8.395  45.284
    1STR   H17825214  59.911   8.376  45.252
    1STR   O17925215  59.812   8.507  45.125
    1STR   C18025216  59.833   8.628  45.196
    1STR   H18125217  59.776   8.628  45.289
    1STR   C18225218  59.983   8.646  45.226
    1STR   H18325219  60.042   8.642  45.135
    1STR   H18425220  60.021   8.569  45.294
    1STR   H18525221  60.002   8.742  45.274
    1STR   C18625222  59.780   8.743  45.109
    1STR   H18725223  59.836   8.747  45.015
    1STR   H18825224  59.676   8.722  45.083
    1STR   O18925225  59.790   8.866  45.180
    1STR   C19025226  59.747   8.981  45.109
    1STR   H19125227  59.784   8.977  45.006
    1STR   C19225228  59.594   8.989  45.109
    1STR   H19325229  59.555   8.988  45.211
    1STR   H19425230  59.548   8.906  45.054
    1STR   H19525231  59.560   9.081  45.062
    1STR   C19625232  59.810   9.103  45.177
    1STR   H19725233  59.774   9.111  45.280
    1STR   H19825234  59.918   9.090  45.182
    1STR   O19925235  59.778   9.221  45.103
    1STR   C20025236  59.827   9.342  45.159
    1STR   H20125237  59.812   9.344  45.267
    1STR   C20225238  59.977   9.358  45.126
    1STR   H20325239  59.994   9.353  45.018
    1STR   H20425240  60.038   9.282  45.174
    1STR   H20525241  60.014   9.455  45.160
    1STR   C20625242  59.744   9.457  45.098
    1STR   H20725243  59.758   9.460  44.990
    1STR   H20825244  59.639   9.438  45.117
    1STR   O20925245  59.783   9.580  45.158
    1STR   C21025246  59.716   9.696  45.108
    1STR   H21125247  59.709   9.691  44.999
    1STR   C21225248  59.576   9.706  45.170
    1STR   H21325249  59.581   9.706  45.279
    1STR   H21425250  59.511   9.623  45.139
    1STR   H21525251  59.527   9.798  45.139
    1STR   C21625252  59.802   9.818  45.144
    1STR   H21725253  59.811   9.827  45.252
    1STR   H21825254  59.903   9.803  45.105
    1STR   O21925255  59.744   9.935  45.088
    1STR   C22025256  59.813  10.057  45.117
    1STR   H22125257  59.842  10.059  45.222
    1STR   C22225258  59.937  10.070  45.027
    1STR   H22325259  59.910  10.063  44.922
    1STR   H22425260  60.011   9.993  45.048
    1STR   H22525261  59.985  10.166  45.042
    1STR   C22625262  59.714  10.172  45.093
    1STR   H22725263  59.683  10.174  44.989
    1STR   H22825264  59.624  10.154  45.153
    1STR   O22925265  59.774  10.295  45.130
    1STR   C23025266  59.694  10.411  45.110
    1STR   H23125267  59.644  10.405  45.013
    1STR   C23225268  59.590  10.424  45.222
    1STR   H23325269  59.638  10.425  45.320
    1STR   H23425270  59.518  10.342  45.221
    1STR   H23525271  59.533  10.516  45.212
    1STR   C23625272  59.788  10.533  45.107
    1STR   H23725273  59.839  10.542  45.203
    1STR   H23825274  59.865  10.516  45.031
    1STR   O23925275  59.714  10.650  45.077
    1STR   C24025276  59.789  10.771  45.075
    1STR   H24125277  59.858  10.774  45.159
    1STR   C24225278  59.867  10.782  44.943
    1STR   H24325279  59.800  10.774  44.857
    1STR   H24425280  59.943  10.704  44.933
    1STR   H24525281  59.919  10.877  44.936
    1STR   C24625282  59.690  10.888  45.091
    1STR   H24725283  59.620  10.889  45.007
    1STR   H24825284  59.631  10.872  45.181
    1STR   O24925285  59.762  11.011  45.098
    1STR   C25025286  59.681  11.128  45.110
    1STR   H25125287  59.596  11.122  45.042
    1STR   C25225288  59.631  11.142  45.255
    1STR   H25325289  59.714  11.143  45.325
    1STR   H25425290  59.563  11.061  45.284
    1STR   H25525291  59.576  11.235  45.267
    1STR   C25625292  59.767  11.248  45.068
    1STR   H25725293  59.852  11.258  45.136
    1STR   H25825294  59.807  11.230  44.969
    1STR   O25925295  59.688  11.367  45.069
    1STR   C26025296  59.757  11.487  45.035
    1STR   H26125297  59.854  11.489  45.085
    1STR   C26225298  59.775  11.494  44.883
    1STR   H26325299  59.680  11.486  44.831
    1STR   H26425300  59.840  11.415  44.845
    1STR   H26525301  59.820  11.589  44.854
    1STR   C26625302  59.674  11.605  45.087
    1STR   H26725303  59.576  11.606  45.039
    1STR   H26825304  59.656  11.591  45.194
    1STR   O26925305  59.743  11.728  45.064
    1STR   C27025306  59.675  11.846  45.106
    1STR   H27125307  59.570  11.841  45.077
    1STR   C27225308  59.687  11.862  45.258
    1STR   H27325309  59.791  11.861  45.289
    1STR   H27425310  59.636  11.782  45.312
    1STR   H27525311  59.643  11.956  45.291
    1STR   C27625312  59.738  11.966  45.032
    1STR   H27725313  59.843  11.975  45.059
    1STR   H27825314  59.734  11.946  44.925
    1STR   O27925315  59.668  12.086  45.064
    1STR   C28025316  59.718  12.205  45.002
    1STR   H28125317  59.827  12.207  45.009
    1STR   C28225318  59.674  12.210  44.855
    1STR   H28325319  59.566  12.202  44.846
    1STR   H28425320  59.719  12.130  44.796
    1STR   H28525321  59.704  12.304  44.809
    1STR   C28625322  59.664  12.326  45.081
    1STR   H28725323  59.555  12.328  45.076
    1STR   H28825324  59.690  12.314  45.186
    1STR   O28925325  59.718  12.448  45.029
    1STR   C29025326  59.674  12.568  45.093
    1STR   H29125327  59.566  12.564  45.109
    1STR   C29225328  59.746  12.584  45.228
    1STR   H29325329  59.854  12.582  45.215
    1STR   H29425330  59.719  12.506  45.299
    1STR   H29525331  59.720  12.679  45.275
    1STR   C29625332  59.704  12.687  44.999
    1STR   H29725333  59.811  12.693  44.981
    1STR   H29825334  59.657  12.667  44.903
    1STR   O29925335  59.656  12.810  45.055
    1STR   C30025336  59.680  12.927  44.976
    1STR   H30125337  59.781  12.925  44.936
    1STR   C30225338  59.579  12.932  44.860
    1STR   H30325339  59.476  12.926  44.897
    1STR   H30425340  59.593  12.850  44.789
    1STR   H30525341  59.589  13.025  44.804
    1STR   C30625342  59.667  13.052  45.066
    1STR   H30725343  59.565  13.060  45.103
    1STR   H30825344  59.731  13.037  45.153
    1STR   O30925345  59.705  13.171  44.996
    1STR    H1R25346  59.601  13.299  45.121
    1STR    H1S25347  59.814  13.394  45.226
    1STR    H1T25348  59.909  13.284  45.127
    1STR    H1U25349  59.801  13.222  45.252
    1STR    H1V25350  59.638  13.405  44.893
    1STR    H1W25351  59.808  13.418  44.929
    1STR    H1X25352  59.624  13.713  45.155
    1STR    H1Y25353  59.658  13.883  45.313
    1STR    H1Z25354  59.738  14.108  45.366
    1STR    H2025355  59.990  14.254  45.245
    1STR    H2125356  59.889  14.354  45.143
    1STR    H2225357  59.836  14.316  45.306
    1STR    H2325358  59.979  14.120  44.893
    1STR    H2725359  59.814  13.922  44.913
    1STR    H2825360  59.884   1.335  45.470
    1STR    H2925361  59.804   1.109  45.482
    1STR    H2A25362  59.792   0.870  45.210
    1STR    H2B25363  59.730   0.917  45.367
    1STR    H2C25364  59.887   0.838  45.357
    1STR   BCK125365   0.015  15.903  60.027
    1STR    O0325366   0.113  15.838  59.992
    1STR    N0425367   0.018  16.028  60.079
    1STR    C0525368   0.125  16.117  60.106
    1STR    C0625369   0.106  16.258  60.089
    1STR    C0725370   0.208  16.355  60.115
    1STR    N0825371   0.184  16.494  60.102
    1STR    C0925372   0.271  16.598  60.099
    1STR    O0A25373   0.393  16.586  60.099
    1STR    O0B25374   0.208  16.720  60.095
    1STR    C0C25375   0.286  16.841  60.084
    1STR    C0D25376   0.328  16.860  59.937
    1STR    C0E25377   0.211  16.967  60.136
    1STR    O0F25378   0.290  17.086  60.119
    1STR    C0G25379   0.232  17.210   0.005
    1STR    C0H25380   0.246  17.219   0.158
    1STR    C0I25381   0.302  17.331  60.097
    1STR    O0J25382   0.240  17.454  60.138
    1STR    C0K25383   0.271  28.358   0.296
    1STR    C0M25384   0.281  28.338   0.144
    1STR    C0N25385   0.176  28.479   0.325
    1STR    O0O25386   0.227  28.602   0.269
    1STR    C0P25387   0.146  28.699   0.214
    1STR    O0Q25388   0.026  28.689   0.193
    1STR    N0R25389   0.220  28.808   0.190
    1STR    C0S25390   0.201  28.937   0.136
    1STR    C0T25391   0.311  29.023   0.156
    1STR    C0U25392   0.315  29.150   0.099
    1STR    C0V25393   0.210  29.197   0.019
    1STR    C0W25394   0.233  29.329  60.107
    1STR    C0X25395   0.092  29.119   0.002
    1STR    N0Y25396  60.148  29.167  60.078
    1STR   BCK225397  60.090  29.290  60.074
    1STR    O1025398  60.101  29.375   0.001
    1STR    C1325399   0.090  28.987   0.060
    1STR    C1425400   0.333  16.305  60.159
    1STR    C1525401   0.353  16.168   0.021
    1STR    C1625402   0.251  16.074  60.159
    1STR    C1725403   0.280  15.932   0.043
    1STR    H1B25404  60.086  16.063  60.096
    1STR    H1C25405   0.010  16.292  60.053
    1STR    H1D25406   0.089  16.525  60.094
    1STR    H1E25407   0.377  16.830  60.144
    1STR    H1F25408   0.242  16.871  59.872
    1STR    H1G25409   0.390  16.949  59.926
    1STR    H1H25410   0.387  16.776  59.901
    1STR    H1I25411   0.188  16.952   0.082
    1STR    H1J25412   0.116  16.978  60.084
    1STR    H1K25413   0.127  17.213  60.137
    1STR    H1M25414   0.351  17.213   0.188
    1STR    H1N25415   0.192  17.140   0.209
    1STR    H1O25416   0.207  17.314   0.194
    1STR    H1P25417   0.408  17.332  60.123
    1STR    H1Q25418   0.296  17.319  59.989
    1STR   C01025419   0.298  17.575  60.087
    1STR   H01125420   0.407  17.571  60.096
    1STR   C01225421   0.258  17.594  59.939
    1STR   H01325422   0.150  17.594  59.927
    1STR   H01425423   0.300  17.516  59.875
    1STR   H01525424   0.295  17.689  59.901
    1STR   C01625425   0.248  17.694   0.012
    1STR   H01725426   0.139  17.700   0.007
    1STR   H01825427   0.273  17.676   0.116
    1STR   O01925428   0.306  17.817  60.128
    1STR   C02025429   0.264  17.935   0.037
    1STR   H02125430   0.156  17.933   0.051
    1STR   C02225431   0.334  17.944   0.174
    1STR   H02325432   0.442  17.942   0.163
    1STR   H02425433   0.305  17.862   0.240
    1STR   H02525434   0.308  18.037   0.225
    1STR   C02625435   0.297  18.059  60.111
    1STR   H02725436   0.405  18.066  60.095
    1STR   H02825437   0.251  18.048  60.013
    1STR   O02925438   0.250  18.178   0.015
    1STR   C03025439   0.279  18.301  60.108
    1STR   H03125440   0.382  18.301  60.072
    1STR   C03225441   0.182  18.320  59.990
    1STR   H03325442   0.078  18.316  60.023
    1STR   H03425443   0.195  18.244  59.913
    1STR   H03525444   0.198  18.416  59.942
    1STR   C03625445   0.265  18.417   0.049
    1STR   H03725446   0.162  18.421   0.086
    1STR   H03825447   0.329  18.398   0.134
    1STR   O03925448   0.300  18.541  60.147
    1STR   C04025449   0.287  18.657   0.069
    1STR   H04125450   0.193  18.653   0.125
    1STR   C04225451   0.406  18.666   0.166
    1STR   H04325452   0.501  18.665   0.113
    1STR   H04425453   0.407  18.584   0.238
    1STR   H04525454   0.401  18.758   0.224
    1STR   C04625455   0.282  18.780  60.137
    1STR   H04725456   0.375  18.788  60.080
    1STR   H04825457   0.201  18.767  60.065
    1STR   O04925458   0.261  18.898   0.054
    1STR   C05025459   0.258  19.021  60.141
    1STR   H05125460   0.338  19.022  60.067
    1STR   C05225461   0.122  19.037  60.071
    1STR   H05325462   0.040  19.031  60.143
    1STR   H05425463   0.105  18.961  59.995
    1STR   H05525464   0.115  19.133  60.021
    1STR   C05625465   0.284  19.136   0.080
    1STR   H05725466   0.205  19.139   0.155
    1STR   H05825467   0.377  19.117   0.132
    1STR   O05925468   0.290  19.260   0.009
    1STR   C06025469   0.310  19.375   0.090
    1STR   H06125470   0.247  19.370   0.179
    1STR   C06225471   0.458  19.386   0.131
    1STR   H06325472   0.523  19.387   0.043
    1STR   H06425473   0.489  19.304   0.195
    1STR   H06525474   0.476  19.478   0.186
    1STR   C06625475   0.266  19.498   0.008
    1STR   H06725476   0.328  19.507  60.078
    1STR   H06825477   0.163  19.483  60.134
    1STR   O06925478   0.275  19.615   0.088
    1STR   C07025479   0.241  19.737   0.022
    1STR   H07125480   0.285  19.739  60.082
    1STR   C07225481   0.088  19.750   0.013
    1STR   H07325482   0.042  19.743   0.111
    1STR   H07425483   0.044  19.673  60.109
    1STR   H07525484   0.060  19.846  60.130
    1STR   C07625485   0.302  19.852   0.103
    1STR   H07725486   0.259  19.854   0.203
    1STR   H07825487   0.409  19.835   0.114
    1STR   O07925488   0.278  19.976   0.036
    1STR   C08025489   0.327  20.092   0.103
    1STR   H08125490   0.304  20.086   0.209
    1STR   C08225491   0.479  20.105   0.081
    1STR   H08325492   0.503  20.106  60.135
    1STR   H08425493   0.534  20.023   0.128
    1STR   H08525494   0.516  20.198   0.125
    1STR   C08625495   0.252  20.213   0.045
    1STR   H08725496   0.273  20.223  60.099
    1STR   H08825497   0.144  20.196   0.055
    1STR   O08925498   0.290  20.331   0.116
    1STR   C09025499   0.230  20.451   0.070
    1STR   H09125500   0.231  20.454  60.121
    1STR   C09225501   0.086  20.462   0.122
    1STR   H09325502   0.084  20.455   0.231
    1STR   H09425503   0.022  20.384   0.082
    1STR   H09525504   0.042  20.558   0.095
    1STR   C09625505   0.317  20.568   0.120
    1STR   H09725506   0.318  20.569   0.229
    1STR   H09825507   0.420  20.552   0.087
    1STR   O09925508   0.267  20.691   0.068
    1STR   C10025509   0.336  20.807   0.111
    1STR   H10125510   0.358  20.801   0.218
    1STR   C10225511   0.466  20.823   0.031
    1STR   H10325512   0.447  20.824  60.084
    1STR   H10425513   0.537  20.742   0.051
    1STR   H10525514   0.516  20.916   0.056
    1STR   C10625515   0.242  20.927   0.089
    1STR   H10725516   0.219  20.937  60.143
    1STR   H10825517   0.148  20.908   0.140
    1STR   O10925518   0.304  21.046   0.139
    1STR   C11025519   0.228  21.165   0.121
    1STR   H11125520   0.185  21.168   0.020
    1STR   C11225521   0.117  21.174   0.227
    1STR   H11325522   0.159  21.166   0.327
    1STR   H11425523   0.043  21.095   0.215
    1STR   H11525524   0.064  21.269   0.219
    1STR   C11625525   0.326  21.283   0.133
    1STR   H11725526   0.371  21.285   0.232
    1STR   H11825527   0.408  21.269   0.061
    1STR   O11925528   0.257  21.405   0.106
    1STR   C12025529   0.336  21.523   0.117
    1STR   H12125530   0.399  21.518   0.206
    1STR   C12225531   0.423  21.540  60.152
    1STR   H12325532   0.362  21.541  60.062
    1STR   H12425533   0.497  21.461  60.142
    1STR   H12525534   0.478  21.635  60.156
    1STR   C12625535   0.239  21.641   0.135
    1STR   H12725536   0.176  21.651   0.047
    1STR   H12825537   0.174  21.621   0.220
    1STR   O12925538   0.314  21.761   0.157
    1STR   C13025539   0.236  21.879   0.171
    1STR   H13125540   0.156  21.880   0.096
    1STR   C13225541   0.176  21.886   0.312
    1STR   H13325542   0.254  21.879   0.388
    1STR   H13425543   0.105  21.806   0.331
    1STR   H13525544   0.123  21.980   0.327
    1STR   C13625545   0.328  21.998   0.143
    1STR   H13725546   0.409  22.001   0.217
    1STR   H13825547   0.375  21.985   0.046
    1STR   O13925548   0.253  22.119   0.147
    1STR   C14025549   0.328  22.238   0.127
    1STR   H14125550   0.421  22.234   0.183
    1STR   C14225551   0.357  22.257  60.137
    1STR   H14325552   0.265  22.256  60.078
    1STR   H14425553   0.422  22.179  60.098
    1STR   H14525554   0.407  22.352  60.119
    1STR   C14625555   0.244  22.355   0.182
    1STR   H14725556   0.150  22.363   0.127
    1STR   H14825557   0.218  22.334   0.286
    1STR   O14925558   0.319  22.476   0.173
    1STR   C15025559   0.251  22.593   0.217
    1STR   H15125560   0.148  22.593   0.181
    1STR   C15225561   0.253  22.599   0.371
    1STR   H15325562   0.355  22.594   0.409
    1STR   H15425563   0.196  22.518   0.416
    1STR   H15525564   0.209  22.692   0.406
    1STR   C15625565   0.323  22.713   0.155
    1STR   H15725566   0.426  22.718   0.191
    1STR   H15825567   0.327  22.701   0.047
    1STR   O15925568   0.253  22.833   0.189
    1STR   C16025569   0.312  22.953   0.141
    1STR   H16125570   0.420  22.951   0.156
    1STR   C16225571   0.279  22.972  60.152
    1STR   H16325572   0.171  22.970  60.136
    1STR   H16425573   0.324  22.895  60.090
    1STR   H16525574   0.316  23.068  60.116
    1STR   C16625575   0.256  23.069   0.226
    1STR   H16725576   0.148  23.075   0.213
    1STR   H16825577   0.274  23.047   0.331
    1STR   O16925578   0.319  23.191   0.188
    1STR   C17025579   0.273  23.307   0.256
    1STR   H17125580   0.164  23.305   0.264
    1STR   C17225581   0.336  23.313   0.396
    1STR   H17325582   0.444  23.310   0.391
    1STR   H17425583   0.303  23.231   0.460
    1STR   H17525584   0.308  23.406   0.447
    1STR   C17625585   0.312  23.429   0.171
    1STR   H17725586   0.420  23.434   0.163
    1STR   H17825587   0.272  23.416   0.071
    1STR   O17925588   0.259  23.547   0.231
    1STR   C18025589   0.292  23.668   0.164
    1STR   H18125590   0.397  23.668   0.134
    1STR   C18225591   0.202  23.686   0.041
    1STR   H18325592   0.097  23.682   0.068
    1STR   H18425593   0.220  23.609  60.125
    1STR   H18525594   0.220  23.782  60.153
    1STR   C18625595   0.273  23.783   0.265
    1STR   H18725596   0.168  23.787   0.296
    1STR   H18825597   0.332  23.762   0.354
    1STR   O18925598   0.313  23.906   0.205
    1STR   C19025599   0.296  24.021   0.287
    1STR   H19125600   0.200  24.018   0.338
    1STR   C19225601   0.410  24.029   0.390
    1STR   H19325602   0.507  24.028   0.342
    1STR   H19425603   0.407  23.947   0.462
    1STR   H19525604   0.403  24.121   0.448
    1STR   C19625605   0.296  24.143   0.194
    1STR   H19725606   0.392  24.151   0.143
    1STR   H19825607   0.220  24.130   0.118
    1STR   O19925608   0.270  24.261   0.270
    1STR   C20025609   0.272  24.383   0.196
    1STR   H20125610   0.356  24.384   0.127
    1STR   C20225611   0.139  24.398   0.119
    1STR   H20325612   0.054  24.393   0.187
    1STR   H20425613   0.127  24.322   0.043
    1STR   H20525614   0.135  24.495   0.069
    1STR   C20625615   0.292  24.497   0.297
    1STR   H20725616   0.209  24.500   0.367
    1STR   H20825617   0.382  24.478   0.355
    1STR   O20925618   0.303  24.621   0.227
    1STR   C21025619   0.319  24.736   0.309
    1STR   H21125620   0.251  24.731   0.394
    1STR   C21225621   0.464  24.746   0.358
    1STR   H21325622   0.534  24.746   0.274
    1STR   H21425623   0.491  24.664   0.424
    1STR   H21525624   0.480  24.838   0.414
    1STR   C21625625   0.280  24.858   0.224
    1STR   H21725626   0.347  24.867   0.139
    1STR   H21825627   0.180  24.844   0.184
    1STR   O21925628   0.285  24.976   0.305
    1STR   C22025629   0.254  25.098   0.237
    1STR   H22125630   0.303  25.100   0.139
    1STR   C22225631   0.102  25.111   0.220
    1STR   H22325632   0.051  25.104   0.316
    1STR   H22425633   0.061  25.034   0.154
    1STR   H22525634   0.076  25.207   0.176
    1STR   C22625635   0.311  25.213   0.321
    1STR   H22725636   0.263  25.215   0.419
    1STR   H22825637   0.418  25.195   0.338
    1STR   O22925638   0.291  25.337   0.253
    1STR   C23025639   0.337  25.453   0.323
    1STR   H23125640   0.308  25.447   0.428
    1STR   C23225641   0.489  25.465   0.310
    1STR   H23325642   0.520  25.465   0.205
    1STR   H23425643   0.541  25.383   0.359
    1STR   H23525644   0.525  25.557   0.355
    1STR   C23625645   0.265  25.575   0.261
    1STR   H23725646   0.292  25.584   0.156
    1STR   H23825647   0.158  25.558   0.265
    1STR   O23925648   0.301  25.693   0.333
    1STR   C24025649   0.243  25.814   0.284
    1STR   H24125650   0.249  25.817   0.175
    1STR   C24225651   0.096  25.823   0.329
    1STR   H24325652   0.088  25.815   0.438
    1STR   H24425653   0.034  25.746   0.285
    1STR   H24525654   0.053  25.919   0.300
    1STR   C24625655   0.326  25.931   0.339
    1STR   H24725656   0.322  25.932   0.448
    1STR   H24825657   0.431  25.915   0.312
    1STR   O24925658   0.278  26.055   0.286
    1STR   C25025659   0.347  26.172   0.332
    1STR   H25125660   0.363  26.166   0.439
    1STR   C25225661   0.481  26.185   0.259
    1STR   H25325662   0.468  26.185   0.151
    1STR   H25425663   0.550  26.104   0.284
    1STR   H25525664   0.531  26.278   0.286
    1STR   C25625665   0.256  26.293   0.304
    1STR   H25725666   0.238  26.302   0.197
    1STR   H25825667   0.159  26.276   0.351
    1STR   O25925668   0.315  26.413   0.355
    1STR   C26025669   0.241  26.533   0.335
    1STR   H26125670   0.203  26.536   0.232
    1STR   C26225671   0.124  26.539   0.434
    1STR   H26325672   0.159  26.530   0.537
    1STR   H26425673   0.051  26.460   0.417
    1STR   H26525674   0.071  26.634   0.426
    1STR   C26625675   0.336  26.653   0.353
    1STR   H26725676   0.376  26.653   0.455
    1STR   H26825677   0.421  26.640   0.286
    1STR   O26925678   0.269  26.777   0.325
    1STR   C27025679   0.348  26.895   0.339
    1STR   H27125680   0.406  26.890   0.431
    1STR   C27225681   0.442  26.909   0.218
    1STR   H27325682   0.386  26.907   0.125
    1STR   H27425683   0.516  26.829   0.215
    1STR   H27525684   0.497  27.003   0.223
    1STR   C27625685   0.253  27.017   0.350
    1STR   H27725686   0.193  27.025   0.259
    1STR   H27825687   0.183  26.999   0.432
    1STR   O27925688   0.326  27.139   0.372
    1STR   C28025689   0.247  27.258   0.385
    1STR   H28125690   0.171  27.261   0.307
    1STR   C28225691   0.180  27.261   0.523
    1STR   H28325692   0.254  27.251   0.603
    1STR   H28425693   0.107  27.181   0.535
    1STR   H28525694   0.127  27.355   0.539
    1STR   C28625695   0.339  27.382   0.365
    1STR   H28725696   0.416  27.384   0.442
    1STR   H28825697   0.389  27.372   0.269
    1STR   O28925698   0.264  27.505   0.369
    1STR   C29025699   0.338  27.627   0.349
    1STR   H29125700   0.428  27.625   0.411
    1STR   C29225701   0.377  27.639   0.201
    1STR   H29325702   0.289  27.633   0.136
    1STR   H29425703   0.447  27.561   0.170
    1STR   H29525704   0.426  27.734   0.181
    1STR   C29625705   0.252  27.749   0.393
    1STR   H29725706   0.159  27.750   0.336
    1STR   H29825707   0.224  27.734   0.498
    1STR   O29925708   0.320  27.875   0.378
    1STR   C30025709   0.247  27.993   0.417
    1STR   H30125710   0.145  27.985   0.380
    1STR   C30225711   0.247  28.003   0.570
    1STR   H30325712   0.349  27.999   0.610
    1STR   H30425713   0.191  27.922   0.617
    1STR   H30525714   0.202  28.096   0.603
    1STR   C30625715   0.310  28.120   0.352
    1STR   H30725716   0.407  28.141   0.398
    1STR   H30825717   0.330  28.095   0.248
    1STR   O30925718   0.224  28.236   0.359
    1STR    H1R25719   0.370  28.382   0.336
    1STR    H1S25720   0.308  28.431   0.094
    1STR    H1T25721   0.185  28.305   0.103
    1STR    H1U25722   0.357  28.265   0.116
    1STR    H1V25723   0.167  28.494   0.432
    1STR    H1W25724   0.076  28.459   0.288
    1STR    H1X25725   0.314  28.788   0.222
    1STR    H1Y25726   0.396  28.991   0.215
    1STR    H1Z25727   0.403  29.211   0.114
    1STR    H2025728   0.189  29.328  60.007
    1STR    H2125729   0.190  29.412   0.003
    1STR    H2225730   0.339  29.349  60.094
    1STR    H2325731  60.113  29.103  60.009
    1STR    H2725732   0.005  28.923   0.045
    1STR    H2825733   0.416  16.371   0.021
    1STR    H2925734   0.449  16.136   0.058
    1STR    H2A25735   0.191  15.882   0.080
    1STR    H2B25736   0.353  15.930   0.124
    1STR    H2C25737   0.322  15.875  60.120
    1STR   BCK125738  60.014  15.891  14.943
    1STR    O0325739  59.904  15.883  14.998
    1STR    N0425740  60.069  16.008  14.906
    1STR    C0525741  59.996  16.120  14.864
    1STR    C0625742  60.014  16.252  14.916
    1STR    C0725743  59.943  16.365  14.863
    1STR    N0825744  59.965  16.498  14.909
    1STR    C0925745  59.901  16.613  14.876
    1STR    O0A25746  59.802  16.618  14.803
    1STR    O0B25747  59.955  16.726  14.931
    1STR    C0C25748  59.894  16.854  14.902
    1STR    C0D25749  59.769  16.873  14.990
    1STR    C0E25750  59.990  16.975  14.917
    1STR    O0F25751  59.921  17.095  14.878
    1STR    C0G25752  59.996  17.217  14.882
    1STR    C0H25753  60.087  17.226  14.759
    1STR    C0I25754  59.898  17.337  14.885
    1STR    O0J25755  59.970  17.461  14.896
    1STR    C0K25756   0.008  28.346  14.584
    1STR    C0M25757  60.068  28.349  14.701
    1STR    C0N25758   0.104  28.467  14.593
    1STR    O0O25759   0.046  28.589  14.543
    1STR    C0P25760   0.013  28.693  14.623
    1STR    O0Q25761   0.025  28.697  14.745
    1STR    N0R25762  60.119  28.791  14.549
    1STR    C0S25763  60.041  28.901  14.586
    1STR    C0T25764  59.913  28.907  14.529
    1STR    C0U25765  59.823  29.008  14.564
    1STR    C0V25766  59.860  29.110  14.654
    1STR    C0W25767  59.750  29.201  14.705
    1STR    C0X25768  59.994  29.117  14.701
    1STR    N0Y25769  60.035  29.222  14.785
    1STR   BCK225770  60.019  29.356  14.776
    1STR    O1025771  60.044  29.426  14.873
    1STR    C1325772  60.082  29.008  14.672
    1STR    C1425773  59.853  16.339  14.757
    1STR    C1525774  59.837  16.211  14.703
    1STR    C1625775  59.909  16.102  14.753
    1STR    C1725776  59.896  15.969  14.681
    1STR    H1B25777   0.007  16.005  14.883
    1STR    H1C25778  60.083  16.267  14.998
    1STR    H1D25779  60.037  16.513  14.977
    1STR    H1E25780  59.863  16.854  14.798
    1STR    H1F25781  59.794  16.876  15.096
    1STR    H1G25782  59.718  16.966  14.965
    1STR    H1H25783  59.697  16.792  14.975
    1STR    H1I25784  60.078  16.959  14.854
    1STR    H1J25785  60.025  16.983  15.020
    1STR    H1K25786  60.056  17.221  14.973
    1STR    H1M25787  60.030  17.219  14.667
    1STR    H1N25788   0.002  17.147  14.758
    1STR    H1O25789  60.141  17.321  14.757
    1STR    H1P25790  59.837  17.338  14.794
    1STR    H1Q25791  59.829  17.325  14.969
    1STR   C01025792  59.892  17.581  14.894
    1STR   H01125793  59.818  17.576  14.814
    1STR   C01225794  59.821  17.599  15.029
    1STR   H01325795  59.892  17.600  15.112
    1STR   H01425796  59.747  17.522  15.049
    1STR   H01525797  59.768  17.695  15.032
    1STR   C01625798  59.986  17.699  14.865
    1STR   H01725799  60.062  17.706  14.942
    1STR   H01825800  60.038  17.680  14.771
    1STR   O01925801  59.913  17.822  14.856
    1STR   C02025802  59.991  17.940  14.833
    1STR   H02125803  60.080  17.938  14.896
    1STR   C02225804  60.032  17.947  14.685
    1STR   H02325805  59.944  17.945  14.621
    1STR   H02425806  60.097  17.866  14.656
    1STR   H02525807  60.085  18.040  14.665
    1STR   C02625808  59.908  18.063  14.874
    1STR   H02725809  59.818  18.069  14.813
    1STR   H02825810  59.875  18.051  14.978
    1STR   O02925811  59.986  18.182  14.860
    1STR   C03025812  59.919  18.304  14.891
    1STR   H03125813  59.819  18.304  14.848
    1STR   C03225814  59.911  18.322  15.043
    1STR   H03325815  60.010  18.318  15.089
    1STR   H03425816  59.849  18.246  15.091
    1STR   H03525817  59.867  18.419  15.068
    1STR   C03625818  59.998  18.419  14.826
    1STR   H03725819  60.099  18.424  14.867
    1STR   H03825820  60.008  18.400  14.719
    1STR   O03925821  59.930  18.543  14.847
    1STR   C04025822  59.995  18.659  14.795
    1STR   H04125823  60.102  18.655  14.817
    1STR   C04225824  59.972  18.668  14.643
    1STR   H04325825  59.866  18.667  14.619
    1STR   H04425826  60.020  18.585  14.590
    1STR   H04525827  60.015  18.760  14.603
    1STR   C04625828  59.936  18.782  14.867
    1STR   H04725829  59.829  18.790  14.846
    1STR   H04825830  59.947  18.769  14.974
    1STR   O04925831  60.004  18.900  14.824
    1STR   C05025832  59.957  19.022  14.880
    1STR   H05125833  59.848  19.023  14.881
    1STR   C05225834  60.010  19.038  15.024
    1STR   H05325835  60.119  19.032  15.026
    1STR   H05425836  59.971  18.962  15.091
    1STR   H05525837  59.982  19.134  15.065
    1STR   C05625838  60.005  19.137  14.790
    1STR   H05725839  60.114  19.140  14.788
    1STR   H05825840  59.972  19.118  14.688
    1STR   O05925841  59.952  19.260  14.837
    1STR   C06025842  59.992  19.376  14.764
    1STR   H06125843  60.099  19.371  14.742
    1STR   C06225844  59.911  19.387  14.634
    1STR   H06325845  59.804  19.387  14.655
    1STR   H06425846  59.932  19.305  14.566
    1STR   H06525847  59.935  19.479  14.581
    1STR   C06625848  59.969  19.498  14.855
    1STR   H06725849  59.863  19.508  14.878
    1STR   H06825850  60.022  19.483  14.949
    1STR   O06925851  60.017  19.616  14.789
    1STR   C07025852  59.997  19.737  14.861
    1STR   H07125853  59.897  19.740  14.905
    1STR   C07225854  60.104  19.751  14.971
    1STR   H07325855   0.044  19.744  14.930
    1STR   H07425856  60.094  19.674  15.048
    1STR   H07525857  60.095  19.847  15.021
    1STR   C07625858  60.007  19.853  14.760
    1STR   H07725859  60.106  19.854  14.715
    1STR   H07825860  59.935  19.835  14.679
    1STR   O07925861  59.979  19.976  14.825
    1STR   C08025862  59.988  20.092  14.743
    1STR   H08125863  60.077  20.086  14.680
    1STR   C08225864  59.862  20.105  14.656
    1STR   H08325865  59.772  20.106  14.718
    1STR   H08425866  59.853  20.024  14.585
    1STR   H08525867  59.864  20.198  14.599
    1STR   C08625868  60.005  20.213  14.836
    1STR   H08725869  59.917  20.223  14.900
    1STR   H08825870  60.091  20.196  14.902
    1STR   O08925871  60.024  20.331  14.758
    1STR   C09025872  60.037  20.452  14.833
    1STR   H09125873  59.963  20.454  14.913
    1STR   C09225874   0.019  20.462  14.891
    1STR   H09325875   0.094  20.455  14.813
    1STR   H09425876   0.039  20.385  14.965
    1STR   H09525877   0.033  20.558  14.941
    1STR   C09625878  60.007  20.568  14.737
    1STR   H09725879  60.080  20.569  14.656
    1STR   H09825880  59.909  20.552  14.692
    1STR   O09925881  60.009  20.691  14.809
    1STR   C10025882  59.987  20.808  14.731
    1STR   H10125883  60.043  20.802  14.637
    1STR   C10225884  59.837  20.823  14.702
    1STR   H10325885  59.779  20.824  14.794
    1STR   H10425886  59.798  20.742  14.640
    1STR   H10525887  59.817  20.916  14.649
    1STR   C10625888  60.041  20.927  14.811
    1STR   H10725889  59.986  20.937  14.905
    1STR   H10825890  60.145  20.908  14.836
    1STR   O10925891  60.030  21.046  14.732
    1STR   C11025892  60.073  21.165  14.797
    1STR   H11125893  60.037  21.168  14.900
    1STR   C11225894   0.066  21.173  14.793
    1STR   H11325895   0.104  21.166  14.691
    1STR   H11425896   0.113  21.095  14.852
    1STR   H11525897   0.101  21.268  14.835
    1STR   C11625898  60.009  21.283  14.722
    1STR   H11725899  60.043  21.285  14.618
    1STR   H11825900  59.901  21.269  14.719
    1STR   O11925901  60.042  21.405  14.788
    1STR   C12025902  59.991  21.523  14.726
    1STR   H12125903  60.005  21.518  14.618
    1STR   C12225904  59.842  21.540  14.760
    1STR   H12325905  59.826  21.541  14.868
    1STR   H12425906  59.781  21.461  14.717
    1STR   H12525907  59.805  21.635  14.720
    1STR   C12625908  60.075  21.641  14.779
    1STR   H12725909  60.062  21.651  14.887
    1STR   H12825910   0.020  21.621  14.760
    1STR   O12925911  60.035  21.761  14.712
    1STR   C13025912  60.102  21.879  14.755
    1STR   H13125913  60.110  21.880  14.864
    1STR   C13225914   0.081  21.886  14.690
    1STR   H13325915   0.075  21.879  14.582
    1STR   H13425916   0.146  21.806  14.725
    1STR   H13525917   0.130  21.980  14.715
    1STR   C13625918  60.015  21.998  14.712
    1STR   H13725919  60.005  22.001  14.604
    1STR   H13825920  59.914  21.985  14.753
    1STR   O13925921  60.073  22.119  14.761
    1STR   C14025922  60.004  22.238  14.725
    1STR   H14125923  59.973  22.234  14.620
    1STR   C14225924  59.881  22.257  14.816
    1STR   H14325925  59.909  22.256  14.921
    1STR   H14425926  59.807  22.179  14.801
    1STR   H14525927  59.832  22.352  14.795
    1STR   C14625928  60.103  22.355  14.741
    1STR   H14725929  60.135  22.363  14.845
    1STR   H14825930   0.032  22.334  14.681
    1STR   O14925931  60.041  22.476  14.697
    1STR   C15025932  60.122  22.593  14.710
    1STR   H15125933   0.013  22.593  14.806
    1STR   C15225934   0.064  22.599  14.595
    1STR   H15325935   0.015  22.594  14.498
    1STR   H15425936   0.136  22.518  14.601
    1STR   H15525937   0.120  22.692  14.599
    1STR   C15625938  60.027  22.713  14.707
    1STR   H15725939  59.975  22.718  14.611
    1STR   H15825940  59.951  22.701  14.784
    1STR   O15925941  60.101  22.833  14.729
    1STR   C16025942  60.025  22.953  14.725
    1STR   H16125943  59.955  22.951  14.641
    1STR   C16225944  59.949  22.972  14.857
    1STR   H16325945  60.017  22.970  14.942
    1STR   H16425946  59.874  22.895  14.873
    1STR   H16525947  59.897  23.068  14.859
    1STR   C16625948  60.124  23.069  14.700
    1STR   H16725949   0.035  23.075  14.783
    1STR   H16825950   0.022  23.047  14.610
    1STR   O16925951  60.052  23.191  14.686
    1STR   C17025952  60.132  23.307  14.667
    1STR   H17125953   0.058  23.305  14.734
    1STR   C17225954   0.020  23.313  14.521
    1STR   H17325955  60.096  23.310  14.451
    1STR   H17425956   0.087  23.231  14.496
    1STR   H17525957   0.075  23.406  14.502
    1STR   C17625958  60.046  23.429  14.703
    1STR   H17725959  59.960  23.434  14.636
    1STR   H17825960  60.007  23.416  14.804
    1STR   O17925961  60.125  23.547  14.694
    1STR   C18025962  60.055  23.668  14.722
    1STR   H18125963  59.958  23.667  14.673
    1STR   C18225964  60.039  23.686  14.873
    1STR   H18325965  60.135  23.682  14.924
    1STR   H18425966  59.974  23.609  14.917
    1STR   H18525967  59.993  23.782  14.896
    1STR   C18625968  60.138  23.783  14.661
    1STR   H18725969   0.076  23.787  14.708
    1STR   H18825970  60.154  23.762  14.555
    1STR   O18925971  60.068  23.906  14.677
    1STR   C19025972  60.135  24.021  14.628
    1STR   H19125973   0.081  24.017  14.656
    1STR   C19225974  60.121  24.029  14.475
    1STR   H19325975  60.016  24.028  14.445
    1STR   H19425976   0.012  23.946  14.425
    1STR   H19525977   0.005  24.121  14.437
    1STR   C19625978  60.072  24.143  14.697
    1STR   H19725979  59.967  24.151  14.670
    1STR   H19825980  60.077  24.130  14.805
    1STR   O19925981  60.143  24.261  14.658
    1STR   C20025982  60.092  24.382  14.712
    1STR   H20125983  59.983  24.384  14.706
    1STR   C20225984  60.138  24.398  14.858
    1STR   H20325985   0.086  24.393  14.866
    1STR   H20425986  60.095  24.322  14.923
    1STR   H20525987  60.107  24.495  14.898
    1STR   C20625988  60.145  24.497  14.624
    1STR   H20725989   0.094  24.500  14.628
    1STR   H20825990  60.118  24.478  14.520
    1STR   O20925991  60.089  24.620  14.668
    1STR   C21025992  60.133  24.736  14.597
    1STR   H21125993   0.081  24.731  14.580
    1STR   C21225994  60.060  24.746  14.463
    1STR   H21325995  59.952  24.746  14.477
    1STR   H21425996  60.084  24.663  14.396
    1STR   H21525997  60.086  24.838  14.411
    1STR   C21625998  60.105  24.858  14.686
    1STR   H21725999  59.998  24.867  14.703
    1STR   H21826000  60.152  24.843  14.783
    1STR   O21926001  60.156  24.975  14.623
    1STR   C22026002  60.133  25.097  14.694
    1STR   H22126003  60.031  25.099  14.732
    1STR   C22226004   0.073  25.110  14.809
    1STR   H22326005   0.176  25.103  14.773
    1STR   H22426006   0.059  25.033  14.885
    1STR   H22526007   0.062  25.207  14.859
    1STR   C22626008  60.147  25.212  14.593
    1STR   H22726009   0.089  25.214  14.553
    1STR   H22826010  60.080  25.194  14.509
    1STR   O22926011  60.116  25.336  14.657
    1STR   C23026012  60.130  25.452  14.575
    1STR   H23126013   0.062  25.446  14.516
    1STR   C23226014  60.008  25.464  14.481
    1STR   H23326015  59.915  25.465  14.538
    1STR   H23426016  60.003  25.382  14.409
    1STR   H23526017  60.013  25.557  14.424
    1STR   C23626018  60.141  25.573  14.668
    1STR   H23726019  60.050  25.583  14.728
    1STR   H23826020   0.063  25.556  14.738
    1STR   O23926021   0.004  25.691  14.591
    1STR   C24026022   0.013  25.812  14.666
    1STR   H24126023  60.095  25.815  14.743
    1STR   C24226024   0.152  25.822  14.732
    1STR   H24326025   0.231  25.814  14.658
    1STR   H24426026   0.168  25.745  14.807
    1STR   H24526027   0.163  25.918  14.783
    1STR   C24626028  60.148  25.929  14.569
    1STR   H24726029   0.065  25.930  14.492
    1STR   H24826030  60.053  25.913  14.519
    1STR   O24926031  60.147  26.052  14.641
    1STR   C25026032  60.128  26.169  14.562
    1STR   H25126033   0.029  26.163  14.471
    1STR   C25226034  59.979  26.183  14.525
    1STR   H25326035  59.917  26.183  14.614
    1STR   H25426036  59.945  26.102  14.460
    1STR   H25526037  59.962  26.276  14.471
    1STR   C25626038   0.017  26.290  14.644
    1STR   H25726039  60.117  26.299  14.735
    1STR   H25826040   0.120  26.271  14.675
    1STR   O25926041   0.008  26.409  14.565
    1STR   C26026042   0.049  26.529  14.631
    1STR   H26126043   0.008  26.531  14.732
    1STR   C26226044   0.202  26.536  14.636
    1STR   H26326045   0.246  26.527  14.536
    1STR   H26426046   0.245  26.457  14.698
    1STR   H26526047   0.235  26.631  14.678
    1STR   C26626048  60.150  26.648  14.553
    1STR   H26726049   0.029  26.648  14.451
    1STR   H26826050  60.042  26.634  14.545
    1STR   O26926051   0.020  26.771  14.619
    1STR   C27026052  60.132  26.889  14.555
    1STR   H27126053  60.151  26.884  14.448
    1STR   C27226054  59.981  26.904  14.581
    1STR   H27326055  59.959  26.903  14.688
    1STR   H27426056  59.923  26.824  14.534
    1STR   H27526057  59.944  26.998  14.540
    1STR   C27626058   0.050  27.009  14.611
    1STR   H27726059   0.033  27.018  14.719
    1STR   H27826060   0.157  26.990  14.598
    1STR   O27926061   0.012  27.130  14.545
    1STR   C28026062   0.078  27.249  14.589
    1STR   H28126063   0.081  27.251  14.698
    1STR   C28226064   0.221  27.253  14.532
    1STR   H28326065   0.220  27.244  14.423
    1STR   H28426066   0.283  27.174  14.572
    1STR   H28526067   0.270  27.347  14.557
    1STR   C28626068  60.156  27.371  14.542
    1STR   H28726069  60.151  27.373  14.433
    1STR   H28826070  60.054  27.360  14.578
    1STR   O28926071   0.053  27.494  14.590
    1STR   C29026072  60.145  27.614  14.553
    1STR   H29126073  60.120  27.611  14.447
    1STR   C29226074  60.017  27.629  14.637
    1STR   H29326075  60.039  27.625  14.744
    1STR   H29426076  59.944  27.551  14.615
    1STR   H29526077  59.968  27.724  14.617
    1STR   C29626078   0.080  27.734  14.577
    1STR   H29726079   0.109  27.738  14.682
    1STR   H29826080   0.171  27.717  14.520
    1STR   O29926081   0.020  27.859  14.537
    1STR   C30026082   0.100  27.977  14.554
    1STR   H30126083   0.149  27.973  14.652
    1STR   C30226084   0.206  27.982  14.443
    1STR   H30326085   0.160  27.976  14.344
    1STR   H30426086   0.279  27.901  14.451
    1STR   H30526087   0.262  28.076  14.448
    1STR   C30626088   0.010  28.103  14.552
    1STR   H30726089  60.124  28.113  14.453
    1STR   H30826090  60.088  28.086  14.623
    1STR   O30926091   0.082  28.222  14.586
    1STR    H1R26092  60.114  28.352  14.490
    1STR    H1S26093  60.019  28.446  14.708
    1STR    H1T26094  60.119  28.332  14.796
    1STR    H1U26095  59.990  28.274  14.692
    1STR    H1V26096   0.191  28.447  14.530
    1STR    H1W26097   0.143  28.480  14.694
    1STR    H1X26098  60.121  28.767  14.451
    1STR    H1Y26099  59.880  28.830  14.461
    1STR    H1Z26100  59.723  29.006  14.524
    1STR    H2026101  59.774  29.242  14.803
    1STR    H2126102  59.732  29.283  14.636
    1STR    H2226103  59.657  29.146  14.717
    1STR    H2326104  60.083  29.195  14.870
    1STR    H2726105   0.022  29.005  14.714
    1STR    H2826106  59.795  16.416  14.709
    1STR    H2926107  59.769  16.197  14.620
    1STR    H2A26108  59.994  15.924  14.665
    1STR    H2B26109  59.850  15.982  14.583
    1STR    H2C26110  59.834  15.901  14.739
    1STR   BCK126111  60.086  15.899  30.072
    1STR    O0326112   0.010  15.831  30.130
    1STR    N0426113  60.060  16.030  30.100
    1STR    C0526114  60.109  16.116  30.203
    1STR    C0626115  60.130  16.256  30.177
    1STR    C0726116   0.012  16.350  30.278
    1STR    N0826117   0.028  16.489  30.252
    1STR    C0926118   0.046  16.593  30.338
    1STR    O0A26119   0.050  16.582  30.460
    1STR    O0B26120   0.058  16.715  30.275
    1STR    C0C26121   0.086  16.835  30.352
    1STR    C0D26122   0.237  16.845  30.380
    1STR    C0E26123   0.034  16.965  30.283
    1STR    O0F26124   0.063  17.083  30.362
    1STR    C0G26125   0.014  17.208  30.310
    1STR    C0H26126  60.023  17.220  30.339
    1STR    C0I26127   0.089  17.329  30.374
    1STR    O0J26128   0.044  17.453  30.317
    1STR    C0K26129  59.845  28.349  30.399
    1STR    C0M26130  59.997  28.349  30.381
    1STR    C0N26131  59.782  28.467  30.318
    1STR    O0O26132  59.823  28.595  30.367
    1STR    C0P26133  59.838  28.702  30.283
    1STR    O0Q26134  59.827  28.697  30.161
    1STR    N0R26135  59.867  28.812  30.353
    1STR    C0S26136  59.902  28.944  30.315
    1STR    C0T26137  59.952  29.027  30.417
    1STR    C0U26138  60.001  29.155  30.388
    1STR    C0V26139  60.001  29.205  30.256
    1STR    C0W26140  60.075  29.335  30.230
    1STR    C0X26141  59.942  29.129  30.152
    1STR    N0Y26142  59.942  29.168  30.017
    1STR   BCK226143  59.910  29.278  29.945
    1STR    O1026144  59.922  29.272  29.823
    1STR    C1326145  59.896  28.997  30.183
    1STR    C1426146   0.038  16.296  30.406
    1STR    C1526147   0.014  16.161  30.435
    1STR    C1626148  60.127  16.072  30.337
    1STR    C1726149  60.090  15.933  30.386
    1STR    H1B26150  59.997  16.072  30.034
    1STR    H1C26151  60.114  16.293  30.078
    1STR    H1D26152   0.026  16.520  30.157
    1STR    H1E26153   0.034  16.828  30.448
    1STR    H1F26154   0.294  16.854  30.288
    1STR    H1G26155   0.259  16.933  30.441
    1STR    H1H26156   0.273  16.758  30.434
    1STR    H1I26157  60.087  16.955  30.268
    1STR    H1J26158   0.079  16.975  30.185
    1STR    H1K26159   0.032  17.213  30.203
    1STR    H1M26160  60.003  17.212  30.446
    1STR    H1N26161  59.965  17.143  30.289
    1STR    H1O26162  59.985  17.316  30.305
    1STR    H1P26163   0.073  17.329  30.482
    1STR    H1Q26164   0.196  17.317  30.358
    1STR   C01026165   0.099  17.574  30.370
    1STR   H01126166   0.100  17.569  30.480
    1STR   C01226167   0.243  17.593  30.319
    1STR   H01326168   0.246  17.593  30.210
    1STR   H01426169   0.310  17.515  30.354
    1STR   H01526170   0.284  17.688  30.352
    1STR   C01626171   0.010  17.693  30.328
    1STR   H01726172   0.006  17.699  30.219
    1STR   H01826173  60.068  17.675  30.363
    1STR   O01926174   0.059  17.817  30.382
    1STR   C02026175  60.146  17.935  30.346
    1STR   H02126176  60.123  17.932  30.239
    1STR   C02226177  60.016  17.943  30.428
    1STR   H02326178  60.037  17.941  30.535
    1STR   H02426179  59.948  17.861  30.405
    1STR   H02526180  59.963  18.036  30.406
    1STR   C02626181   0.075  18.059  30.372
    1STR   H02726182   0.100  18.065  30.478
    1STR   H02826183   0.168  18.048  30.317
    1STR   O02926184   0.007  18.178  30.330
    1STR   C03026185   0.077  18.301  30.353
    1STR   H03126186   0.121  18.300  30.452
    1STR   C03226187   0.186  18.319  30.246
    1STR   H03326188   0.144  18.316  30.146
    1STR   H03426189   0.263  18.243  30.253
    1STR   H03526190   0.235  18.416  30.258
    1STR   C03626191  60.135  18.417  30.348
    1STR   H03726192  60.088  18.421  30.249
    1STR   H03826193  60.055  18.397  30.420
    1STR   O03926194   0.040  18.541  30.378
    1STR   C04026195  60.117  18.657  30.372
    1STR   H04126196  60.053  18.653  30.283
    1STR   C04226197  60.030  18.666  30.499
    1STR   H04326198  60.092  18.665  30.589
    1STR   H04426199  59.959  18.584  30.506
    1STR   H04526200  59.972  18.758  30.499
    1STR   C04626201   0.048  18.780  30.359
    1STR   H04726202   0.113  18.788  30.446
    1STR   H04826203   0.113  18.767  30.272
    1STR   O04926204  60.129  18.898  30.344
    1STR   C05026205   0.042  19.021  30.335
    1STR   H05126206   0.123  19.022  30.408
    1STR   C05226207   0.099  19.037  30.193
    1STR   H05326208   0.020  19.031  30.118
    1STR   H05426209   0.173  18.960  30.170
    1STR   H05526210   0.148  19.133  30.182
    1STR   C05626211  60.106  19.136  30.369
    1STR   H05726212  60.024  19.139  30.297
    1STR   H05826213  60.061  19.117  30.467
    1STR   O05926214   0.017  19.260  30.370
    1STR   C06026215  60.098  19.375  30.396
    1STR   H06126216  60.004  19.370  30.341
    1STR   C06226217  60.069  19.386  30.547
    1STR   H06326218   0.002  19.387  30.604
    1STR   H06426219  60.008  19.304  30.583
    1STR   H06526220  60.016  19.478  30.570
    1STR   C06626221   0.016  19.498  30.345
    1STR   H06726222   0.110  19.507  30.400
    1STR   H06826223   0.041  19.483  30.240
    1STR   O06926224  60.097  19.615  30.362
    1STR   C07026225  60.159  19.737  30.322
    1STR   H07126226   0.103  19.739  30.357
    1STR   C07226227  60.155  19.750  30.169
    1STR   H07326228  60.053  19.743  30.132
    1STR   H07426229   0.054  19.673  30.119
    1STR   H07526230   0.035  19.847  30.137
    1STR   C07626231  60.084  19.852  30.390
    1STR   H07726232  59.980  19.854  30.356
    1STR   H07826233  60.082  19.835  30.498
    1STR   O07926234  60.149  19.976  30.360
    1STR   C08026235  60.086  20.092  30.415
    1STR   H08126236  59.978  20.086  30.402
    1STR   C08226237  60.120  20.105  30.564
    1STR   H08326238   0.068  20.106  30.579
    1STR   H08426239  60.079  20.023  30.623
    1STR   H08526240  60.080  20.198  30.605
    1STR   C08626241  60.137  20.213  30.335
    1STR   H08726242   0.085  20.223  30.347
    1STR   H08826243  60.118  20.196  30.229
    1STR   O08926244  60.070  20.331  30.379
    1STR   C09026245  60.111  20.451  30.316
    1STR   H09126246   0.059  20.454  30.306
    1STR   C09226247  60.045  20.462  30.177
    1STR   H09326248  59.937  20.455  30.184
    1STR   H09426249  60.080  20.384  30.109
    1STR   H09526250  60.069  20.558  30.130
    1STR   C09626251  60.068  20.568  30.407
    1STR   H09726252  59.960  20.569  30.417
    1STR   H09826253  60.110  20.552  30.506
    1STR   O09926254  60.115  20.691  30.352
    1STR   C10026255  60.079  20.808  30.425
    1STR   H10126256  59.975  20.802  30.456
    1STR   C10226257   0.010  20.823  30.547
    1STR   H10326258   0.115  20.824  30.518
    1STR   H10426259  60.156  20.742  30.619
    1STR   H10526260  60.149  20.916  30.600
    1STR   C10626261  60.093  20.927  30.329
    1STR   H10726262   0.037  20.937  30.297
    1STR   H10826263  60.033  20.908  30.240
    1STR   O10926264  60.049  21.046  30.395
    1STR   C11026265  60.060  21.165  30.318
    1STR   H11126266  60.156  21.168  30.266
    1STR   C11226267  59.944  21.173  30.217
    1STR   H11326268  59.848  21.166  30.267
    1STR   H11426269  59.949  21.095  30.142
    1STR   H11526270  59.947  21.268  30.163
    1STR   C11626271  60.057  21.283  30.417
    1STR   H11726272  59.961  21.285  30.470
    1STR   H11826273  60.135  21.269  30.492
    1STR   O11926274  60.077  21.405  30.346
    1STR   C12026275  60.072  21.523  30.425
    1STR   H12126276  59.989  21.518  30.496
    1STR   C12226277   0.045  21.540  30.501
    1STR   H12326278   0.130  21.541  30.432
    1STR   H12426279   0.062  21.461  30.574
    1STR   H12526280   0.046  21.635  30.556
    1STR   C12626281  60.046  21.641  30.330
    1STR   H12726282  60.128  21.651  30.259
    1STR   H12826283  59.956  21.621  30.273
    1STR   O12926284  60.031  21.761  30.406
    1STR   C13026285  60.010  21.879  30.330
    1STR   H13126286  60.077  21.880  30.244
    1STR   C13226287  59.864  21.885  30.283
    1STR   H13326288  59.795  21.879  30.368
    1STR   H13426289  59.839  21.805  30.214
    1STR   H13526290  59.844  21.980  30.232
    1STR   C13626291  60.046  21.998  30.420
    1STR   H13726292  59.980  22.001  30.506
    1STR   H13826293  60.147  21.985  30.457
    1STR   O13926294  60.036  22.119  30.344
    1STR   C14026295  60.063  22.238  30.417
    1STR   H14126296  60.015  22.234  30.515
    1STR   C14226297   0.054  22.257  30.433
    1STR   H14326298   0.104  22.256  30.337
    1STR   H14426299   0.099  22.179  30.495
    1STR   H14526300   0.077  22.352  30.482
    1STR   C14626301  60.000  22.355  30.339
    1STR   H14726302  60.047  22.363  30.241
    1STR   H14826303  59.894  22.334  30.323
    1STR   O14926304  60.016  22.476  30.413
    1STR   C15026305  59.965  22.593  30.349
    1STR   H15126306  59.993  22.593  30.244
    1STR   C15226307  59.813  22.599  30.365
    1STR   H15326308  59.783  22.594  30.470
    1STR   H15426309  59.763  22.518  30.312
    1STR   H15526310  59.774  22.692  30.324
    1STR   C15626311  60.033  22.713  30.416
    1STR   H15726312  60.007  22.718  30.521
    1STR   H15826313  60.142  22.701  30.410
    1STR   O15926314  59.993  22.833  30.349
    1STR   C16026315  60.046  22.953  30.403
    1STR   H16126316  60.042  22.951  30.512
    1STR   C16226317   0.032  22.972  30.357
    1STR   H16326318   0.039  22.970  30.249
    1STR   H16426319   0.098  22.895  30.397
    1STR   H16526320   0.071  23.068  30.391
    1STR   C16626321  59.957  23.069  30.355
    1STR   H16726322  59.961  23.075  30.246
    1STR   H16826323  59.854  23.047  30.382
    1STR   O16926324  60.001  23.191  30.414
    1STR   C17026325  59.928  23.307  30.374
    1STR   H17126326  59.911  23.305  30.266
    1STR   C17226327  59.794  23.313  30.449
    1STR   H17326328  59.810  23.310  30.557
    1STR   H17426329  59.728  23.231  30.423
    1STR   H17526330  59.742  23.406  30.426
    1STR   C17626331  60.016  23.428  30.406
    1STR   H17726332  60.035  23.434  30.513
    1STR   H17826333  60.113  23.416  30.357
    1STR   O17926334  59.952  23.547  30.359
    1STR   C18026335  60.022  23.668  30.385
    1STR   H18126336  60.061  23.667  30.487
    1STR   C18226337  60.137  23.686  30.285
    1STR   H18326338  60.100  23.682  30.182
    1STR   H18426339   0.054  23.609  30.296
    1STR   H18526340   0.026  23.782  30.299
    1STR   C18626341  59.920  23.783  30.375
    1STR   H18726342  59.880  23.787  30.273
    1STR   H18826343  59.836  23.762  30.442
    1STR   O18926344  59.983  23.906  30.410
    1STR   C19026345  59.900  24.021  30.400
    1STR   H19126346  59.841  24.017  30.308
    1STR   C19226347  59.807  24.029  30.522
    1STR   H19326348  59.864  24.028  30.615
    1STR   H19426349  59.736  23.946  30.526
    1STR   H19526350  59.749  24.121  30.521
    1STR   C19626351  59.992  24.143  30.392
    1STR   H19726352  60.052  24.151  30.483
    1STR   H19826353  60.062  24.130  30.310
    1STR   O19926354  59.914  24.261  30.373
    1STR   C20026355  59.988  24.383  30.368
    1STR   H20126356  60.065  24.384  30.445
    1STR   C20226357  60.053  24.398  30.229
    1STR   H20326358  59.978  24.393  30.150
    1STR   H20426359  60.128  24.322  30.210
    1STR   H20526360  60.103  24.495  30.221
    1STR   C20626361  59.890  24.497  30.397
    1STR   H20726362  59.812  24.500  30.320
    1STR   H20826363  59.840  24.478  30.492
    1STR   O20926364  59.961  24.621  30.402
    1STR   C21026365  59.880  24.736  30.425
    1STR   H21126366  59.790  24.731  30.364
    1STR   C21226367  59.844  24.746  30.574
    1STR   H21326368  59.933  24.746  30.636
    1STR   H21426369  59.780  24.664  30.606
    1STR   H21526370  59.790  24.838  30.594
    1STR   C21626371  59.962  24.858  30.379
    1STR   H21726372  60.053  24.867  30.438
    1STR   H21826373  59.992  24.843  30.275
    1STR   O21926374  59.881  24.976  30.390
    1STR   C22026375  59.946  25.097  30.354
    1STR   H22126376  60.048  25.099  30.394
    1STR   C22226377  59.950  25.110  30.201
    1STR   H22326378  59.850  25.103  30.158
    1STR   H22426379  60.012  25.033  30.154
    1STR   H22526380  59.992  25.207  30.172
    1STR   C22626381  59.867  25.212  30.418
    1STR   H22726382  59.766  25.214  30.379
    1STR   H22826383  59.860  25.195  30.525
    1STR   O22926384  59.934  25.336  30.392
    1STR   C23026385  59.868  25.452  30.444
    1STR   H23126386  59.761  25.446  30.425
    1STR   C23226387  59.894  25.464  30.595
    1STR   H23326388  60.001  25.465  30.616
    1STR   H23426389  59.850  25.382  30.651
    1STR   H23526390  59.852  25.557  30.634
    1STR   C23626391  59.923  25.573  30.367
    1STR   H23726392  60.030  25.583  30.385
    1STR   H23826393  59.910  25.557  30.260
    1STR   O23926394  59.854  25.691  30.408
    1STR   C24026395  59.898  25.812  30.347
    1STR   H24126396  60.007  25.815  30.343
    1STR   C24226397  59.840  25.822  30.205
    1STR   H24326398  59.732  25.815  30.206
    1STR   H24426399  59.879  25.745  30.139
    1STR   H24526400  59.866  25.918  30.160
    1STR   C24626401  59.851  25.929  30.435
    1STR   H24726402  59.742  25.930  30.440
    1STR   H24826403  59.887  25.913  30.537
    1STR   O24926404  59.900  26.052  30.383
    1STR   C25026405  59.860  26.169  30.454
    1STR   H25126406  59.754  26.163  30.480
    1STR   C25226407  59.945  26.183  30.582
    1STR   H25326408  60.051  26.184  30.559
    1STR   H25426409  59.926  26.103  30.653
    1STR   H25526410  59.921  26.277  30.634
    1STR   C25626411  59.880  26.290  30.361
    1STR   H25726412  59.985  26.300  30.334
    1STR   H25826413  59.825  26.272  30.269
    1STR   O25926414  59.833  26.409  30.425
    1STR   C26026415  59.848  26.529  30.349
    1STR   H26126416  59.946  26.532  30.302
    1STR   C26226417  59.738  26.536  30.241
    1STR   H26326418  59.639  26.528  30.285
    1STR   H26426419  59.748  26.458  30.166
    1STR   H26526420  59.742  26.631  30.188
    1STR   C26626421  59.838  26.649  30.446
    1STR   H26726422  59.740  26.649  30.494
    1STR   H26826423  59.912  26.635  30.525
    1STR   O26926424  59.860  26.772  30.376
    1STR   C27026425  59.853  26.890  30.456
    1STR   H27126426  59.766  26.885  30.522
    1STR   C27226427  59.981  26.905  30.539
    1STR   H27326428  60.070  26.904  30.475
    1STR   H27426429  59.993  26.825  30.613
    1STR   H27526430  59.981  26.999  30.594
    1STR   C27626431  59.833  27.011  30.362
    1STR   H27726432  59.919  27.019  30.294
    1STR   H27826433  59.746  26.992  30.300
    1STR   O27926434  59.817  27.132  30.437
    1STR   C28026435  59.798  27.251  30.360
    1STR   H28126436  59.869  27.253  30.277
    1STR   C28226437  59.654  27.255  30.305
    1STR   H28326438  59.581  27.246  30.386
    1STR   H28426439  59.635  27.175  30.233
    1STR   H28526440  59.635  27.349  30.254
    1STR   C28626441  59.826  27.374  30.450
    1STR   H28726442  59.757  27.375  30.534
    1STR   H28826443  59.926  27.362  30.493
    1STR   O28926444  59.817  27.496  30.376
    1STR   C29026445  59.843  27.617  30.450
    1STR   H29126446  59.790  27.614  30.545
    1STR   C29226447  59.994  27.631  30.475
    1STR   H29326448  60.049  27.627  30.381
    1STR   H29426449  60.032  27.552  30.540
    1STR   H29526450  60.016  27.726  30.523
    1STR   C29626451  59.788  27.737  30.369
    1STR   H29726452  59.838  27.741  30.272
    1STR   H29826453  59.683  27.719  30.348
    1STR   O29926454  59.805  27.862  30.438
    1STR   C30026455  59.756  27.979  30.371
    1STR   H30126456  59.786  27.974  30.266
    1STR   C30226457  59.603  27.983  30.382
    1STR   H30326458  59.571  27.978  30.486
    1STR   H30426459  59.555  27.902  30.328
    1STR   H30526460  59.564  28.076  30.340
    1STR   C30626461  59.821  28.106  30.432
    1STR   H30726462  59.787  28.119  30.535
    1STR   H30826463  59.928  28.091  30.435
    1STR   O30926464  59.790  28.224  30.354
    1STR    H1R26465  59.820  28.363  30.505
    1STR    H1S26466  60.040  28.446  30.406
    1STR    H1T26467  60.024  28.326  30.278
    1STR    H1U26468  60.047  28.276  30.445
    1STR    H1V26469  59.673  28.462  30.324
    1STR    H1W26470  59.807  28.455  30.213
    1STR    H1X26471  59.865  28.792  30.451
    1STR    H1Y26472  59.957  28.992  30.519
    1STR    H1Z26473  60.044  29.214  30.468
    1STR    H2026474  60.133  29.328  30.138
    1STR    H2126475  60.007  29.419  30.223
    1STR    H2226476  60.145  29.357  30.311
    1STR    H2326477  59.967  29.095  29.953
    1STR    H2726478  59.856  28.935  30.104
    1STR    H2826479   0.074  16.357  30.488
    1STR    H2926480   0.031  16.127  30.536
    1STR    H2A26481  60.007  15.892  30.330
    1STR    H2B26482  60.061  15.935  30.491
    1STR    H2C26483   0.016  15.867  30.377
    1STR   BCK126484  60.088  15.907  44.948
    1STR    O0326485  60.030  15.919  44.841
    1STR    N0426486   0.001  16.005  45.006
    1STR    C0526487   0.067  16.112  44.942
    1STR    C0626488   0.030  16.250  44.957
    1STR    C0726489   0.108  16.356  44.900
    1STR    N0826490   0.076  16.493  44.918
    1STR    C0926491   0.120  16.602  44.851
    1STR    O0A26492   0.190  16.596  44.750
    1STR    O0B26493   0.078  16.721  44.904
    1STR    C0C26494   0.113  16.846  44.839
    1STR    C0D26495   0.020  16.869  44.719
    1STR    C0E26496   0.110  16.969  44.934
    1STR    O0F26497   0.144  17.090  44.863
    1STR    C0G26498   0.145  17.212  44.938
    1STR    C0H26499   0.274  17.221  45.021
    1STR    C0I26500   0.134  17.334  44.842
    1STR    O0J26501   0.128  17.457  44.916
    1STR    C0K26502   0.406  28.352  45.060
    1STR    C0M26503   0.285  28.326  44.969
    1STR    C0N26504   0.381  28.485  45.139
    1STR    O0O26505   0.376  28.598  45.049
    1STR    C0P26506   0.293  28.705  45.066
    1STR    O0Q26507   0.207  28.717  45.153
    1STR    N0R26508   0.324  28.799  44.976
    1STR    C0S26509   0.282  28.930  44.946
    1STR    C0T26510   0.381  29.010  44.888
    1STR    C0U26511   0.353  29.141  44.848
    1STR    C0V26512   0.225  29.198  44.863
    1STR    C0W26513   0.212  29.342  44.822
    1STR    C0X26514   0.119  29.121  44.919
    1STR    N0Y26515  60.148  29.170  44.946
    1STR   BCK226516  60.059  29.266  44.911
    1STR    O1026517  59.956  29.273  44.977
    1STR    C1326518   0.151  28.987  44.962
    1STR    C1426519   0.223  16.318  44.827
    1STR    C1526520   0.261  16.184  44.812
    1STR    C1626521   0.185  16.081  44.870
    1STR    C1726522   0.235  15.938  44.859
    1STR    H1B26523   0.033  15.983  45.098
    1STR    H1C26524  60.102  16.273  45.015
    1STR    H1D26525   0.011  16.517  44.991
    1STR    H1E26526   0.216  16.838  44.802
    1STR    H1F26527  60.076  16.878  44.750
    1STR    H1G26528   0.047  16.960  44.665
    1STR    H1H26529   0.027  16.787  44.647
    1STR    H1I26530   0.180  16.953  45.016
    1STR    H1J26531   0.011  16.979  44.979
    1STR    H1K26532   0.058  17.215  45.005
    1STR    H1M26533   0.362  17.216  44.957
    1STR    H1N26534   0.281  17.142  45.095
    1STR    H1O26535   0.279  17.316  45.075
    1STR    H1P26536   0.220  17.335  44.774
    1STR    H1Q26537   0.045  17.323  44.780
    1STR   C01026538   0.123  17.578  44.839
    1STR   H01126539   0.196  17.574  44.759
    1STR   C01226540  60.142  17.597  44.781
    1STR   H01326541  60.066  17.597  44.859
    1STR   H01426542  60.116  17.519  44.709
    1STR   H01526543  60.134  17.692  44.728
    1STR   C01626544   0.160  17.697  44.931
    1STR   H01726545   0.089  17.703  45.014
    1STR   H01826546   0.258  17.678  44.975
    1STR   O01926547   0.161  17.820  44.858
    1STR   C02026548   0.191  17.938  44.934
    1STR   H02126549   0.136  17.935  45.028
    1STR   C02226550   0.342  17.946  44.961
    1STR   H02326551   0.399  17.943  44.868
    1STR   H02426552   0.377  17.864  45.024
    1STR   H02526553   0.367  18.038  45.013
    1STR   C02626554   0.143  18.061  44.855
    1STR   H02726555   0.196  18.067  44.759
    1STR   H02826556   0.037  18.050  44.831
    1STR   O02926557   0.164  18.180  44.931
    1STR   C03026558   0.128  18.303  44.867
    1STR   H03126559   0.162  18.302  44.763
    1STR   C03226560  60.135  18.321  44.872
    1STR   H03326561  60.098  18.317  44.975
    1STR   H03426562  60.083  18.245  44.814
    1STR   H03526563  60.107  18.418  44.830
    1STR   C03626564   0.200  18.418  44.940
    1STR   H03726565   0.167  18.423  45.044
    1STR   H03826566   0.307  18.399  44.940
    1STR   O03926567   0.172  18.542  44.874
    1STR   C04026568   0.230  18.658  44.934
    1STR   H04126569   0.217  18.654  45.042
    1STR   C04226570   0.379  18.667  44.899
    1STR   H04326571   0.394  18.666  44.791
    1STR   H04426572   0.436  18.585  44.941
    1STR   H04526573   0.422  18.759  44.937
    1STR   C04626574   0.153  18.781  44.882
    1STR   H04726575   0.164  18.789  44.774
    1STR   H04826576   0.047  18.768  44.902
    1STR   O04926577   0.202  18.899  44.946
    1STR   C05026578   0.141  19.021  44.904
    1STR   H05126579   0.131  19.023  44.795
    1STR   C05226580   0.003  19.037  44.969
    1STR   H05326581   0.011  19.032  45.078
    1STR   H05426582  60.093  18.961  44.936
    1STR   H05526583  60.120  19.134  44.944
    1STR   C05626584   0.236  19.136  44.943
    1STR   H05726585   0.247  19.139  45.052
    1STR   H05826586   0.334  19.118  44.901
    1STR   O05926587   0.184  19.260  44.895
    1STR   C06026588   0.260  19.376  44.929
    1STR   H06126589   0.292  19.371  45.033
    1STR   C06226590   0.382  19.386  44.836
    1STR   H06326591   0.352  19.387  44.731
    1STR   H06426592   0.452  19.304  44.851
    1STR   H06526593   0.437  19.479  44.856
    1STR   C06626594   0.168  19.498  44.914
    1STR   H06726595   0.135  19.507  44.810
    1STR   H06826596   0.078  19.483  44.974
    1STR   O06926597   0.237  19.616  44.955
    1STR   C07026598   0.164  19.737  44.942
    1STR   H07126599   0.111  19.739  44.847
    1STR   C07226600   0.064  19.750  45.058
    1STR   H07326601   0.114  19.744  45.155
    1STR   H07426602  60.146  19.674  45.055
    1STR   H07526603   0.013  19.847  45.054
    1STR   C07626604   0.265  19.852  44.943
    1STR   H07726605   0.319  19.854  45.038
    1STR   H07826606   0.339  19.835  44.865
    1STR   O07926607   0.198  19.976  44.921
    1STR   C08026608   0.280  20.092  44.923
    1STR   H08126609   0.351  20.086  45.006
    1STR   C08226610   0.356  20.105  44.790
    1STR   H08326611   0.287  20.106  44.705
    1STR   H08426612   0.426  20.024  44.774
    1STR   H08526613   0.413  20.198  44.787
    1STR   C08626614   0.189  20.213  44.948
    1STR   H08726615   0.118  20.223  44.866
    1STR   H08826616   0.131  20.196  45.039
    1STR   O08926617   0.269  20.331  44.961
    1STR   C09026618   0.195  20.451  44.980
    1STR   H09126619   0.109  20.454  44.913
    1STR   C09226620   0.150  20.462  45.126
    1STR   H09326621   0.235  20.455  45.195
    1STR   H09426622   0.078  20.384  45.153
    1STR   H09526623   0.101  20.558  45.145
    1STR   C09626624   0.288  20.568  44.942
    1STR   H09726625   0.375  20.569  45.007
    1STR   H09826626   0.325  20.552  44.840
    1STR   O09926627   0.216  20.691  44.950
    1STR   C10026628   0.293  20.808  44.921
    1STR   H10126629   0.391  20.802  44.968
    1STR   C10226630   0.308  20.823  44.769
    1STR   H10326631   0.211  20.824  44.719
    1STR   H10426632   0.367  20.742  44.725
    1STR   H10526633   0.359  20.916  44.744
    1STR   C10626634   0.218  20.927  44.982
    1STR   H10726635   0.120  20.937  44.935
    1STR   H10826636   0.201  20.909  45.088
    1STR   O10926637   0.295  21.046  44.963
    1STR   C11026638   0.235  21.165  45.012
    1STR   H11126639   0.129  21.168  44.986
    1STR   C11226640   0.251  21.174  45.165
    1STR   H11326641   0.356  21.167  45.193
    1STR   H11426642   0.197  21.095  45.217
    1STR   H11526643   0.213  21.269  45.202
    1STR   C11626644   0.304  21.283  44.942
    1STR   H11726645   0.410  21.285  44.967
    1STR   H11826646   0.297  21.269  44.834
    1STR   O11926647   0.241  21.405  44.980
    1STR   C12026648   0.298  21.523  44.925
    1STR   H12126649   0.407  21.518  44.929
    1STR   C12226650   0.251  21.540  44.779
    1STR   H12326651   0.142  21.541  44.772
    1STR   H12426652   0.288  21.461  44.714
    1STR   H12526653   0.287  21.635  44.738
    1STR   C12626654   0.253  21.641  45.012
    1STR   H12726655   0.144  21.651  45.009
    1STR   H12826656   0.280  21.621  45.116
    1STR   O12926657   0.315  21.761  44.966
    1STR   C13026658   0.279  21.879  45.037
    1STR   H13126659   0.171  21.880  45.055
    1STR   C13226660   0.355  21.886  45.170
    1STR   H13326661   0.463  21.879  45.155
    1STR   H13426662   0.326  21.805  45.238
    1STR   H13526663   0.335  21.980  45.222
    1STR   C13626664   0.314  21.998  44.947
    1STR   H13726665   0.421  22.001  44.928
    1STR   H13826666   0.264  21.985  44.850
    1STR   O13926667   0.270  22.119  45.009
    1STR   C14026668   0.300  22.238  44.937
    1STR   H14126669   0.402  22.234  44.897
    1STR   C14226670   0.199  22.257  44.823
    1STR   H14326671   0.097  22.256  44.860
    1STR   H14426672   0.208  22.179  44.747
    1STR   H14526673   0.215  22.352  44.772
    1STR   C14626674   0.293  22.355  45.037
    1STR   H14726675   0.192  22.363  45.078
    1STR   H14826676   0.360  22.334  45.121
    1STR   O14926677   0.331  22.476  44.972
    1STR   C15026678   0.325  22.593  45.053
    1STR   H15126679   0.234  22.593  45.113
    1STR   C15226680   0.448  22.599  45.145
    1STR   H15326681   0.541  22.594  45.087
    1STR   H15426682   0.450  22.518  45.218
    1STR   H15526683   0.450  22.692  45.202
    1STR   C15626684   0.320  22.714  44.958
    1STR   H15726685   0.411  22.718  44.898
    1STR   H15826686   0.236  22.701  44.890
    1STR   O15926687   0.304  22.833  45.035
    1STR   C16026688   0.302  22.953  44.959
    1STR   H16126689   0.380  22.951  44.882
    1STR   C16226690   0.164  22.972  44.894
    1STR   H16326691   0.085  22.970  44.969
    1STR   H16426692   0.142  22.895  44.820
    1STR   H16526693   0.158  23.068  44.843
    1STR   C16626694   0.335  23.069  45.055
    1STR   H16726695   0.259  23.075  45.133
    1STR   H16826696   0.430  23.047  45.105
    1STR   O16926697   0.343  23.191  44.982
    1STR   C17026698   0.370  23.307  45.060
    1STR   H17126699   0.310  23.305  45.151
    1STR   C17226700   0.519  23.313  45.095
    1STR   H17326701   0.581  23.310  45.005
    1STR   H17426702   0.550  23.231  45.160
    1STR   H17526703   0.542  23.406  45.148
    1STR   C17626704   0.326  23.428  44.977
    1STR   H17726705   0.385  23.434  44.885
    1STR   H17826706   0.222  23.416  44.947
    1STR   O17926707   0.342  23.547  45.055
    1STR   C18026708   0.308  23.668  44.988
    1STR   H18126709   0.348  23.667  44.886
    1STR   C18226710   0.156  23.686  44.985
    1STR   H18326711   0.113  23.682  45.085
    1STR   H18426712   0.107  23.609  44.924
    1STR   H18526713   0.129  23.782  44.941
    1STR   C18626714   0.376  23.783  45.065
    1STR   H18726715   0.337  23.787  45.167
    1STR   H18826716   0.483  23.762  45.072
    1STR   O18926717   0.354  23.906  44.996
    1STR   C19026718   0.408  24.021  45.060
    1STR   H19126719   0.390  24.018  45.167
    1STR   C19226720   0.559  24.029  45.032
    1STR   H19326721   0.580  24.028  44.925
    1STR   H19426722   0.614  23.947  45.078
    1STR   H19526723   0.601  24.121  45.073
    1STR   C19626724   0.335  24.143  45.003
    1STR   H19726725   0.352  24.151  44.895
    1STR   H19826726   0.227  24.130  45.017
    1STR   O19926727   0.379  24.261  45.070
    1STR   C20026728   0.321  24.383  45.024
    1STR   H20126729   0.317  24.384  44.915
    1STR   C20226730   0.180  24.398  45.082
    1STR   H20326731   0.181  24.393  45.191
    1STR   H20426732   0.111  24.322  45.045
    1STR   H20526733   0.137  24.495  45.055
    1STR   C20626734   0.413  24.497  45.069
    1STR   H20726735   0.419  24.500  45.178
    1STR   H20826736   0.514  24.478  45.032
    1STR   O20926737   0.364  24.621  45.017
    1STR   C21026738   0.439  24.736  45.055
    1STR   H21126739   0.465  24.731  45.161
    1STR   C21226740   0.566  24.746  44.969
    1STR   H21326741   0.543  24.746  44.863
    1STR   H21426742   0.635  24.664  44.988
    1STR   H21526743   0.620  24.838  44.991
    1STR   C21626744   0.348  24.858  45.034
    1STR   H21726745   0.321  24.867  44.929
    1STR   H21826746   0.256  24.843  45.090
    1STR   O21926747   0.415  24.976  45.079
    1STR   C22026748   0.343  25.097  45.062
    1STR   H22126749   0.295  25.100  44.964
    1STR   C22226750   0.236  25.110  45.173
    1STR   H22326751   0.281  25.103  45.272
    1STR   H22426752   0.159  25.034  45.165
    1STR   H22526753   0.186  25.207  45.166
    1STR   C22626754   0.444  25.213  45.069
    1STR   H22726755   0.493  25.215  45.166
    1STR   H22826756   0.522  25.195  44.994
    1STR   O22926757   0.378  25.337  45.043
    1STR   C23026758   0.461  25.452  45.049
    1STR   H23126759   0.527  25.447  45.136
    1STR   C23226760   0.543  25.464  44.920
    1STR   H23326761   0.479  25.465  44.832
    1STR   H23426762   0.614  25.383  44.909
    1STR   H23526763   0.601  25.557  44.920
    1STR   C23626764   0.369  25.574  45.068
    1STR   H23726765   0.301  25.584  44.983
    1STR   H23826766   0.306  25.558  45.156
    1STR   O23926767   0.447  25.692  45.084
    1STR   C24026768   0.373  25.813  45.100
    1STR   H24126769   0.291  25.816  45.029
    1STR   C24226770   0.320  25.823  45.244
    1STR   H24326771   0.401  25.815  45.317
    1STR   H24426772   0.247  25.746  45.266
    1STR   H24526773   0.270  25.919  45.260
    1STR   C24626774   0.468  25.931  45.067
    1STR   H24726775   0.552  25.931  45.137
    1STR   H24826776   0.510  25.915  44.968
    1STR   O24926777   0.396  26.054  45.073
    1STR   C25026778   0.474  26.171  45.047
    1STR   H25126779   0.569  26.165  45.099
    1STR   C25226780   0.498  26.185  44.895
    1STR   H25326781   0.404  26.185  44.841
    1STR   H25426782   0.560  26.104  44.856
    1STR   H25526783   0.550  26.278  44.873
    1STR   C25626784   0.397  26.293  45.102
    1STR   H25726785   0.301  26.302  45.051
    1STR   H25826786   0.375  26.275  45.207
    1STR   O25926787   0.474  26.412  45.086
    1STR   C26026788   0.412  26.532  45.133
    1STR   H26126789   0.308  26.535  45.101
    1STR   C26226790   0.420  26.539  45.286
    1STR   H26326791   0.523  26.530  45.320
    1STR   H26426792   0.362  26.460  45.334
    1STR   H26526793   0.381  26.633  45.323
    1STR   C26626794   0.485  26.652  45.068
    1STR   H26726795   0.589  26.653  45.098
    1STR   H26826796   0.483  26.639  44.960
    1STR   O26926797   0.422  26.776  45.105
    1STR   C27026798   0.481  26.894  45.050
    1STR   H27126799   0.589  26.889  45.060
    1STR   C27226800   0.442  26.908  44.902
    1STR   H27326801   0.334  26.907  44.890
    1STR   H27426802   0.484  26.829  44.841
    1STR   H27526803   0.479  27.002  44.861
    1STR   C27626804   0.431  27.016  45.132
    1STR   H27726805   0.323  27.024  45.125
    1STR   H27826806   0.454  26.998  45.237
    1STR   O27926807   0.494  27.138  45.088
    1STR   C28026808   0.456  27.257  45.159
    1STR   H28126809   0.348  27.259  45.172
    1STR   C28226810   0.525  27.259  45.296
    1STR   H28326811   0.634  27.250  45.285
    1STR   H28426812   0.491  27.179  45.361
    1STR   H28526813   0.505  27.353  45.348
    1STR   C28626814   0.496  27.381  45.074
    1STR   H28726815   0.604  27.382  45.059
    1STR   H28826816   0.451  27.370  44.976
    1STR   O28926817   0.454  27.504  45.136
    1STR   C29026818   0.483  27.625  45.065
    1STR   H29126819   0.587  27.623  45.031
    1STR   C29226820   0.389  27.638  44.943
    1STR   H29326821   0.285  27.632  44.974
    1STR   H29426822   0.407  27.560  44.869
    1STR   H29526823   0.404  27.733  44.893
    1STR   C29626824   0.467  27.747  45.160
    1STR   H29726825   0.365  27.750  45.198
    1STR   H29826826   0.532  27.732  45.246
    1STR   O29926827   0.497  27.872  45.095
    1STR   C30026828   0.484  27.992  45.174
    1STR   H30126829   0.391  27.986  45.231
    1STR   C30226830   0.604  28.002  45.270
    1STR   H30326831   0.698  27.997  45.215
    1STR   H30426832   0.604  27.923  45.344
    1STR   H30526833   0.602  28.097  45.324
    1STR   C30626834   0.474  28.116  45.080
    1STR   H30726835   0.571  28.133  45.032
    1STR   H30826836   0.405  28.089  45.001
    1STR   O30926837   0.429  28.238  45.146
    1STR    H1R26838   0.496  28.367  44.999
    1STR    H1S26839   0.260  28.415  44.911
    1STR    H1T26840   0.198  28.300  45.029
    1STR    H1U26841   0.302  28.246  44.897
    1STR    H1V26842   0.462  28.502  45.210
    1STR    H1W26843   0.290  28.478  45.198
    1STR    H1X26844   0.402  28.765  44.922
    1STR    H1Y26845   0.482  28.973  44.875
    1STR    H1Z26846   0.434  29.200  44.806
    1STR    H2026847   0.166  29.348  44.724
    1STR    H2126848   0.155  29.398  44.896
    1STR    H2226849   0.309  29.391  44.814
    1STR    H2326850  60.102  29.115  45.016
    1STR    H2726851   0.075  28.924  45.007
    1STR    H2826852   0.289  16.391  44.783
    1STR    H2926853   0.351  16.161  44.757
    1STR    H2A26854   0.240  15.892  44.957
    1STR    H2B26855   0.334  15.934  44.815
    1STR    H2C26856   0.167  15.880  44.797
    1STR   BCK126857  60.015  30.932  60.085
    1STR    O0326858  60.001  30.884   0.037
    1STR    N0426859  60.002  31.064  60.058
    1STR    C0526860  59.932  31.162  60.132
    1STR    C0626861  59.982  31.296  60.146
    1STR    C0726862  59.905  31.400   0.048
    1STR    N0826863  59.950  31.535   0.056
    1STR    C0926864  59.876  31.647   0.072
    1STR    O0A26865  59.753  31.648   0.077
    1STR    O0B26866  59.951  31.762   0.082
    1STR    C0C26867  59.886  31.887   0.116
    1STR    C0D26868  59.877  31.899   0.270
    1STR    C0E26869  59.957  32.012   0.056
    1STR    O0F26870  59.884  32.131   0.089
    1STR    C0G26871  59.933  32.255   0.034
    1STR    C0H26872  59.892  32.265  60.047
    1STR    C0I26873  59.876  32.375   0.114
    1STR    O0J26874  59.930  32.498   0.064
    1STR    C0K26875  59.791  43.372  59.871
    1STR    C0M26876  59.834  43.378  60.019
    1STR    C0N26877  59.845  43.495  59.795
    1STR    O0O26878  59.771  43.612  59.833
    1STR    C0P26879  59.831  43.731  59.855
    1STR    O0Q26880  59.951  43.753  59.845
    1STR    N0R26881  59.739  43.819  59.895
    1STR    C0S26882  59.754  43.948  59.948
    1STR    C0T26883  59.673  43.981  60.057
    1STR    C0U26884  59.688  44.104  60.123
    1STR    C0V26885  59.781  44.200  60.077
    1STR    C0W26886  59.806  44.321   0.005
    1STR    C0X26887  59.853  44.175  59.957
    1STR    N0Y26888  59.939  44.269  59.900
    1STR   BCK226889  59.919  44.394  59.854
    1STR    O1026890  60.007  44.449  59.790
    1STR    C1326891  59.844  44.046  59.897
    1STR    C1426892  59.781  31.363   0.104
    1STR    C1526893  59.729  31.234   0.088
    1STR    C1626894  59.801  31.135   0.019
    1STR    C1726895  59.729  31.004  60.152
    1STR    H1B26896  60.038  31.091  59.968
    1STR    H1C26897  60.079  31.320  60.106
    1STR    H1D26898  60.048  31.554   0.047
    1STR    H1E26899  59.785  31.888   0.076
    1STR    H1F26900  59.976  31.902   0.316
    1STR    H1G26901  59.824  31.990   0.298
    1STR    H1H26902  59.822  31.815   0.312
    1STR    H1I26903  59.962  31.999  60.108
    1STR    H1J26904  60.059  32.019   0.092
    1STR    H1K26905  60.042  32.258   0.043
    1STR    H1M26906  59.783  32.258  60.036
    1STR    H1N26907  59.936  32.187  59.985
    1STR    H1O26908  59.923  32.360  60.004
    1STR    H1P26909  59.767  32.376   0.107
    1STR    H1Q26910  59.901  32.363   0.220
    1STR   C01026911  59.881  32.619   0.124
    1STR   H01126912  59.772  32.614   0.134
    1STR   C01226913  59.945  32.638   0.263
    1STR   H01326914  60.053  32.638   0.256
    1STR   H01426915  59.915  32.560   0.333
    1STR   H01526916  59.914  32.733   0.306
    1STR   C01626917  59.915  32.738   0.031
    1STR   H01726918  60.023  32.744   0.018
    1STR   H01826919  59.872  32.719  60.093
    1STR   O01926920  59.864  32.861   0.085
    1STR   C02026921  59.893  32.978   0.009
    1STR   H02126922  59.997  32.976  60.136
    1STR   C02226923  59.800  32.986  60.046
    1STR   H02326924  59.696  32.984  60.077
    1STR   H02426925  59.817  32.905  59.976
    1STR   H02526926  59.817  33.079  59.992
    1STR   C02626927  59.875  33.102   0.100
    1STR   H02726928  59.772  33.108   0.134
    1STR   H02826929  59.938  33.090   0.188
    1STR   O02926930  59.911  33.221   0.029
    1STR   C03026931  59.895  33.343   0.100
    1STR   H03126932  59.800  33.343   0.154
    1STR   C03226933  60.011  33.361   0.200
    1STR   H03326934  60.107  33.358   0.149
    1STR   H03426935  60.011  33.285   0.278
    1STR   H03526936  60.004  33.458   0.250
    1STR   C03626937  59.891  33.459  60.158
    1STR   H03726938  59.986  33.463  60.103
    1STR   H03826939  59.813  33.439  60.085
    1STR   O03926940  59.867  33.583   0.065
    1STR   C04026941  59.865  33.699  60.142
    1STR   H04126942  59.948  33.695  60.071
    1STR   C04226943  59.731  33.707  60.067
    1STR   H04326944  59.647  33.707  60.136
    1STR   H04426945  59.718  33.625  59.997
    1STR   H04526946  59.726  33.800  60.009
    1STR   C04626947  59.886  33.822   0.072
    1STR   H04726948  59.805  33.830   0.144
    1STR   H04826949  59.978  33.808   0.129
    1STR   O04926950  59.894  33.940  60.152
    1STR   C05026951  59.910  34.062   0.064
    1STR   H05126952  59.843  34.063   0.151
    1STR   C05226953  60.056  34.078   0.109
    1STR   H05326954  60.124  34.072   0.024
    1STR   H05426955  60.085  34.001   0.181
    1STR   H05526956  60.071  34.174   0.157
    1STR   C05626957  59.867  34.177  60.131
    1STR   H05726958  59.932  34.180  60.043
    1STR   H05826959  59.766  34.158  60.095
    1STR   O05926960  59.873  34.300   0.042
    1STR   C06026961  59.839  34.416  60.126
    1STR   H06126962  59.886  34.411  60.027
    1STR   C06226963  59.687  34.427  60.111
    1STR   H06326964  59.638  34.427   0.048
    1STR   H06426965  59.645  34.344  60.053
    1STR   H06526966  59.659  34.519  60.060
    1STR   C06626967  59.897  34.538   0.039
    1STR   H06726968  59.851  34.548   0.137
    1STR   H06826969  60.004  34.523   0.054
    1STR   O06926970  59.874  34.656  60.121
    1STR   C07026971  59.919  34.777   0.020
    1STR   H07126972  59.894  34.780   0.126
    1STR   C07226973  60.071  34.790   0.003
    1STR   H07326974  60.099  34.784  60.057
    1STR   H07426975  60.126  34.714   0.057
    1STR   H07526976  60.106  34.887   0.040
    1STR   C07626977  59.845  34.893  60.111
    1STR   H07726978  59.869  34.895  60.005
    1STR   H07826979  59.737  34.875  60.119
    1STR   O07926980  59.880  35.016   0.013
    1STR   C08026981  59.820  35.132  60.116
    1STR   H08126982  59.824  35.126  60.007
    1STR   C08226983  59.675  35.145   0.003
    1STR   H08326984  59.669  35.146   0.112
    1STR   H08426985  59.612  35.064  60.127
    1STR   H08526986  59.630  35.238  60.127
    1STR   C08626987  59.904  35.253  60.159
    1STR   H08726988  59.902  35.263   0.108
    1STR   H08826989  60.008  35.236  60.131
    1STR   O08926990  59.854  35.371  60.096
    1STR   C09026991  59.921  35.492  60.131
    1STR   H09126992  59.940  35.494   0.079
    1STR   C09226993  60.054  35.502  60.054
    1STR   H09326994  60.037  35.495  59.947
    1STR   H09426995  60.124  35.424  60.083
    1STR   H09526996  60.102  35.598  60.074
    1STR   C09626997  59.827  35.608  60.097
    1STR   H09726998  59.807  35.609  59.990
    1STR   H09826999  59.731  35.592  60.147
    1STR   O09927000  59.886  35.731  60.139
    1STR   C10027001  59.810  35.848  60.109
    1STR   H10127002  59.769  35.842  60.008
    1STR   C10227003  59.695  35.863   0.051
    1STR   H10327004  59.733  35.864   0.153
    1STR   H10427005  59.622  35.782   0.043
    1STR   H10527006  59.641  35.956   0.035
    1STR   C10627007  59.906  35.967  60.115
    1STR   H10727008  59.947  35.977   0.056
    1STR   H10827009  59.990  35.948  60.048
    1STR   O10927010  59.837  36.086  60.076
    1STR   C11027011  59.914  36.205  60.081
    1STR   H11127012  59.974  36.208   0.012
    1STR   C11227013  60.005  36.214  59.957
    1STR   H11327014  59.947  36.207  59.865
    1STR   H11427015  60.080  36.135  59.956
    1STR   H11527016  60.058  36.308  59.955
    1STR   C11627017  59.816  36.323  60.086
    1STR   H11727018  59.755  36.325  59.996
    1STR   H11827019  59.748  36.309   0.011
    1STR   O11927020  59.888  36.445  60.101
    1STR   C12027021  59.809  36.563  60.103
    1STR   H12127022  59.731  36.558  60.026
    1STR   C12227023  59.745  36.580   0.082
    1STR   H12327024  59.820  36.581   0.160
    1STR   H12427025  59.674  36.501   0.105
    1STR   H12527026  59.690  36.675   0.088
    1STR   C12627027  59.901  36.681  60.069
    1STR   H12727028  59.979  36.691  60.144
    1STR   H12827029  59.950  36.661  59.974
    1STR   O12927030  59.824  36.801  60.060
    1STR   C13027031  59.898  36.919  60.033
    1STR   H13127032  59.990  36.920  60.092
    1STR   C13227033  59.932  36.926  59.883
    1STR   H13327034  59.842  36.919  59.822
    1STR   H13427035  59.999  36.845  59.852
    1STR   H13527036  59.982  37.020  59.859
    1STR   C13627037  59.812  37.038  60.076
    1STR   H13727038  59.720  37.041  60.017
    1STR   H13827039  59.783  37.025   0.020
    1STR   O13927040  59.886  37.159  60.059
    1STR   C14027041  59.815  37.278  60.092
    1STR   H14127042  59.714  37.274  60.053
    1STR   C14227043  59.813  37.297   0.085
    1STR   H14327044  59.913  37.296   0.127
    1STR   H14427045  59.756  37.219   0.135
    1STR   H14527046  59.766  37.392   0.112
    1STR   C14627047  59.888  37.395  60.023
    1STR   H14727048  59.990  37.403  60.061
    1STR   H14827049  59.895  37.374  59.917
    1STR   O14927050  59.816  37.516  60.046
    1STR   C15027051  59.875  37.633  59.990
    1STR   H15127052  59.982  37.633  60.008
    1STR   C15227053  59.846  37.639  59.839
    1STR   H15327054  59.739  37.634  59.819
    1STR   H15427055  59.894  37.557  59.784
    1STR   H15527056  59.883  37.732  59.796
    1STR   C15627057  59.815  37.754  60.063
    1STR   H15727058  59.707  37.758  60.046
    1STR   H15827059  59.830  37.741   0.010
    1STR   O15927060  59.878  37.873  60.017
    1STR   C16027061  59.828  37.993  60.075
    1STR   H16127062  59.719  37.991  60.080
    1STR   C16227063  59.887  38.012   0.056
    1STR   H16327064  59.996  38.010   0.054
    1STR   H16427065  59.853  37.935   0.125
    1STR   H16527066  59.856  38.108   0.098
    1STR   C16627067  59.869  38.109  59.982
    1STR   H16727068  59.977  38.115  59.976
    1STR   H16827069  59.832  38.087  59.881
    1STR   O16927070  59.813  38.231  60.030
    1STR   C17027071  59.847  38.347  59.955
    1STR   H17127072  59.952  38.345  59.928
    1STR   C17227073  59.760  38.353  59.828
    1STR   H17327074  59.654  38.350  59.852
    1STR   H17427075  59.781  38.271  59.759
    1STR   H17527076  59.779  38.446  59.773
    1STR   C17627077  59.823  38.469  60.045
    1STR   H17727078  59.717  38.474  60.073
    1STR   H17827079  59.879  38.456  60.138
    1STR   O17927080  59.864  38.587  59.977
    1STR   C18027081  59.843  38.708  60.049
    1STR   H18127082  59.745  38.707  60.097
    1STR   C18227083  59.954  38.726  60.155
    1STR   H18327084  60.053  38.722  60.109
    1STR   H18427085  59.949  38.649   0.072
    1STR   H18527086  59.944  38.822   0.045
    1STR   C18627087  59.845  38.822  59.947
    1STR   H18727088  59.943  38.827  59.898
    1STR   H18827089  59.771  38.802  59.869
    1STR   O18927090  59.816  38.945  60.012
    1STR   C19027091  59.818  39.061  59.929
    1STR   H19127092  59.904  39.057  59.862
    1STR   C19227093  59.688  39.069  59.847
    1STR   H19327094  59.601  39.068  59.912
    1STR   H19427095  59.679  38.986  59.776
    1STR   H19527096  59.685  39.161  59.789
    1STR   C19627097  59.834  39.183  60.021
    1STR   H19727098  59.748  39.191  60.088
    1STR   H19827099  59.923  39.170  60.083
    1STR   O19927100  59.847  39.301  59.941
    1STR   C20027101  59.858  39.422  60.014
    1STR   H20127102  59.788  39.423  60.097
    1STR   C20227103  60.002  39.438  60.067
    1STR   H20327104  60.074  39.433  59.985
    1STR   H20427105  60.028  39.362  60.140
    1STR   H20527106  60.015  39.535  60.116
    1STR   C20627107  59.821  39.537  59.919
    1STR   H20727108  59.891  39.540  59.835
    1STR   H20827109  59.722  39.517  59.877
    1STR   O20927110  59.822  39.660  59.990
    1STR   C21027111  59.792  39.776  59.912
    1STR   H21127112  59.844  39.771  59.816
    1STR   C21227113  59.640  39.786  59.889
    1STR   H21327114  59.586  39.786  59.983
    1STR   H21427115  59.602  39.703  59.828
    1STR   H21527116  59.616  39.878  59.836
    1STR   C21627117  59.845  39.898  59.988
    1STR   H21727118  59.794  39.907  60.084
    1STR   H21827119  59.951  39.883  60.010
    1STR   O21927120  59.827  40.015  59.910
    1STR   C22027121  59.869  40.137  59.971
    1STR   H22127122  59.837  40.139  60.076
    1STR   C22227123  60.022  40.150  59.962
    1STR   H22327124  60.055  40.143  59.858
    1STR   H22427125  60.073  40.073  60.019
    1STR   H22527126  60.054  40.246  60.001
    1STR   C22627127  59.798  40.252  59.898
    1STR   H22727128  59.828  40.254  59.793
    1STR   H22827129  59.690  40.234  59.900
    1STR   O22927130  59.829  40.375  59.962
    1STR   C23027131  59.772  40.491  59.901
    1STR   H23127132  59.782  40.485  59.792
    1STR   C23227133  59.624  40.503  59.941
    1STR   H23327134  59.612  40.504  60.049
    1STR   H23427135  59.564  40.422  59.901
    1STR   H23527136  59.582  40.596  59.902
    1STR   C23627137  59.853  40.612  59.949
    1STR   H23727138  59.845  40.622  60.058
    1STR   H23827139  59.959  40.596  59.927
    1STR   O23927140  59.806  40.730  59.884
    1STR   C24027141  59.871  40.851  59.922
    1STR   H24127142  59.884  40.854  60.031
    1STR   C24227143  60.008  40.862  59.853
    1STR   H24327144  59.997  40.854  59.744
    1STR   H24427145  60.077  40.784  59.885
    1STR   H24527146  60.055  40.957  59.875
    1STR   C24627147  59.779  40.967  59.883
    1STR   H24727148  59.765  40.969  59.775
    1STR   H24827149  59.681  40.952  59.928
    1STR   O24927150  59.835  41.091  59.928
    1STR   C25027151  59.761  41.207  59.894
    1STR   H25127152  59.726  41.201  59.791
    1STR   C25227153  59.641  41.222  59.989
    1STR   H25327154  59.673  41.223  60.094
    1STR   H25427155  59.569  41.141  59.977
    1STR   H25527156  59.588  41.315  59.970
    1STR   C25627157  59.856  41.328  59.906
    1STR   H25727158  59.891  41.338  60.008
    1STR   H25827159  59.943  41.310  59.843
    1STR   O25927160  59.788  41.447  59.864
    1STR   C26027161  59.865  41.566  59.872
    1STR   H26127162  59.920  41.569  59.966
    1STR   C26227163  59.963  41.574  59.754
    1STR   H26327164  59.910  41.566  59.659
    1STR   H26427165  60.038  41.495  59.757
    1STR   H26527166  60.016  41.669  59.754
    1STR   C26627167  59.767  41.685  59.872
    1STR   H26727168  59.711  41.686  59.778
    1STR   H26827169  59.695  41.671  59.952
    1STR   O26927170  59.838  41.808  59.889
    1STR   C27027171  59.758  41.926  59.888
    1STR   H27127172  59.685  41.920  59.807
    1STR   C27227173  59.687  41.941  60.023
    1STR   H27327174  59.758  41.941  60.105
    1STR   H27427175  59.614  41.862  60.041
    1STR   H27527176  59.632  42.036  60.027
    1STR   C27627177  59.851  42.045  59.859
    1STR   H27727178  59.925  42.054  59.939
    1STR   H27827179  59.906  42.026  59.767
    1STR   O27927180  59.775  42.166  59.848
    1STR   C28027181  59.850  42.285  59.824
    1STR   H28127182  59.939  42.286  59.888
    1STR   C28227183  59.892  42.290  59.676
    1STR   H28327184  59.805  42.282  59.610
    1STR   H28427185  59.961  42.210  59.650
    1STR   H28527186  59.942  42.384  59.653
    1STR   C28627187  59.762  42.406  59.861
    1STR   H28727188  59.673  42.407  59.798
    1STR   H28827189  59.729  42.394  59.964
    1STR   O28927190  59.836  42.527  59.846
    1STR   C29027191  59.764  42.647  59.876
    1STR   H29127192  59.665  42.644  59.832
    1STR   C29227193  59.753  42.664  60.029
    1STR   H29327194  59.851  42.661  60.076
    1STR   H29427195  59.692  42.586  60.074
    1STR   H29527196  59.706  42.759  60.054
    1STR   C29627197  59.840  42.766  59.813
    1STR   H29727198  59.941  42.772  59.855
    1STR   H29827199  59.852  42.747  59.707
    1STR   O29927200  59.770  42.889  59.834
    1STR   C30027201  59.833  43.006  59.781
    1STR   H30127202  59.940  43.005  59.802
    1STR   C30227203  59.810  43.011  59.629
    1STR   H30327204  59.704  43.006  59.605
    1STR   H30427205  59.860  42.930  59.577
    1STR   H30527206  59.848  43.105  59.587
    1STR   C30627207  59.772  43.130  59.850
    1STR   H30727208  59.666  43.137  59.828
    1STR   H30827209  59.780  43.116  59.958
    1STR   O30927210  59.840  43.251  59.812
    1STR    H1R27211  59.682  43.373  59.864
    1STR    H1S27212  59.806  43.474  60.063
    1STR    H1T27213  59.942  43.368  60.029
    1STR    H1U27214  59.787  43.301  60.079
    1STR    H1V27215  59.833  43.482  59.687
    1STR    H1W27216  59.952  43.507  59.812
    1STR    H1X27217  59.647  43.779  59.896
    1STR    H1Y27218  59.602  43.910  60.096
    1STR    H1Z27219  59.629  44.124   0.051
    1STR    H2027220  59.851  44.288   0.099
    1STR    H2127221  59.875  44.392  60.122
    1STR    H2227222  59.713  44.373   0.028
    1STR    H2327223  60.031  44.236  59.876
    1STR    H2727224  59.904  44.022  59.811
    1STR    H2827225  59.719  31.433   0.157
    1STR    H2927226  59.631  31.212   0.127
    1STR    H2A27227  59.754  30.965  60.053
    1STR    H2B27228  59.621  31.017  60.155
    1STR    H2C27229  59.756  30.930   0.067
    1STR   BCK127230   0.010  30.945  14.972
    1STR    O0327231   0.111  30.876  14.977
    1STR    N0427232   0.000  31.072  15.017
    1STR    C0527233   0.093  31.158  15.083
    1STR    C0627234   0.090  31.299  15.057
    1STR    C0727235   0.178  31.392  15.120
    1STR    N0827236   0.168  31.532  15.097
    1STR    C0927237   0.247  31.635  15.138
    1STR    O0A27238   0.350  31.621  15.203
    1STR    O0B27239   0.199  31.758  15.100
    1STR    C0C27240   0.275  31.878  15.131
    1STR    C0D27241   0.389  31.894  15.029
    1STR    C0E27242   0.186  32.006  15.134
    1STR    O0F27243   0.264  32.124  15.161
    1STR    C0G27244   0.192  32.249  15.169
    1STR    C0H27245   0.123  32.259  15.305
    1STR    C0I27246   0.288  32.369  15.149
    1STR    O0J27247   0.215  32.493  15.150
    1STR    C0K27248   0.058  43.395  15.451
    1STR    C0M27249   0.146  43.384  15.326
    1STR    C0N27250  60.115  43.510  15.431
    1STR    O0O27251   0.019  43.638  15.415
    1STR    C0P27252  60.130  43.735  15.331
    1STR    O0Q27253  60.036  43.722  15.254
    1STR    N0R27254   0.043  43.846  15.348
    1STR    C0S27255   0.047  43.975  15.290
    1STR    C0T27256   0.149  44.057  15.342
    1STR    C0U27257   0.174  44.184  15.289
    1STR    C0V27258   0.098  44.235  15.182
    1STR    C0W27259   0.144  44.366  15.121
    1STR    C0X27260  60.147  44.161  15.132
    1STR    N0Y27261  60.071  44.213  15.025
    1STR   BCK227262  60.017  44.336  15.009
    1STR    O1027263  60.006  44.418  15.099
    1STR    C1327264  60.126  44.028  15.185
    1STR    C1427265   0.274  31.339  15.210
    1STR    C1527266   0.277  31.202  15.239
    1STR    C1627267   0.186  31.112  15.181
    1STR    C1727268   0.189  30.970  15.235
    1STR    H1B27269  60.071  31.113  14.997
    1STR    H1C27270   0.018  31.336  14.986
    1STR    H1D27271   0.091  31.565  15.041
    1STR    H1E27272   0.318  31.867  15.230
    1STR    H1F27273   0.352  31.905  14.928
    1STR    H1G27274   0.450  31.981  15.053
    1STR    H1H27275   0.456  31.807  15.032
    1STR    H1I27276   0.109  31.993  15.210
    1STR    H1J27277   0.134  32.017  15.038
    1STR    H1K27278   0.118  32.253  15.089
    1STR    H1M27279   0.195  32.252  15.387
    1STR    H1N27280   0.048  32.181  15.320
    1STR    H1O27281   0.071  32.354  15.315
    1STR    H1P27282   0.364  32.370  15.227
    1STR    H1Q27283   0.341  32.358  15.054
    1STR   C01027284   0.291  32.614  15.138
    1STR   H01127285   0.378  32.610  15.204
    1STR   C01227286   0.337  32.633  14.993
    1STR   H01327287   0.252  32.633  14.924
    1STR   H01427288   0.406  32.555  14.961
    1STR   H01527289   0.389  32.728  14.981
    1STR   C01627290   0.203  32.733  15.183
    1STR   H01727291   0.114  32.739  15.121
    1STR   H01827292   0.169  32.715  15.285
    1STR   O01927293   0.276  32.857  15.177
    1STR   C02027294   0.203  32.975  15.213
    1STR   H02127295   0.104  32.972  15.167
    1STR   C02227296   0.188  32.983  15.366
    1STR   H02327297   0.286  32.981  15.415
    1STR   H02427298   0.129  32.901  15.406
    1STR   H02527299   0.139  33.076  15.395
    1STR   C02627300   0.277  33.099  15.158
    1STR   H02727301   0.377  33.105  15.202
    1STR   H02827302   0.290  33.088  15.051
    1STR   O02927303   0.203  33.218  15.187
    1STR   C03027304   0.263  33.341  15.145
    1STR   H03127305   0.369  33.340  15.170
    1STR   C03227306   0.245  33.359  14.994
    1STR   H03327307   0.139  33.356  14.966
    1STR   H03427308   0.297  33.283  14.936
    1STR   H03527309   0.284  33.456  14.962
    1STR   C03627310   0.197  33.457  15.223
    1STR   H03727311   0.091  33.461  15.200
    1STR   H03827312   0.206  33.437  15.330
    1STR   O03927313   0.260  33.581  15.190
    1STR   C04027314   0.205  33.697  15.252
    1STR   H04127315   0.096  33.693  15.249
    1STR   C04227316   0.253  33.706  15.398
    1STR   H04327317   0.362  33.705  15.403
    1STR   H04427318   0.216  33.624  15.459
    1STR   H04527319   0.219  33.798  15.444
    1STR   C04627320   0.250  33.820  15.171
    1STR   H04727321   0.359  33.828  15.173
    1STR   H04827322   0.221  33.807  15.067
    1STR   O04927323   0.191  33.938  15.225
    1STR   C05027324   0.228  34.060  15.162
    1STR   H05127325   0.335  34.062  15.142
    1STR   C05227326   0.150  34.077  15.030
    1STR   H05327327   0.043  34.071  15.047
    1STR   H05427328   0.177  34.000  14.957
    1STR   H05527329   0.172  34.173  14.984
    1STR   C05627330   0.196  34.176  15.259
    1STR   H05727331   0.089  34.179  15.280
    1STR   H05827332   0.247  34.157  15.354
    1STR   O05927333   0.240  34.299  15.203
    1STR   C06027334   0.213  34.415  15.282
    1STR   H06127335   0.112  34.410  15.323
    1STR   C06227336   0.316  34.426  15.396
    1STR   H06327337   0.418  34.426  15.357
    1STR   H06427338   0.307  34.344  15.467
    1STR   H06527339   0.301  34.518  15.452
    1STR   C06627340   0.220  34.538  15.189
    1STR   H06727341   0.320  34.547  15.147
    1STR   H06827342   0.152  34.523  15.105
    1STR   O06927343   0.185  34.655  15.262
    1STR   C07027344   0.191  34.777  15.188
    1STR   H07127345   0.282  34.779  15.127
    1STR   C07227346   0.067  34.790  15.098
    1STR   H07327347  60.136  34.783  15.156
    1STR   H07427348   0.064  34.713  15.021
    1STR   H07527349   0.067  34.887  15.047
    1STR   C07627350   0.200  34.892  15.289
    1STR   H07727351   0.110  34.894  15.351
    1STR   H07827352   0.284  34.875  15.356
    1STR   O07927353   0.216  35.016  15.220
    1STR   C08027354   0.221  35.132  15.302
    1STR   H08127355   0.144  35.126  15.380
    1STR   C08227356   0.360  35.145  15.366
    1STR   H08327357   0.438  35.146  15.289
    1STR   H08427358   0.382  35.063  15.435
    1STR   H08527359   0.368  35.238  15.422
    1STR   C08627360   0.188  35.253  15.213
    1STR   H08727361   0.263  35.263  15.135
    1STR   H08827362   0.092  35.236  15.164
    1STR   O08927363   0.182  35.371  15.294
    1STR   C09027364   0.157  35.491  15.222
    1STR   H09127365   0.216  35.494  15.130
    1STR   C09227366   0.007  35.502  15.190
    1STR   H09327367  60.106  35.495  15.280
    1STR   H09427368  60.134  35.424  15.121
    1STR   H09527369  60.145  35.598  15.143
    1STR   C09627370   0.203  35.608  15.312
    1STR   H09727371   0.145  35.609  15.404
    1STR   H09827372   0.307  35.592  15.339
    1STR   O09927373   0.188  35.731  15.241
    1STR   C10027374   0.224  35.847  15.314
    1STR   H10127375   0.185  35.842  15.416
    1STR   C10227376   0.377  35.863  15.316
    1STR   H10327377   0.418  35.864  15.215
    1STR   H10427378   0.426  35.783  15.371
    1STR   H10527379   0.405  35.956  15.365
    1STR   C10627380   0.157  35.967  15.245
    1STR   H10727381   0.194  35.977  15.143
    1STR   H10827382   0.049  35.948  15.238
    1STR   O10927383   0.182  36.086  15.320
    1STR   C11027384   0.128  36.205  15.264
    1STR   H11127385   0.145  36.208  15.157
    1STR   C11227386  60.137  36.214  15.295
    1STR   H11327387  60.118  36.207  15.402
    1STR   H11427388  60.081  36.135  15.245
    1STR   H11527389  60.096  36.309  15.260
    1STR   C11627390   0.204  36.323  15.327
    1STR   H11727391   0.188  36.325  15.435
    1STR   H11827392   0.311  36.309  15.311
    1STR   O11927393   0.160  36.445  15.267
    1STR   C12027394   0.221  36.563  15.320
    1STR   H12127395   0.226  36.558  15.429
    1STR   C12227396   0.362  36.580  15.261
    1STR   H12327397   0.359  36.581  15.152
    1STR   H12427398   0.429  36.501  15.292
    1STR   H12527399   0.406  36.675  15.293
    1STR   C12627400   0.130  36.681  15.282
    1STR   H12727401   0.123  36.691  15.174
    1STR   H12827402   0.029  36.661  15.319
    1STR   O12927403   0.181  36.801  15.341
    1STR   C13027404   0.107  36.919  15.311
    1STR   H13127405   0.080  36.920  15.205
    1STR   C13227406  60.141  36.926  15.398
    1STR   H13327407   0.006  36.919  15.504
    1STR   H13427408  60.071  36.846  15.376
    1STR   H13527409  60.088  37.020  15.382
    1STR   C13627410   0.200  37.038  15.337
    1STR   H13727411   0.229  37.041  15.443
    1STR   H13827412   0.292  37.025  15.280
    1STR   O13927413   0.134  37.159  15.300
    1STR   C14027414   0.209  37.278  15.323
    1STR   H14127415   0.257  37.274  15.421
    1STR   C14227416   0.314  37.297  15.212
    1STR   H14327417   0.268  37.296  15.114
    1STR   H14427418   0.390  37.219  15.214
    1STR   H14527419   0.366  37.392  15.224
    1STR   C14627420   0.108  37.395  15.325
    1STR   H14727421   0.059  37.403  15.228
    1STR   H14827422   0.031  37.374  15.399
    1STR   O14927423   0.177  37.516  15.357
    1STR   C15027424   0.095  37.633  15.358
    1STR   H15127425   0.028  37.633  15.272
    1STR   C15227426   0.014  37.639  15.489
    1STR   H15327427   0.080  37.634  15.576
    1STR   H15427428  60.102  37.558  15.496
    1STR   H15527429  60.118  37.732  15.495
    1STR   C15627430   0.189  37.753  15.345
    1STR   H15727431   0.257  37.758  15.430
    1STR   H15827432   0.250  37.741  15.255
    1STR   O15927433   0.112  37.873  15.336
    1STR   C16027434   0.187  37.993  15.327
    1STR   H16127435   0.271  37.991  15.397
    1STR   C16227436   0.239  38.012  15.183
    1STR   H16327437   0.158  38.010  15.111
    1STR   H16427438   0.311  37.935  15.155
    1STR   H16527439   0.290  38.108  15.173
    1STR   C16627440   0.094  38.109  15.368
    1STR   H16727441   0.010  38.115  15.299
    1STR   H16827442   0.053  38.087  15.467
    1STR   O16927443   0.168  38.231  15.370
    1STR   C17027444   0.092  38.347  15.403
    1STR   H17127445  60.156  38.345  15.351
    1STR   C17227446   0.070  38.353  15.555
    1STR   H17327447   0.165  38.350  15.608
    1STR   H17427448   0.009  38.271  15.591
    1STR   H17527449   0.020  38.446  15.582
    1STR   C17627450   0.171  38.468  15.352
    1STR   H17727451   0.268  38.474  15.403
    1STR   H17827452   0.192  38.456  15.246
    1STR   O17927453   0.095  38.587  15.374
    1STR   C18027454   0.159  38.708  15.335
    1STR   H18127455   0.263  38.707  15.366
    1STR   C18227456   0.149  38.726  15.183
    1STR   H18327457   0.045  38.722  15.150
    1STR   H18427458   0.204  38.649  15.129
    1STR   H18527459   0.189  38.822  15.153
    1STR   C18627460   0.088  38.823  15.410
    1STR   H18727461  60.143  38.827  15.380
    1STR   H18827462   0.090  38.802  15.517
    1STR   O18927463   0.154  38.946  15.381
    1STR   C19027464   0.096  39.061  15.441
    1STR   H19127465  60.147  39.057  15.432
    1STR   C19227466   0.137  39.069  15.589
    1STR   H19327467   0.245  39.068  15.601
    1STR   H19427468   0.096  38.986  15.648
    1STR   H19527469   0.100  39.161  15.634
    1STR   C19627470   0.146  39.183  15.363
    1STR   H19727471   0.255  39.191  15.371
    1STR   H19827472   0.123  39.170  15.257
    1STR   O19927473   0.083  39.301  15.413
    1STR   C20027474   0.124  39.423  15.351
    1STR   H20127475   0.232  39.424  15.338
    1STR   C20227476   0.054  39.438  15.216
    1STR   H20327477  60.105  39.433  15.227
    1STR   H20427478   0.084  39.362  15.144
    1STR   H20527479   0.077  39.535  15.171
    1STR   C20627480   0.087  39.537  15.447
    1STR   H20727481  60.139  39.540  15.462
    1STR   H20827482   0.133  39.518  15.544
    1STR   O20927483   0.134  39.661  15.394
    1STR   C21027484   0.103  39.776  15.472
    1STR   H21127485  60.160  39.771  15.507
    1STR   C21227486   0.200  39.786  15.591
    1STR   H21327487   0.304  39.786  15.558
    1STR   H21427488   0.187  39.704  15.661
    1STR   H21527489   0.183  39.878  15.647
    1STR   C21627490   0.116  39.898  15.379
    1STR   H21727491   0.219  39.907  15.343
    1STR   H21827492   0.052  39.883  15.292
    1STR   O21927493   0.077  40.016  15.450
    1STR   C22027494   0.087  40.137  15.376
    1STR   H22127495   0.181  40.140  15.320
    1STR   C22227496  60.128  40.150  15.280
    1STR   H22327497  60.033  40.143  15.334
    1STR   H22427498  60.129  40.074  15.203
    1STR   H22527499  60.130  40.247  15.229
    1STR   C22627500   0.090  40.253  15.478
    1STR   H22727501  60.157  40.254  15.535
    1STR   H22827502   0.171  40.235  15.549
    1STR   O22927503   0.110  40.376  15.410
    1STR   C23027504   0.111  40.492  15.493
    1STR   H23127505   0.031  40.487  15.567
    1STR   C23227506   0.247  40.504  15.564
    1STR   H23327507   0.329  40.505  15.492
    1STR   H23427508   0.264  40.423  15.634
    1STR   H23527509   0.252  40.597  15.621
    1STR   C23627510   0.084  40.614  15.403
    1STR   H23727511   0.163  40.624  15.328
    1STR   H23827512  60.151  40.598  15.348
    1STR   O23927513   0.075  40.732  15.483
    1STR   C24027514   0.053  40.853  15.410
    1STR   H24127515   0.116  40.856  15.322
    1STR   C24227516  60.065  40.863  15.370
    1STR   H24327517  59.999  40.855  15.457
    1STR   H24427518  60.036  40.785  15.299
    1STR   H24527519  60.044  40.959  15.322
    1STR   C24627520   0.094  40.970  15.502
    1STR   H24727521   0.031  40.971  15.591
    1STR   H24827522   0.196  40.955  15.534
    1STR   O24927523   0.082  41.094  15.431
    1STR   C25027524   0.115  41.211  15.506
    1STR   H25127525   0.071  41.205  15.605
    1STR   C25227526   0.267  41.224  15.516
    1STR   H25327527   0.314  41.225  15.418
    1STR   H25427528   0.312  41.144  15.574
    1STR   H25527529   0.294  41.318  15.566
    1STR   C25627530   0.053  41.332  15.434
    1STR   H25727531   0.095  41.342  15.334
    1STR   H25827532  60.106  41.314  15.421
    1STR   O25927533   0.075  41.452  15.509
    1STR   C26027534   0.023  41.572  15.452
    1STR   H26127535   0.046  41.575  15.345
    1STR   C26227536  60.031  41.578  15.473
    1STR   H26327537  60.006  41.569  15.579
    1STR   H26427538  59.978  41.499  15.419
    1STR   H26527539  59.991  41.673  15.437
    1STR   C26627540   0.094  41.692  15.518
    1STR   H26727541   0.073  41.692  15.625
    1STR   H26827542   0.202  41.679  15.507
    1STR   O26927543   0.052  41.815  15.459
    1STR   C27027544   0.111  41.934  15.513
    1STR   H27127545   0.111  41.928  15.622
    1STR   C27227546   0.255  41.948  15.461
    1STR   H27327547   0.258  41.946  15.352
    1STR   H27427548   0.320  41.868  15.498
    1STR   H27527549   0.299  42.042  15.494
    1STR   C27627550   0.025  42.055  15.471
    1STR   H27727551   0.023  42.063  15.362
    1STR   H27827552  60.083  42.037  15.503
    1STR   O27927553   0.075  42.177  15.529
    1STR   C28027554   0.002  42.296  15.498
    1STR   H28127555  60.140  42.298  15.391
    1STR   C28227556  60.031  42.299  15.579
    1STR   H28327557  60.051  42.289  15.685
    1STR   H28427558  59.963  42.220  15.549
    1STR   H28527559  59.979  42.393  15.563
    1STR   C28627560   0.090  42.419  15.530
    1STR   H28727561   0.115  42.420  15.637
    1STR   H28827562   0.185  42.408  15.477
    1STR   O28927563   0.026  42.542  15.493
    1STR   C29027564   0.099  42.663  15.516
    1STR   H29127565   0.142  42.661  15.617
    1STR   C29227566   0.211  42.676  15.412
    1STR   H29327567   0.171  42.671  15.311
    1STR   H29427568   0.287  42.598  15.422
    1STR   H29527569   0.263  42.772  15.422
    1STR   C29627570   0.002  42.784  15.509
    1STR   H29727571  60.115  42.786  15.410
    1STR   H29827572  60.082  42.768  15.581
    1STR   O29927573   0.068  42.910  15.534
    1STR   C30027574  60.144  43.027  15.529
    1STR   H30127575  60.077  43.019  15.443
    1STR   C30227576  60.061  43.035  15.658
    1STR   H30327577  60.126  43.031  15.746
    1STR   H30427578  59.989  42.954  15.667
    1STR   H30527579  60.005  43.128  15.663
    1STR   C30627580   0.070  43.155  15.509
    1STR   H30727581   0.129  43.175  15.599
    1STR   H30827582   0.141  43.134  15.430
    1STR   O30927583  60.149  43.270  15.475
    1STR    H1R27584   0.119  43.418  15.538
    1STR    H1S27585   0.192  43.480  15.302
    1STR    H1T27586   0.088  43.353  15.240
    1STR    H1U27587   0.228  43.313  15.339
    1STR    H1V27588  60.050  43.517  15.519
    1STR    H1W27589  60.049  43.489  15.347
    1STR    H1X27590   0.110  43.829  15.420
    1STR    H1Y27591   0.212  44.023  15.423
    1STR    H1Z27592   0.255  44.243  15.329
    1STR    H2027593   0.129  44.366  15.013
    1STR    H2127594   0.089  44.450  15.163
    1STR    H2227595   0.250  44.383  15.138
    1STR    H2327596  60.057  44.151  14.946
    1STR    H2727597  60.046  43.967  15.145
    1STR    H2827598   0.345  31.401  15.261
    1STR    H2927599   0.350  31.167  15.311
    1STR    H2A27600   0.090  30.925  15.235
    1STR    H2B27601   0.226  30.968  15.338
    1STR    H2C27602   0.257  30.909  15.175
    1STR   BCK127603  60.008  30.940  29.942
    1STR    O0327604  59.891  30.948  29.906
    1STR    N0427605  60.092  31.045  29.946
    1STR    C0527606  60.081  31.159  29.864
    1STR    C0627607  60.069  31.292  29.913
    1STR    C0727608  60.063  31.405  29.825
    1STR    N0827609  60.055  31.539  29.873
    1STR    C0927610  60.019  31.651  29.806
    1STR    O0A27611  59.973  31.650  29.692
    1STR    O0B27612  60.038  31.766  29.877
    1STR    C0C27613  60.004  31.893  29.817
    1STR    C0D27614  59.852  31.915  29.823
    1STR    C0E27615  60.080  32.014  29.880
    1STR    O0F27616  60.044  32.135  29.810
    1STR    C0G27617  60.105  32.256  29.856
    1STR    C0H27618   0.089  32.264  29.803
    1STR    C0I27619  60.022  32.377  29.806
    1STR    O0J27620  60.076  32.500  29.856
    1STR    C0K27621   0.216  43.378  29.714
    1STR    C0M27622   0.070  43.361  29.756
    1STR    C0N27623   0.272  43.509  29.776
    1STR    O0O27624   0.213  43.621  29.708
    1STR    C0P27625   0.172  43.735  29.770
    1STR    O0Q27626   0.166  43.755  29.891
    1STR    N0R27627   0.144  43.823  29.674
    1STR    C0S27628   0.104  43.957  29.664
    1STR    C0T27629   0.148  44.019  29.546
    1STR    C0U27630   0.104  44.147  29.512
    1STR    C0V27631   0.012  44.217  29.592
    1STR    C0W27632  60.117  44.343  29.530
    1STR    C0X27633  60.130  44.163  29.717
    1STR    N0Y27634  60.031  44.221  29.801
    1STR   BCK227635  59.970  44.339  29.828
    1STR    O1027636  59.872  44.337  29.901
    1STR    C1327637   0.019  44.032  29.752
    1STR    C1427638  60.072  31.379  29.687
    1STR    C1527639  60.087  31.249  29.637
    1STR    C1627640  60.094  31.139  29.724
    1STR    C1727641  60.120  31.001  29.665
    1STR    H1B27642   0.020  31.029  29.992
    1STR    H1C27643  60.062  31.307  30.020
    1STR    H1D27644  60.079  31.557  29.969
    1STR    H1E27645  60.034  31.890  29.712
    1STR    H1F27646  59.817  31.920  29.926
    1STR    H1G27647  59.824  32.008  29.774
    1STR    H1H27648  59.798  31.835  29.773
    1STR    H1I27649   0.027  31.996  29.873
    1STR    H1J27650  60.055  32.022  29.985
    1STR    H1K27651  60.105  32.259  29.965
    1STR    H1M27652   0.091  32.259  29.694
    1STR    H1N27653   0.152  32.185  29.842
    1STR    H1O27654   0.135  32.359  29.831
    1STR    H1P27655  60.020  32.378  29.697
    1STR    H1Q27656  59.919  32.366  29.839
    1STR   C01027657  60.012  32.620  29.813
    1STR   H01127658  59.993  32.616  29.705
    1STR   C01227659  59.880  32.639  29.889
    1STR   H01327660  59.896  32.639  29.996
    1STR   H01427661  59.807  32.562  29.865
    1STR   H01527662  59.834  32.735  29.862
    1STR   C01627663  60.108  32.739  29.839
    1STR   H01727664  60.130  32.746  29.945
    1STR   H01827665   0.042  32.720  29.787
    1STR   O01927666  60.050  32.862  29.792
    1STR   C02027667  60.128  32.979  29.815
    1STR   H02127668   0.010  32.977  29.916
    1STR   C02227669   0.082  32.987  29.712
    1STR   H02327670   0.043  32.985  29.610
    1STR   H02427671   0.153  32.906  29.722
    1STR   H02527672   0.138  33.080  29.723
    1STR   C02627673  60.036  33.103  29.805
    1STR   H02727674  59.993  33.109  29.705
    1STR   H02827675  59.953  33.091  29.875
    1STR   O02927676  60.110  33.222  29.835
    1STR   C03027677  60.037  33.344  29.825
    1STR   H03127678  59.975  33.344  29.735
    1STR   C03227679  59.948  33.362  29.949
    1STR   H03327680  60.007  33.358  30.041
    1STR   H03427681  59.870  33.286  29.956
    1STR   H03527682  59.898  33.459  29.946
    1STR   C03627683  60.138  33.459  29.812
    1STR   H03727684   0.041  33.464  29.901
    1STR   H03827685   0.044  33.440  29.728
    1STR   O03927686  60.069  33.583  29.794
    1STR   C04027687  60.152  33.699  29.785
    1STR   H04127688   0.070  33.695  29.861
    1STR   C04227689   0.055  33.708  29.645
    1STR   H04327690  60.139  33.707  29.567
    1STR   H04427691   0.124  33.625  29.625
    1STR   H04527692   0.112  33.800  29.634
    1STR   C04627693  60.064  33.822  29.814
    1STR   H04727694  59.985  33.830  29.739
    1STR   H04827695  60.015  33.809  29.910
    1STR   O04927696  60.145  33.940  29.814
    1STR   C05027697  60.074  34.062  29.836
    1STR   H05127698  59.982  34.063  29.778
    1STR   C05227699  60.042  34.078  29.986
    1STR   H05327700  60.133  34.072  30.046
    1STR   H05427701  59.973  34.002  30.022
    1STR   H05527702  59.996  34.174  30.005
    1STR   C05627703   0.003  34.177  29.786
    1STR   H05727704   0.096  34.180  29.843
    1STR   H05827705   0.030  34.158  29.682
    1STR   O05927706  60.093  34.300  29.797
    1STR   C06027707   0.006  34.416  29.757
    1STR   H06127708   0.109  34.411  29.796
    1STR   C06227709   0.008  34.427  29.604
    1STR   H06327710  60.066  34.427  29.564
    1STR   H06427711   0.062  34.345  29.557
    1STR   H06527712   0.056  34.519  29.572
    1STR   C06627713  60.098  34.538  29.821
    1STR   H06727714  59.996  34.548  29.784
    1STR   H06827715  60.092  34.523  29.929
    1STR   O06927716   0.014  34.656  29.792
    1STR   C07027717  60.119  34.777  29.842
    1STR   H07127718  60.011  34.780  29.825
    1STR   C07227719  60.150  34.791  29.992
    1STR   H07327720   0.097  34.784  30.011
    1STR   H07427721  60.100  34.714  30.051
    1STR   H07527722  60.116  34.887  30.030
    1STR   C07627723   0.021  34.893  29.762
    1STR   H07727724   0.129  34.895  29.777
    1STR   H07827725   0.004  34.875  29.655
    1STR   O07927726  60.122  35.016  29.802
    1STR   C08027727   0.014  35.132  29.738
    1STR   H08127728   0.123  35.126  29.732
    1STR   C08227729  60.115  35.145  29.597
    1STR   H08327730  60.006  35.146  29.600
    1STR   H08427731  60.145  35.064  29.531
    1STR   H08527732  60.147  35.238  29.549
    1STR   C08627733  60.138  35.253  29.825
    1STR   H08727734  60.030  35.263  29.832
    1STR   H08827735   0.016  35.236  29.926
    1STR   O08927736   0.037  35.371  29.770
    1STR   C09027737   0.007  35.492  29.840
    1STR   H09127738  60.062  35.494  29.867
    1STR   C09227739   0.096  35.502  29.965
    1STR   H09327740   0.201  35.495  29.939
    1STR   H09427741   0.073  35.425  30.038
    1STR   H09527742   0.080  35.598  30.015
    1STR   C09627743   0.034  35.608  29.743
    1STR   H09727744   0.139  35.609  29.714
    1STR   H09827745  60.136  35.592  29.652
    1STR   O09927746  60.157  35.731  29.805
    1STR   C10027747   0.020  35.848  29.727
    1STR   H10127748   0.117  35.842  29.678
    1STR   C10227749  60.069  35.863  29.621
    1STR   H10327750  59.970  35.864  29.668
    1STR   H10427751  60.070  35.782  29.548
    1STR   H10527752  60.081  35.956  29.566
    1STR   C10627753   0.023  35.967  29.823
    1STR   H10727754  60.086  35.977  29.873
    1STR   H10827755   0.097  35.949  29.901
    1STR   O10927756   0.055  36.086  29.751
    1STR   C11027757   0.057  36.205  29.828
    1STR   H11127758  60.132  36.208  29.896
    1STR   C11227759   0.188  36.214  29.908
    1STR   H11327760   0.275  36.207  29.842
    1STR   H11427761   0.196  36.135  29.982
    1STR   H11527762   0.195  36.309  29.961
    1STR   C11627763   0.043  36.323  29.730
    1STR   H11727764   0.128  36.325  29.662
    1STR   H11827765  60.113  36.309  29.670
    1STR   O11927766   0.035  36.445  29.804
    1STR   C12027767   0.026  36.563  29.725
    1STR   H12127768   0.096  36.558  29.641
    1STR   C12227769  60.042  36.580  29.673
    1STR   H12327770  59.971  36.581  29.756
    1STR   H12427771  60.013  36.501  29.605
    1STR   H12527772  60.032  36.675  29.620
    1STR   C12627773   0.068  36.681  29.814
    1STR   H12727774  60.160  36.691  29.898
    1STR   H12827775   0.167  36.661  29.855
    1STR   O12927776   0.070  36.801  29.736
    1STR   C13027777   0.104  36.919  29.808
    1STR   H13127778   0.053  36.920  29.905
    1STR   C13227779   0.256  36.926  29.829
    1STR   H13327780   0.309  36.919  29.734
    1STR   H13427781   0.293  36.845  29.893
    1STR   H13527782   0.284  37.020  29.876
    1STR   C13627783   0.053  37.038  29.726
    1STR   H13727784   0.103  37.041  29.629
    1STR   H13827785  60.107  37.025  29.706
    1STR   O13927786   0.076  37.159  29.798
    1STR   C14027787   0.037  37.278  29.731
    1STR   H14127788   0.067  37.274  29.626
    1STR   C14227789  60.045  37.297  29.741
    1STR   H14327790  60.012  37.296  29.845
    1STR   H14427791  59.990  37.219  29.689
    1STR   H14527792  60.015  37.392  29.698
    1STR   C14627793   0.112  37.395  29.797
    1STR   H14727794   0.084  37.403  29.902
    1STR   H14827795   0.219  37.374  29.795
    1STR   O14927796   0.084  37.516  29.727
    1STR   C15027797   0.145  37.633  29.781
    1STR   H15127798   0.136  37.633  29.890
    1STR   C15227799   0.292  37.639  29.739
    1STR   H15327800   0.303  37.634  29.631
    1STR   H15427801   0.351  37.558  29.782
    1STR   H15527802   0.338  37.732  29.773
    1STR   C15627803   0.066  37.753  29.728
    1STR   H15727804   0.073  37.758  29.619
    1STR   H15827805  60.121  37.741  29.752
    1STR   O15927806   0.117  37.873  29.786
    1STR   C16027807   0.055  37.993  29.742
    1STR   H16127808   0.041  37.991  29.634
    1STR   C16227809  60.080  38.012  29.813
    1STR   H16327810  60.092  38.010  29.921
    1STR   H16427811  60.008  37.935  29.785
    1STR   H16527812  60.036  38.108  29.786
    1STR   C16627813   0.152  38.109  29.774
    1STR   H16727814   0.167  38.115  29.882
    1STR   H16827815   0.249  38.087  29.729
    1STR   O16927816   0.099  38.231  29.723
    1STR   C17027817   0.177  38.347  29.750
    1STR   H17127818   0.213  38.345  29.853
    1STR   C17227819   0.296  38.353  29.653
    1STR   H17327820   0.262  38.350  29.549
    1STR   H17427821   0.366  38.271  29.667
    1STR   H17527822   0.352  38.446  29.666
    1STR   C17627823   0.085  38.468  29.734
    1STR   H17727824   0.048  38.474  29.632
    1STR   H17827825  60.158  38.456  29.799
    1STR   O17927826   0.156  38.587  29.769
    1STR   C18027827   0.083  38.708  29.755
    1STR   H18127828   0.026  38.707  29.662
    1STR   C18227829  60.147  38.726  29.874
    1STR   H18327830   0.041  38.722  29.969
    1STR   H18427831  60.070  38.649  29.877
    1STR   H18527832  60.096  38.822  29.869
    1STR   C18627833   0.185  38.823  29.748
    1STR   H18727834   0.242  38.827  29.841
    1STR   H18827835   0.256  38.802  29.668
    1STR   O18927836   0.117  38.946  29.724
    1STR   C19027837   0.200  39.061  29.719
    1STR   H19127838   0.274  39.057  29.799
    1STR   C19227839   0.270  39.069  29.583
    1STR   H19327840   0.198  39.068  29.501
    1STR   H19427841   0.340  38.986  29.567
    1STR   H19527842   0.328  39.161  29.574
    1STR   C19627843   0.110  39.183  29.743
    1STR   H19727844   0.036  39.191  29.664
    1STR   H19827845   0.056  39.170  29.837
    1STR   O19927846   0.191  39.301  29.749
    1STR   C20027847   0.119  39.422  29.767
    1STR   H20127848   0.030  39.424  29.704
    1STR   C20227849   0.079  39.438  29.914
    1STR   H20327850   0.167  39.433  29.979
    1STR   H20427851   0.009  39.362  29.946
    1STR   H20527852   0.032  39.535  29.931
    1STR   C20627853   0.211  39.537  29.721
    1STR   H20727854   0.300  39.540  29.783
    1STR   H20827855   0.243  39.518  29.619
    1STR   O20927856   0.140  39.660  29.728
    1STR   C21027857   0.215  39.776  29.692
    1STR   H21127858   0.315  39.771  29.736
    1STR   C21227859   0.225  39.786  29.539
    1STR   H21327860   0.126  39.786  29.493
    1STR   H21427861   0.282  39.703  29.496
    1STR   H21527862   0.275  39.878  29.509
    1STR   C21627863   0.144  39.898  29.752
    1STR   H21727864   0.044  39.907  29.709
    1STR   H21827865   0.131  39.883  29.859
    1STR   O21927866   0.220  40.015  29.726
    1STR   C22027867   0.163  40.137  29.773
    1STR   H22127868   0.056  40.139  29.751
    1STR   C22227869   0.185  40.150  29.924
    1STR   H22327870   0.291  40.143  29.949
    1STR   H22427871   0.133  40.073  29.981
    1STR   H22527872   0.149  40.247  29.961
    1STR   C22627873   0.229  40.252  29.696
    1STR   H22727874   0.336  40.254  29.717
    1STR   H22827875   0.218  40.235  29.589
    1STR   O22927876   0.169  40.376  29.733
    1STR   C23027877   0.224  40.492  29.671
    1STR   H23127878   0.333  40.486  29.671
    1STR   C23227879   0.172  40.504  29.527
    1STR   H23327880   0.063  40.505  29.525
    1STR   H23427881   0.206  40.422  29.464
    1STR   H23527882   0.206  40.597  29.481
    1STR   C23627883   0.183  40.613  29.756
    1STR   H23727884   0.075  40.623  29.757
    1STR   H23827885   0.215  40.597  29.859
    1STR   O23927886   0.244  40.731  29.703
    1STR   C24027887   0.211  40.852  29.771
    1STR   H24127888   0.105  40.855  29.794
    1STR   C24227889   0.293  40.862  29.901
    1STR   H24327890   0.400  40.854  29.881
    1STR   H24427891   0.266  40.785  29.973
    1STR   H24527892   0.276  40.958  29.950
    1STR   C24627893   0.243  40.969  29.676
    1STR   H24727894   0.349  40.970  29.653
    1STR   H24827895   0.189  40.953  29.583
    1STR   O24927896   0.203  41.092  29.736
    1STR   C25027897   0.230  41.209  29.659
    1STR   H25127898   0.330  41.203  29.615
    1STR   C25227899   0.125  41.223  29.548
    1STR   H25327900   0.024  41.224  29.589
    1STR   H25427901   0.130  41.142  29.475
    1STR   H25527902   0.138  41.316  29.493
    1STR   C25627903   0.227  41.330  29.754
    1STR   H25727904   0.128  41.340  29.799
    1STR   H25827905   0.297  41.312  29.836
    1STR   O25927906   0.262  41.449  29.684
    1STR   C26027907   0.261  41.569  29.761
    1STR   H26127908   0.172  41.572  29.824
    1STR   C26227909   0.387  41.576  29.848
    1STR   H26327910   0.477  41.568  29.787
    1STR   H26427911   0.390  41.497  29.923
    1STR   H26527912   0.392  41.671  29.901
    1STR   C26627913   0.253  41.688  29.663
    1STR   H26727914   0.341  41.689  29.599
    1STR   H26827915   0.167  41.675  29.599
    1STR   O26927916   0.243  41.811  29.736
    1STR   C27027917   0.237  41.930  29.656
    1STR   H27127918   0.311  41.924  29.576
    1STR   C27227919   0.096  41.945  29.597
    1STR   H27327920   0.020  41.944  29.675
    1STR   H27427921   0.072  41.865  29.526
    1STR   H27527922   0.086  42.039  29.542
    1STR   C27627923   0.273  42.050  29.746
    1STR   H27727924   0.200  42.059  29.827
    1STR   H27827925   0.370  42.031  29.791
    1STR   O27927926   0.276  42.171  29.669
    1STR   C28027927   0.308  42.290  29.742
    1STR   H28127928   0.252  42.292  29.835
    1STR   C28227929   0.459  42.294  29.771
    1STR   H28327930   0.517  42.284  29.679
    1STR   H28427931   0.490  42.214  29.838
    1STR   H28527932   0.487  42.388  29.818
    1STR   C28627933   0.265  42.413  29.658
    1STR   H28727934   0.319  42.414  29.563
    1STR   H28827935   0.159  42.402  29.633
    1STR   O28927936   0.287  42.535  29.730
    1STR   C29027937   0.250  42.656  29.662
    1STR   H29127938   0.286  42.653  29.559
    1STR   C29227939   0.097  42.670  29.664
    1STR   H29327940   0.058  42.666  29.765
    1STR   H29427941   0.047  42.593  29.606
    1STR   H29527942   0.067  42.766  29.620
    1STR   C29627943   0.318  42.775  29.733
    1STR   H29727944   0.285  42.779  29.837
    1STR   H29827945   0.425  42.758  29.734
    1STR   O29927946   0.288  42.900  29.668
    1STR   C30027947   0.344  43.018  29.728
    1STR   H30127948   0.332  43.013  29.836
    1STR   C30227949   0.492  43.027  29.690
    1STR   H30327950   0.506  43.023  29.582
    1STR   H30427951   0.551  42.947  29.734
    1STR   H30527952   0.535  43.121  29.725
    1STR   C30627953   0.264  43.141  29.678
    1STR   H30727954   0.283  43.156  29.571
    1STR   H30827955   0.158  43.116  29.687
    1STR   O30927956   0.293  43.262  29.752
    1STR    H1R27957   0.222  43.388  29.605
    1STR    H1S27958   0.013  43.452  29.737
    1STR    H1T27959   0.063  43.340  29.863
    1STR    H1U27960   0.019  43.281  29.703
    1STR    H1V27961   0.380  43.515  29.762
    1STR    H1W27962   0.254  43.513  29.884
    1STR    H1X27963   0.163  43.778  29.586
    1STR    H1Y27964   0.214  43.968  29.479
    1STR    H1Z27965   0.137  44.189  29.418
    1STR    H2027966  60.010  44.350  29.547
    1STR    H2127967   0.010  44.429  29.569
    1STR    H2227968  60.131  44.344  29.422
    1STR    H2327969  59.988  44.154  29.863
    1STR    H2727970  60.146  43.983  29.843
    1STR    H2827971  60.071  31.458  29.613
    1STR    H2927972  60.095  31.234  29.530
    1STR    H2A27973   0.039  30.950  29.720
    1STR    H2B27974  60.151  31.008  29.561
    1STR    H2C27975  60.029  30.941  29.669
    1STR   BCK127976  60.039  30.936  45.097
    1STR    O0327977  60.099  30.871  45.182
    1STR    N0427978  60.010  31.068  45.109
    1STR    C0527979  60.017  31.157  45.220
    1STR    C0627980  60.053  31.295  45.202
    1STR    C0727981  60.051  31.391  45.309
    1STR    N0827982  60.080  31.529  45.290
    1STR    C0927983  60.051  31.636  45.369
    1STR    O0A27984  59.986  31.628  45.473
    1STR    O0B27985  60.099  31.756  45.321
    1STR    C0C27986  60.084  31.877  45.399
    1STR    C0D27987   0.038  31.887  45.502
    1STR    C0E27988  60.078  32.006  45.312
    1STR    O0F27989  60.061  32.125  45.392
    1STR    C0G27990  60.048  32.250  45.322
    1STR    C0H27991  59.906  32.261  45.265
    1STR    C0I27992  60.077  32.370  45.416
    1STR    O0J27993  60.070  32.494  45.343
    1STR    C0K27994  59.711  43.378  45.229
    1STR    C0M27995  59.853  43.382  45.289
    1STR    C0N27996  59.691  43.498  45.133
    1STR    O0O27997  59.693  43.622  45.204
    1STR    C0P27998  59.738  43.736  45.145
    1STR    O0Q27999  59.785  43.743  45.032
    1STR    N0R28000  59.726  43.838  45.230
    1STR    C0S28001  59.768  43.972  45.223
    1STR    C0T28002  59.776  44.041  45.346
    1STR    C0U28003  59.830  44.171  45.352
    1STR    C0V28004  59.874  44.237  45.235
    1STR    C0W28005  59.952  44.366  45.253
    1STR    C0X28006  59.857  44.175  45.109
    1STR    N0Y28007  59.904  44.233  44.990
    1STR   BCK228008  59.880  44.347  44.923
    1STR    O1028009  59.936  44.364  44.815
    1STR    C1328010  59.807  44.041  45.105
    1STR    C1428011  60.018  31.342  45.437
    1STR    C1528012  59.980  31.209  45.457
    1STR    C1628013  59.975  31.117  45.350
    1STR    C1728014  59.917  30.981  45.381
    1STR    H1B28015  59.976  31.108  45.023
    1STR    H1C28016  60.081  31.329  45.104
    1STR    H1D28017  60.129  31.556  45.207
    1STR    H1E28018  59.989  31.873  45.454
    1STR    H1F28019   0.135  31.894  45.454
    1STR    H1G28020   0.026  31.976  45.565
    1STR    H1H28021   0.039  31.801  45.569
    1STR    H1I28022  59.995  31.996  45.242
    1STR    H1J28023   0.009  32.015  45.252
    1STR    H1K28024  60.121  32.254  45.241
    1STR    H1M28025  59.831  32.254  45.344
    1STR    H1N28026  59.884  32.184  45.191
    1STR    H1O28027  59.892  32.357  45.215
    1STR    H1P28028  60.006  32.371  45.498
    1STR    H1Q28029   0.016  32.358  45.460
    1STR   C01028030  60.088  32.615  45.418
    1STR   H01128031  60.030  32.611  45.510
    1STR   C01228032   0.077  32.634  45.451
    1STR   H01328033   0.138  32.634  45.361
    1STR   H01428034   0.115  32.556  45.518
    1STR   H01528035   0.093  32.729  45.502
    1STR   C01628036  60.035  32.734  45.334
    1STR   H01728037  60.090  32.741  45.240
    1STR   H01828038  59.931  32.716  45.309
    1STR   O01928039  60.047  32.858  45.407
    1STR   C02028040  60.005  32.976  45.337
    1STR   H02128041  60.043  32.973  45.234
    1STR   C02228042  59.852  32.984  45.336
    1STR   H02328043  59.812  32.982  45.437
    1STR   H02428044  59.806  32.902  45.280
    1STR   H02528045  59.819  33.077  45.289
    1STR   C02628046  60.066  33.100  45.406
    1STR   H02728047  60.031  33.106  45.509
    1STR   H02828048   0.015  33.089  45.410
    1STR   O02928049  60.031  33.219  45.335
    1STR   C03028050  60.078  33.342  45.391
    1STR   H03128051  60.063  33.341  45.499
    1STR   C03228052   0.068  33.360  45.360
    1STR   H03328053   0.086  33.357  45.252
    1STR   H03428054   0.129  33.284  45.407
    1STR   H03528055   0.103  33.457  45.396
    1STR   C03628056  59.995  33.457  45.332
    1STR   H03728057  60.008  33.462  45.224
    1STR   H03828058  59.889  33.438  45.350
    1STR   O03928059  60.034  33.581  45.392
    1STR   C04028060  59.967  33.697  45.343
    1STR   H04128061  59.960  33.694  45.234
    1STR   C04228062  59.826  33.706  45.404
    1STR   H04328063  59.830  33.706  45.513
    1STR   H04428064  59.762  33.624  45.372
    1STR   H04528065  59.776  33.799  45.373
    1STR   C04628066  60.051  33.821  45.381
    1STR   H04728067  60.059  33.829  45.489
    1STR   H04828068  60.152  33.808  45.342
    1STR   O04928069  59.992  33.939  45.326
    1STR   C05028070  60.059  34.061  45.358
    1STR   H05128071  60.087  34.062  45.463
    1STR   C05228072   0.023  34.077  45.269
    1STR   H05328073  60.157  34.071  45.163
    1STR   H05428074   0.098  34.001  45.289
    1STR   H05528075   0.070  34.174  45.286
    1STR   C05628076  59.959  34.176  45.335
    1STR   H05728077  59.929  34.179  45.230
    1STR   H05828078  59.869  34.157  45.394
    1STR   O05928079  60.019  34.300  45.374
    1STR   C06028080  59.938  34.415  45.354
    1STR   H06128081  59.888  34.410  45.257
    1STR   C06228082  59.833  34.426  45.466
    1STR   H06328083  59.880  34.427  45.564
    1STR   H06428084  59.761  34.344  45.464
    1STR   H06528085  59.776  34.519  45.457
    1STR   C06628086  60.031  34.538  45.353
    1STR   H06728087  60.081  34.547  45.449
    1STR   H06828088  60.108  34.523  45.277
    1STR   O06928089  59.955  34.655  45.324
    1STR   C07028090  60.030  34.777  45.324
    1STR   H07128091  60.098  34.779  45.409
    1STR   C07228092  60.108  34.790  45.192
    1STR   H07328093  60.042  34.783  45.106
    1STR   H07428094   0.025  34.714  45.182
    1STR   H07528095  60.159  34.887  45.187
    1STR   C07628096  59.929  34.892  45.341
    1STR   H07728097  59.860  34.894  45.257
    1STR   H07828098  59.870  34.875  45.431
    1STR   O07928099  60.000  35.016  45.351
    1STR   C08028100  59.918  35.132  45.363
    1STR   H08128101  59.834  35.126  45.294
    1STR   C08228102  59.867  35.145  45.507
    1STR   H08328103  59.950  35.146  45.578
    1STR   H08428104  59.800  35.064  45.535
    1STR   H08528105  59.811  35.238  45.520
    1STR   C08628106  60.004  35.253  45.322
    1STR   H08728107  60.088  35.263  45.390
    1STR   H08828108  60.045  35.236  45.223
    1STR   O08928109  59.923  35.371  45.324
    1STR   C09028110  59.992  35.492  45.292
    1STR   H09128111  60.089  35.494  45.343
    1STR   C09228112  60.012  35.502  45.140
    1STR   H09328113  59.916  35.495  45.088
    1STR   H09428114  60.077  35.425  45.101
    1STR   H09528115  60.056  35.598  45.114
    1STR   C09628116  59.907  35.608  45.346
    1STR   H09728117  59.810  35.609  45.296
    1STR   H09828118  59.889  35.592  45.452
    1STR   O09928119  59.977  35.731  45.325
    1STR   C10028120  59.907  35.848  45.367
    1STR   H10128121  59.802  35.842  45.338
    1STR   C10228122  59.918  35.863  45.520
    1STR   H10328123  60.022  35.864  45.552
    1STR   H10428124  59.867  35.782  45.573
    1STR   H10528125  59.872  35.956  45.553
    1STR   C10628126  59.970  35.967  45.294
    1STR   H10728127  60.074  35.978  45.323
    1STR   H10828128  59.967  35.948  45.187
    1STR   O10928129  59.897  36.086  45.326
    1STR   C11028130  59.947  36.205  45.267
    1STR   H11128131  60.056  36.208  45.275
    1STR   C11228132  59.904  36.214  45.120
    1STR   H11328133  59.796  36.207  45.110
    1STR   H11428134  59.949  36.135  45.059
    1STR   H11528135  59.935  36.308  45.076
    1STR   C11628136  59.892  36.323  45.349
    1STR   H11728137  59.783  36.325  45.342
    1STR   H11828138  59.917  36.309  45.454
    1STR   O11928139  59.947  36.445  45.300
    1STR   C12028140  59.901  36.563  45.364
    1STR   H12128141  59.793  36.558  45.379
    1STR   C12228142  59.972  36.580  45.499
    1STR   H12328143  60.080  36.581  45.487
    1STR   H12428144  59.947  36.501  45.570
    1STR   H12528145  59.944  36.675  45.546
    1STR   C12628146  59.930  36.681  45.270
    1STR   H12728147  60.037  36.691  45.254
    1STR   H12828148  59.884  36.661  45.173
    1STR   O12928149  59.876  36.801  45.326
    1STR   C13028150  59.900  36.919  45.250
    1STR   H13128151  60.002  36.920  45.214
    1STR   C13228152  59.801  36.926  45.132
    1STR   H13328153  59.698  36.920  45.167
    1STR   H13428154  59.818  36.845  45.060
    1STR   H13528155  59.813  37.020  45.078
    1STR   C13628156  59.882  37.038  45.345
    1STR   H13728157  59.779  37.041  45.383
    1STR   H13828158  59.947  37.025  45.432
    1STR   O13928159  59.913  37.159  45.276
    1STR   C14028160  59.897  37.278  45.352
    1STR   H14128161  59.804  37.274  45.409
    1STR   C14228162  60.016  37.297  45.447
    1STR   H14328163  60.110  37.296  45.393
    1STR   H14428164  60.021  37.219  45.523
    1STR   H14528165  60.009  37.392  45.500
    1STR   C14628166  59.886  37.395  45.253
    1STR   H14728167  59.978  37.403  45.195
    1STR   H14828168  59.806  37.374  45.182
    1STR   O14928169  59.860  37.516  45.324
    1STR   C15028170  59.851  37.633  45.243
    1STR   H15128171  59.931  37.633  45.168
    1STR   C15228172  59.714  37.639  45.174
    1STR   H15328173  59.633  37.634  45.247
    1STR   H15428174  59.700  37.557  45.103
    1STR   H15528175  59.703  37.732  45.118
    1STR   C15628176  59.873  37.754  45.335
    1STR   H15728177  59.794  37.758  45.410
    1STR   H15828178  59.967  37.741  45.388
    1STR   O15928179  59.875  37.873  45.257
    1STR   C16028180  59.891  37.993  45.332
    1STR   H16128181  59.828  37.991  45.421
    1STR   C16228182  60.038  38.012  45.371
    1STR   H16328183  60.103  38.010  45.283
    1STR   H16428184  60.073  37.935  45.440
    1STR   H16528185  60.053  38.108  45.421
    1STR   C16628186  59.841  38.109  45.243
    1STR   H16728187  59.903  38.115  45.153
    1STR   H16828188  59.739  38.087  45.210
    1STR   O16928189  59.846  38.231  45.316
    1STR   C17028190  59.806  38.347  45.244
    1STR   H17128191  59.850  38.345  45.144
    1STR   C17228192  59.653  38.353  45.235
    1STR   H17328193  59.608  38.350  45.335
    1STR   H17428194  59.611  38.271  45.177
    1STR   H17528195  59.621  38.446  45.187
    1STR   C17628196  59.864  38.468  45.318
    1STR   H17728197  59.822  38.474  45.418
    1STR   H17828198  59.972  38.456  45.329
    1STR   O17928199  59.835  38.587  45.244
    1STR   C18028200  59.880  38.708  45.304
    1STR   H18128201  59.858  38.707  45.411
    1STR   C18228202  60.031  38.726  45.281
    1STR   H18328203  60.055  38.722  45.174
    1STR   H18428204  60.089  38.649  45.331
    1STR   H18528205  60.064  38.822  45.319
    1STR   C18628206  59.799  38.822  45.240
    1STR   H18728207  59.820  38.827  45.133
    1STR   H18828208  59.693  38.802  45.251
    1STR   O18928209  59.833  38.945  45.303
    1STR   C19028210  59.769  39.061  45.251
    1STR   H19128211  59.768  39.057  45.142
    1STR   C19228212  59.625  39.069  45.304
    1STR   H19328213  59.623  39.068  45.413
    1STR   H19428214  59.563  38.986  45.268
    1STR   H19528215  59.576  39.161  45.271
    1STR   C19628216  59.851  39.183  45.294
    1STR   H19728217  59.852  39.191  45.403
    1STR   H19828218  59.954  39.170  45.261
    1STR   O19928219  59.795  39.301  45.235
    1STR   C20028220  59.861  39.422  45.271
    1STR   H20128221  59.884  39.423  45.377
    1STR   C20228222  59.990  39.438  45.189
    1STR   H20328223  59.969  39.433  45.082
    1STR   H20428224  60.063  39.362  45.213
    1STR   H20528225  60.036  39.535  45.208
    1STR   C20628226  59.762  39.537  45.243
    1STR   H20728227  59.738  39.540  45.136
    1STR   H20828228  59.669  39.517  45.296
    1STR   O20928229  59.819  39.660  45.285
    1STR   C21028230  59.739  39.776  45.261
    1STR   H21128231  59.695  39.771  45.161
    1STR   C21228232  59.628  39.786  45.367
    1STR   H21328233  59.670  39.786  45.468
    1STR   H21428234  59.557  39.703  45.360
    1STR   H21528235  59.571  39.878  45.355
    1STR   C21628236  59.832  39.898  45.265
    1STR   H21728237  59.877  39.907  45.364
    1STR   H21828238  59.914  39.883  45.195
    1STR   O21928239  59.758  40.015  45.232
    1STR   C22028240  59.833  40.137  45.236
    1STR   H22128241  59.897  40.139  45.325
    1STR   C22228242  59.918  40.150  45.109
    1STR   H22328243  59.856  40.143  45.019
    1STR   H22428244  59.995  40.073  45.103
    1STR   H22528245  59.969  40.246  45.107
    1STR   C22628246  59.732  40.252  45.248
    1STR   H22728247  59.667  40.254  45.160
    1STR   H22828248  59.668  40.234  45.335
    1STR   O22928249  59.801  40.375  45.262
    1STR   C23028250  59.719  40.491  45.270
    1STR   H23128251  59.638  40.485  45.196
    1STR   C23228252  59.660  40.503  45.412
    1STR   H23328253  59.739  40.505  45.487
    1STR   H23428254  59.592  40.422  45.435
    1STR   H23528255  59.603  40.596  45.422
    1STR   C23628256  59.806  40.613  45.235
    1STR   H23728257  59.887  40.623  45.308
    1STR   H23828258  59.853  40.596  45.138
    1STR   O23928259  59.726  40.730  45.233
    1STR   C24028260  59.796  40.851  45.205
    1STR   H24128261  59.890  40.854  45.260
    1STR   C24228262  59.823  40.862  45.054
    1STR   H24328263  59.731  40.854  44.996
    1STR   H24428264  59.891  40.784  45.019
    1STR   H24528265  59.869  40.958  45.029
    1STR   C24628266  59.708  40.968  45.254
    1STR   H24728267  59.614  40.969  45.199
    1STR   H24828268  59.685  40.952  45.359
    1STR   O24928269  59.778  41.091  45.236
    1STR   C25028270  59.706  41.208  45.275
    1STR   H25128271  59.603  41.202  45.240
    1STR   C25228272  59.709  41.222  45.428
    1STR   H25328273  59.811  41.223  45.466
    1STR   H25428274  59.656  41.142  45.478
    1STR   H25528275  59.662  41.316  45.459
    1STR   C25628276  59.773  41.329  45.207
    1STR   H25728277  59.876  41.339  45.241
    1STR   H25828278  59.776  41.310  45.099
    1STR   O25928279  59.699  41.447  45.235
    1STR   C26028280  59.752  41.567  45.179
    1STR   H26128281  59.860  41.570  45.192
    1STR   C26228282  59.717  41.575  45.029
    1STR   H26328283  59.610  41.567  45.013
    1STR   H26428284  59.766  41.496  44.972
    1STR   H26528285  59.750  41.670  44.987
    1STR   C26628286  59.692  41.686  45.256
    1STR   H26728287  59.583  41.687  45.244
    1STR   H26828288  59.712  41.672  45.362
    1STR   O26928289  59.749  41.809  45.210
    1STR   C27028290  59.699  41.927  45.273
    1STR   H27128291  59.590  41.922  45.282
    1STR   C27228292  59.763  41.943  45.412
    1STR   H27328293  59.872  41.942  45.405
    1STR   H27428294  59.733  41.863  45.480
    1STR   H27528295  59.733  42.037  45.458
    1STR   C27628296  59.733  42.047  45.182
    1STR   H27728297  59.841  42.056  45.171
    1STR   H27828298  59.693  42.028  45.083
    1STR   O27928299  59.678  42.168  45.236
    1STR   C28028300  59.704  42.287  45.161
    1STR   H28128301  59.809  42.289  45.130
    1STR   C28228302  59.612  42.291  45.038
    1STR   H28328303  59.508  42.283  45.067
    1STR   H28428304  59.634  42.212  44.967
    1STR   H28528305  59.625  42.386  44.985
    1STR   C28628306  59.680  42.408  45.254
    1STR   H28728307  59.576  42.410  45.287
    1STR   H28828308  59.741  42.396  45.343
    1STR   O28928309  59.713  42.530  45.186
    1STR   C29028310  59.694  42.650  45.262
    1STR   H29128311  59.598  42.647  45.314
    1STR   C29228312  59.808  42.666  45.364
    1STR   H29328313  59.905  42.663  45.314
    1STR   H29428314  59.807  42.588  45.440
    1STR   H29528315  59.801  42.761  45.416
    1STR   C29628316  59.690  42.770  45.164
    1STR   H29728317  59.785  42.775  45.109
    1STR   H29828318  59.613  42.751  45.090
    1STR   O29928319  59.665  42.893  45.232
    1STR   C30028320  59.660  43.010  45.150
    1STR   H30128321  59.742  43.008  45.078
    1STR   C30228322  59.525  43.015  45.076
    1STR   H30328323  59.442  43.009  45.146
    1STR   H30428324  59.514  42.933  45.004
    1STR   H30528325  59.515  43.108  45.020
    1STR   C30628326  59.679  43.136  45.238
    1STR   H30728327  59.596  43.145  45.308
    1STR   H30828328  59.769  43.121  45.298
    1STR   O30928329  59.691  43.255  45.158
    1STR    H1R28330  59.637  43.385  45.309
    1STR    H1S28331  59.873  43.478  45.335
    1STR    H1T28332  59.928  43.366  45.212
    1STR    H1U28333  59.868  43.306  45.367
    1STR    H1V28334  59.595  43.489  45.082
    1STR    H1W28335  59.767  43.496  45.055
    1STR    H1X28336  59.684  43.808  45.315
    1STR    H1Y28337  59.747  43.993  45.438
    1STR    H1Z28338  59.841  44.218  45.448
    1STR    H2028339  60.056  44.349  45.225
    1STR    H2128340  59.914  44.447  45.192
    1STR    H2228341  59.951  44.400  45.356
    1STR    H2328342  59.966  44.174  44.936
    1STR    H2728343  59.800  43.991  45.010
    1STR    H2828344  60.018  31.405  45.525
    1STR    H2928345  59.950  31.177  45.556
    1STR    H2A28346  59.861  30.941  45.296
    1STR    H2B28347  59.847  30.986  45.464
    1STR    H2C28348  59.996  30.911  45.408
    1STR   BCK128349  60.150  45.983  59.989
    1STR    O0328350   0.077  45.922  59.927
    1STR    N0428351   0.004  46.106  60.044
    1STR    C0528352   0.112  46.197  60.045
    1STR    C0628353   0.086  46.338  60.037
    1STR    C0728354   0.190  46.436  60.037
    1STR    N0828355   0.160  46.575  60.035
    1STR    C0928356   0.239  46.680  60.004
    1STR    O0A28357   0.354  46.669  59.961
    1STR    O0B28358   0.178  46.801  60.023
    1STR    C0C28359   0.246  46.923  59.986
    1STR    C0D28360   0.234  46.944  59.834
    1STR    C0E28361   0.193  47.048  60.063
    1STR    O0F28362   0.260  47.168  60.021
    1STR    C0G28363   0.221  47.290  60.084
    1STR    C0H28364   0.286  47.299   0.063
    1STR    C0I28365   0.263  47.412  59.997
    1STR    O0J28366   0.218  47.535  60.057
    1STR    C0K28367   0.360  58.437   0.175
    1STR    C0M28368   0.315  58.413   0.030
    1STR    C0N28369   0.284  58.562   0.230
    1STR    O0O28370   0.318  58.682   0.158
    1STR    C0P28371   0.227  58.781   0.127
    1STR    O0Q28372   0.106  58.774   0.143
    1STR    N0R28373   0.293  58.887   0.080
    1STR    C0S28374   0.262  59.017   0.034
    1STR    C0T28375   0.371  59.105   0.037
    1STR    C0U28376   0.363  59.233  60.142
    1STR    C0V28377   0.245  59.279  60.082
    1STR    C0W28378   0.253  59.412  60.009
    1STR    C0X28379   0.128  59.198  60.084
    1STR    N0Y28380   0.011  59.244  60.018
    1STR   BCK228381  60.111  59.366  60.023
    1STR    O1028382  60.132  59.450  60.110
    1STR    C1328383   0.138  59.065  60.139
    1STR    C1428384   0.323  46.390  60.044
    1STR    C1528385   0.351  46.253  60.057
    1STR    C1628386   0.248  46.157  60.062
    1STR    C1728387   0.290  46.015  60.093
    1STR    H1B28388  60.079  46.138  60.087
    1STR    H1C28389  60.144  46.371  60.028
    1STR    H1D28390   0.067  46.604  60.059
    1STR    H1E28391   0.352  46.914  60.011
    1STR    H1F28392   0.130  46.955  59.804
    1STR    H1G28393   0.287  47.034  59.803
    1STR    H1H28394   0.277  46.861  59.779
    1STR    H1I28395   0.208  47.032   0.010
    1STR    H1J28396   0.086  47.058  60.047
    1STR    H1K28397   0.112  47.293  60.094
    1STR    H1M28398   0.394  47.294   0.056
    1STR    H1N28399   0.252  47.220   0.130
    1STR    H1O28400   0.261  47.394   0.111
    1STR    H1P28401   0.371  47.413  59.985
    1STR    H1Q28402   0.220  47.401  59.897
    1STR   C01028403   0.254  47.656  59.989
    1STR   H01128404   0.360  47.652  59.960
    1STR   C01228405   0.167  47.675  59.864
    1STR   H01328406   0.061  47.675  59.890
    1STR   H01428407   0.184  47.597  59.790
    1STR   H01528408   0.188  47.770  59.816
    1STR   C01628409   0.237  47.775  60.086
    1STR   H01728410   0.133  47.781  60.119
    1STR   H01828411   0.296  47.756   0.016
    1STR   O01928412   0.277  47.898  60.025
    1STR   C02028413   0.261  48.016  60.105
    1STR   H02128414   0.164  48.014  60.155
    1STR   C02228415   0.373  48.024   0.049
    1STR   H02328416   0.471  48.022   0.001
    1STR   H02428417   0.369  47.943   0.121
    1STR   H02528418   0.367  48.117   0.106
    1STR   C02628419   0.262  48.140  60.012
    1STR   H02728420   0.358  48.146  59.960
    1STR   H02828421   0.185  48.129  59.936
    1STR   O02928422   0.240  48.259  60.089
    1STR   C03028423   0.243  48.382  60.015
    1STR   H03128424   0.328  48.381  59.946
    1STR   C03228425   0.112  48.400  59.937
    1STR   H03328426   0.026  48.397  60.004
    1STR   H03428427   0.099  48.324  59.861
    1STR   H03528428   0.111  48.497  59.887
    1STR   C03628429   0.265  48.497  60.115
    1STR   H03728430   0.182  48.502   0.025
    1STR   H03828431   0.355  48.478   0.013
    1STR   O03928432   0.277  48.621  60.045
    1STR   C04028433   0.293  48.737  60.126
    1STR   H04128434   0.224  48.734   0.051
    1STR   C04228435   0.438  48.746   0.017
    1STR   H04328436   0.509  48.746  60.094
    1STR   H04428437   0.464  48.664   0.083
    1STR   H04528438   0.454  48.839   0.073
    1STR   C04628439   0.257  48.861  60.041
    1STR   H04728440   0.324  48.869  59.956
    1STR   H04828441   0.156  48.848  60.001
    1STR   O04928442   0.263  48.979  60.122
    1STR   C05028443   0.235  49.101  60.053
    1STR   H05128444   0.285  49.102  59.956
    1STR   C05228445   0.084  49.117  60.035
    1STR   H05328446   0.031  49.111  60.130
    1STR   H05428447   0.042  49.041  59.969
    1STR   H05528448   0.060  49.214  59.990
    1STR   C05628449   0.293  49.216  60.138
    1STR   H05728450   0.245  49.219   0.075
    1STR   H05828451   0.399  49.197  60.155
    1STR   O05928452   0.275  49.340  60.069
    1STR   C06028453   0.322  49.455  60.138
    1STR   H06128454   0.293  49.450   0.083
    1STR   C06228455   0.475  49.466  60.126
    1STR   H06328456   0.506  49.467  60.021
    1STR   H06428457   0.526  49.384   0.016
    1STR   H06528458   0.511  49.558   0.011
    1STR   C06628459   0.252  49.578  60.076
    1STR   H06728460   0.280  49.587  59.971
    1STR   H06828461   0.144  49.563  60.080
    1STR   O06928462   0.288  49.695  60.148
    1STR   C07028463   0.234  49.817  60.098
    1STR   H07128464   0.241  49.819  59.989
    1STR   C07228465   0.087  49.830  60.142
    1STR   H07328466   0.077  49.823   0.090
    1STR   H07428467   0.024  49.754  60.098
    1STR   H07528468   0.046  49.927  60.111
    1STR   C07628469   0.319  49.932  60.153
    1STR   H07728470   0.313  49.934   0.102
    1STR   H07828471   0.423  49.915  60.127
    1STR   O07928472   0.274  50.056  60.098
    1STR   C08028473   0.342  50.172  60.145
    1STR   H08128474   0.358  50.166   0.093
    1STR   C08228475   0.477  50.185  60.072
    1STR   H08328476   0.464  50.186  59.964
    1STR   H08428477   0.545  50.103  60.097
    1STR   H08528478   0.527  50.278  60.101
    1STR   C08628479   0.252  50.293  60.116
    1STR   H08728480   0.235  50.303  60.009
    1STR   H08828481   0.155  50.276   0.003
    1STR   O08928482   0.312  50.411   0.010
    1STR   C09028483   0.240  50.531  60.146
    1STR   H09128484   0.203  50.534  60.044
    1STR   C09228485   0.123  50.542   0.085
    1STR   H09328486   0.158  50.535   0.188
    1STR   H09428487   0.048  50.465   0.069
    1STR   H09528488   0.072  50.638   0.075
    1STR   C09628489   0.339  50.648   0.004
    1STR   H09728490   0.377  50.649   0.106
    1STR   H09828491   0.425  50.632  60.098
    1STR   O09928492   0.274  50.771  60.133
    1STR   C10028493   0.354  50.887  60.149
    1STR   H10128494   0.411  50.882   0.081
    1STR   C10228495   0.449  50.903  60.029
    1STR   H10328496   0.393  50.904  59.935
    1STR   H10428497   0.522  50.822  60.023
    1STR   H10528498   0.505  50.996  60.036
    1STR   C10628499   0.258  51.007   0.000
    1STR   H10728500   0.200  51.017  60.068
    1STR   H10828501   0.187  50.988   0.081
    1STR   O10928502   0.333  51.126   0.026
    1STR   C11028503   0.256  51.245   0.035
    1STR   H11128504   0.181  51.248  60.116
    1STR   C11228505   0.188  51.254   0.172
    1STR   H11328506   0.261  51.246   0.253
    1STR   H11428507   0.115  51.175   0.187
    1STR   H11528508   0.136  51.349   0.184
    1STR   C11628509   0.352  51.363   0.012
    1STR   H11728510   0.428  51.365   0.091
    1STR   H11828511   0.404  51.349  60.078
    1STR   O11928512   0.278  51.485   0.011
    1STR   C12028513   0.356  51.603  60.155
    1STR   H12128514   0.446  51.598   0.057
    1STR   C12228515   0.395  51.620  60.007
    1STR   H12328516   0.307  51.621  59.943
    1STR   H12428517   0.461  51.541  59.972
    1STR   H12528518   0.447  51.715  59.992
    1STR   C12628519   0.271  51.721   0.045
    1STR   H12728520   0.181  51.731  60.144
    1STR   H12828521   0.239  51.701   0.147
    1STR   O12928522   0.349  51.841   0.040
    1STR   C13028523   0.280  51.959   0.080
    1STR   H13128524   0.179  51.960   0.037
    1STR   C13228525   0.273  51.966   0.233
    1STR   H13328526   0.372  51.959   0.277
    1STR   H13428527   0.212  51.886   0.275
    1STR   H13528528   0.228  52.060   0.265
    1STR   C13628529   0.358  52.078   0.022
    1STR   H13728530   0.458  52.081   0.063
    1STR   H13828531   0.368  52.065  60.074
    1STR   O13928532   0.288  52.199   0.051
    1STR   C14028533   0.351  52.318   0.006
    1STR   H14128534   0.458  52.314   0.027
    1STR   C14228535   0.327  52.337  60.016
    1STR   H14328536   0.221  52.336  59.992
    1STR   H14428537   0.375  52.259  59.957
    1STR   H14528538   0.368  52.432  59.982
    1STR   C14628539   0.292  52.435   0.087
    1STR   H14728540   0.185  52.443   0.068
    1STR   H14828541   0.303  52.414   0.194
    1STR   O14928542   0.359  52.556   0.053
    1STR   C15028543   0.311  52.673   0.118
    1STR   H15128544   0.201  52.673   0.119
    1STR   C15228545   0.365  52.679   0.262
    1STR   H15328546   0.474  52.674   0.263
    1STR   H15428547   0.327  52.598   0.324
    1STR   H15528548   0.336  52.772   0.310
    1STR   C15628549   0.357  52.793   0.035
    1STR   H15728550   0.466  52.798   0.033
    1STR   H15828551   0.323  52.781  60.092
    1STR   O15928552   0.303  52.913   0.091
    1STR   C16028553   0.342  53.033   0.026
    1STR   H16128554   0.448  53.031   0.002
    1STR   C16228555   0.260  53.052  60.057
    1STR   H16328556   0.153  53.050  60.078
    1STR   H16428557   0.281  52.975  59.983
    1STR   H16528558   0.282  53.148  60.011
    1STR   C16628559   0.318  53.149   0.125
    1STR   H16728560   0.212  53.155   0.149
    1STR   H16828561   0.371  53.127   0.217
    1STR   O16928562   0.364  53.271   0.067
    1STR   C17028563   0.344  53.387   0.147
    1STR   H17128564   0.244  53.385   0.192
    1STR   C17228565   0.451  53.393   0.258
    1STR   H17328566   0.552  53.390   0.215
    1STR   H17428567   0.442  53.311   0.329
    1STR   H17528568   0.442  53.486   0.314
    1STR   C17628569   0.352  53.508   0.054
    1STR   H17728570   0.451  53.514   0.009
    1STR   H17828571   0.280  53.496  60.133
    1STR   O17928572   0.323  53.627   0.128
    1STR   C18028573   0.331  53.748   0.054
    1STR   H18128574   0.419  53.747  60.150
    1STR   C18228575   0.204  53.766  60.129
    1STR   H18328576   0.114  53.762   0.031
    1STR   H18428577   0.195  53.689  60.052
    1STR   H18528578   0.205  53.862  60.078
    1STR   C18628579   0.347  53.863   0.155
    1STR   H18728580   0.260  53.867   0.220
    1STR   H18828581   0.433  53.842   0.219
    1STR   O18928582   0.365  53.986   0.085
    1STR   C19028583   0.377  54.101   0.168
    1STR   H19128584   0.303  54.097   0.249
    1STR   C19228585   0.519  54.109   0.226
    1STR   H19328586   0.594  54.108   0.147
    1STR   H19428587   0.540  54.027   0.294
    1STR   H19528588   0.532  54.201   0.283
    1STR   C19628589   0.345  54.223   0.081
    1STR   H19728590   0.418  54.231  60.159
    1STR   H19828591   0.247  54.210   0.035
    1STR   O19928592   0.347  54.341   0.161
    1STR   C20028593   0.323  54.463   0.091
    1STR   H20128594   0.378  54.464  60.157
    1STR   C20228595   0.172  54.478   0.065
    1STR   H20328596   0.115  54.473   0.157
    1STR   H20428597   0.134  54.402  60.157
    1STR   H20528598   0.151  54.575   0.019
    1STR   C20628599   0.376  54.577   0.179
    1STR   H20728600   0.322  54.580   0.273
    1STR   H20828601   0.481  54.558   0.202
    1STR   O20928602   0.363  54.701   0.109
    1STR   C21028603   0.406  54.816   0.181
    1STR   H21128604   0.371  54.811   0.284
    1STR   C21228605   0.559  54.826   0.177
    1STR   H21328606   0.596  54.826   0.074
    1STR   H21428607   0.607  54.744   0.230
    1STR   H21528608   0.593  54.918   0.224
    1STR   C21628609   0.340  54.938   0.114
    1STR   H21728610   0.373  54.947   0.011
    1STR   H21828611   0.232  54.924   0.112
    1STR   O21928612   0.372  55.056   0.188
    1STR   C22028613   0.320  55.178   0.135
    1STR   H22128614   0.333  55.180   0.027
    1STR   C22228615   0.171  55.191   0.172
    1STR   H22328616   0.156  55.183   0.279
    1STR   H22428617   0.110  55.114   0.124
    1STR   H22528618   0.132  55.287   0.139
    1STR   C22628619   0.402  55.293   0.195
    1STR   H22728620   0.391  55.295   0.303
    1STR   H22828621   0.508  55.275   0.174
    1STR   O22928622   0.360  55.417   0.138
    1STR   C23028623   0.427  55.533   0.187
    1STR   H23128624   0.436  55.527   0.296
    1STR   C23228625   0.566  55.545   0.123
    1STR   H23328626   0.558  55.545   0.014
    1STR   H23428627   0.632  55.463   0.152
    1STR   H23528628   0.614  55.637   0.153
    1STR   C23628629   0.339  55.655   0.154
    1STR   H23728630   0.328  55.664   0.046
    1STR   H23828631   0.239  55.638   0.195
    1STR   O23928632   0.397  55.773   0.210
    1STR   C24028633   0.326  55.894   0.184
    1STR   H24128634   0.294  55.897   0.079
    1STR   C24228635   0.203  55.903   0.276
    1STR   H24328636   0.233  55.895   0.381
    1STR   H24428637   0.130  55.826   0.256
    1STR   H24528638   0.153  55.999   0.263
    1STR   C24628639   0.423  56.011   0.207
    1STR   H24728640   0.456  56.012   0.311
    1STR   H24828641   0.512  55.995   0.145
    1STR   O24928642   0.360  56.135   0.173
    1STR   C25028643   0.439  56.252   0.192
    1STR   H25128644   0.492  56.246   0.288
    1STR   C25228645   0.541  56.265   0.078
    1STR   H25328646   0.491  56.265  60.141
    1STR   H25428647   0.614  56.184   0.078
    1STR   H25528648   0.596  56.358   0.086
    1STR   C25628649   0.345  56.373   0.198
    1STR   H25728650   0.291  56.383   0.103
    1STR   H25828651   0.270  56.356   0.275
    1STR   O25928652   0.418  56.493   0.226
    1STR   C26028653   0.341  56.613   0.232
    1STR   H26128654   0.270  56.616   0.149
    1STR   C26228655   0.265  56.619   0.366
    1STR   H26328656   0.334  56.610   0.450
    1STR   H26428657   0.191  56.540   0.375
    1STR   H26528658   0.213  56.714   0.376
    1STR   C26628659   0.437  56.733   0.216
    1STR   H26728660   0.509  56.734   0.298
    1STR   H26828661   0.493  56.720   0.124
    1STR   O26928662   0.364  56.857   0.214
    1STR   C27028663   0.443  56.976   0.199
    1STR   H27128664   0.529  56.970   0.266
    1STR   C27228665   0.490  56.989   0.053
    1STR   H27328666   0.405  56.987  60.145
    1STR   H27428667   0.558  56.910   0.024
    1STR   H27528668   0.542  57.083   0.039
    1STR   C27628669   0.358  57.097   0.242
    1STR   H27728670   0.270  57.105   0.178
    1STR   H27828671   0.321  57.079   0.343
    1STR   O27928672   0.434  57.219   0.238
    1STR   C28028673   0.364  57.339   0.277
    1STR   H28128674   0.266  57.341   0.230
    1STR   C28228675   0.349  57.341   0.430
    1STR   H28328676   0.446  57.331   0.479
    1STR   H28428677   0.284  57.261   0.466
    1STR   H28528678   0.304  57.435   0.463
    1STR   C28628679   0.443  57.463   0.227
    1STR   H28728680   0.542  57.464   0.272
    1STR   H28828681   0.458  57.452   0.120
    1STR   O28928682   0.374  57.586   0.257
    1STR   C29028683   0.437  57.707   0.212
    1STR   H29128684   0.543  57.705   0.239
    1STR   C29228685   0.423  57.719   0.059
    1STR   H29328686   0.318  57.713   0.029
    1STR   H29428687   0.478  57.641   0.006
    1STR   H29528688   0.462  57.815   0.024
    1STR   C29628689   0.372  57.829   0.283
    1STR   H29728690   0.265  57.831   0.261
    1STR   H29828691   0.381  57.815   0.391
    1STR   O29928692   0.431  57.955   0.244
    1STR   C30028693   0.376  58.074   0.305
    1STR   H30128694   0.267  58.067   0.305
    1STR   C30228695   0.427  58.084   0.449
    1STR   H30328696   0.536  58.080   0.453
    1STR   H30428697   0.389  58.004   0.513
    1STR   H30528698   0.397  58.178   0.495
    1STR   C30628699   0.414  58.200   0.221
    1STR   H30728700   0.521  58.220   0.232
    1STR   H30828701   0.399  58.174   0.117
    1STR   O30928702   0.337  58.318   0.254
    1STR    H1R28703   0.467  58.459   0.177
    1STR    H1S28704   0.323  58.504  60.131
    1STR    H1T28705   0.210  58.381   0.027
    1STR    H1U28706   0.374  58.338  60.139
    1STR    H1V28707   0.312  58.578   0.335
    1STR    H1W28708   0.176  58.545   0.230
    1STR    H1X28709   0.391  58.865   0.083
    1STR    H1Y28710   0.466  59.074   0.079
    1STR    H1Z28711   0.451  59.296  60.143
    1STR    H2028712   0.193  59.411  59.918
    1STR    H2128713   0.217  59.493  60.073
    1STR    H2228714   0.355  59.436  59.979
    1STR    H2328715  60.128  59.180  59.953
    1STR    H2728716   0.053  58.999  60.138
    1STR    H2828717   0.407  46.457  60.044
    1STR    H2928718   0.454  46.222  60.066
    1STR    H2A28719   0.214  45.962  60.150
    1STR    H2B28720   0.381  46.013  60.153
    1STR    H2C28721   0.311  45.960  60.001
    1STR   BCK128722  60.020  45.967  14.952
    1STR    O0328723  59.943  45.940  15.044
    1STR    N0428724  60.045  46.093  14.910
    1STR    C0528725  59.954  46.201  14.915
    1STR    C0628726  59.992  46.333  14.955
    1STR    C0728727  59.900  46.443  14.948
    1STR    N0828728  59.937  46.577  14.981
    1STR    C0928729  59.872  46.692  14.954
    1STR    O0A28730  59.767  46.699  14.889
    1STR    O0B28731  59.933  46.804  15.004
    1STR    C0C28732  59.865  46.932  14.997
    1STR    C0D28733  59.775  46.947  15.122
    1STR    C0E28734  59.960  47.054  14.982
    1STR    O0F28735  59.881  47.174  14.970
    1STR    C0G28736  59.952  47.297  14.948
    1STR    C0H28737  59.995  47.305  14.801
    1STR    C0I28738  59.861  47.417  14.984
    1STR    O0J28739  59.932  47.540  14.971
    1STR    C0K28740  60.006  58.417  14.602
    1STR    C0M28741  59.959  58.424  14.748
    1STR    C0N28742  60.095  58.539  14.568
    1STR    O0O28743  60.016  58.657  14.547
    1STR    C0P28744  60.030  58.768  14.622
    1STR    O0Q28745  60.109  58.783  14.715
    1STR    N0R28746  59.939  58.858  14.584
    1STR    C0S28747  59.898  58.977  14.646
    1STR    C0T28748  59.761  58.988  14.674
    1STR    C0U28749  59.710  59.100  14.741
    1STR    C0V28750  59.794  59.206  14.778
    1STR    C0W28751  59.739  59.314  14.870
    1STR    C0X28752  59.931  59.204  14.739
    1STR    N0Y28753  60.014  59.312  14.771
    1STR   BCK228754  60.005  59.443  14.741
    1STR    O1028755  60.077  59.523  14.800
    1STR    C1328756  59.983  59.086  14.678
    1STR    C1428757  59.768  46.413  14.906
    1STR    C1528758  59.731  46.286  14.862
    1STR    C1628759  59.824  46.181  14.862
    1STR    C1728760  59.781  46.050  14.796
    1STR    H1B28761  60.128  46.105  14.854
    1STR    H1C28762  60.092  46.351  14.990
    1STR    H1D28763  60.023  46.592  15.030
    1STR    H1E28764  59.801  46.935  14.909
    1STR    H1F28765  59.834  46.949  15.213
    1STR    H1G28766  59.717  47.039  15.117
    1STR    H1H28767  59.704  46.864  15.129
    1STR    H1I28768  60.022  47.040  14.894
    1STR    H1J28769  60.026  47.062  15.068
    1STR    H1K28770  60.040  47.301  15.013
    1STR    H1M28771  59.909  47.298  14.734
    1STR    H1N28772  60.066  47.227  14.774
    1STR    H1O28773  60.044  47.401  14.781
    1STR    H1P28774  59.772  47.417  14.920
    1STR    H1Q28775  59.825  47.405  15.087
    1STR   C01028776  59.858  47.660  14.995
    1STR   H01128777  59.761  47.655  14.945
    1STR   C01228778  59.837  47.679  15.146
    1STR   H01328779  59.933  47.680  15.199
    1STR   H01428780  59.775  47.602  15.190
    1STR   H01528781  59.788  47.775  15.167
    1STR   C01628782  59.937  47.779  14.935
    1STR   H01728783  60.035  47.786  14.982
    1STR   H01828784  59.953  47.760  14.829
    1STR   O01928785  59.865  47.902  14.952
    1STR   C02028786  59.930  48.019  14.904
    1STR   H02128787  60.036  48.017  14.932
    1STR   C02228788  59.918  48.027  14.751
    1STR   H02328789  59.813  48.025  14.720
    1STR   H02428790  59.969  47.946  14.701
    1STR   H02528791  59.961  48.120  14.713
    1STR   C02628792  59.866  48.143  14.971
    1STR   H02728793  59.761  48.149  14.944
    1STR   H02828794  59.871  48.131  15.079
    1STR   O02928795  59.935  48.262  14.931
    1STR   C03028796  59.883  48.384  14.983
    1STR   H03128797  59.774  48.384  14.977
    1STR   C03228798  59.927  48.402  15.129
    1STR   H03328799  60.036  48.398  15.137
    1STR   H03428800  59.885  48.326  15.194
    1STR   H03528801  59.895  48.499  15.167
    1STR   C03628802  59.934  48.499  14.894
    1STR   H03728803  60.043  48.504  14.898
    1STR   H03828804  59.907  48.480  14.791
    1STR   O03928805  59.877  48.623  14.938
    1STR   C04028806  59.921  48.739  14.867
    1STR   H04128807  60.029  48.735  14.851
    1STR   C04228808  59.848  48.748  14.731
    1STR   H04328809  59.740  48.747  14.745
    1STR   H04428810  59.874  48.665  14.665
    1STR   H04528811  59.874  48.840  14.680
    1STR   C04628812  59.890  48.862  14.954
    1STR   H04728813  59.783  48.870  14.971
    1STR   H04828814  59.937  48.849  15.051
    1STR   O04928815  59.940  48.980  14.890
    1STR   C05028816  59.915  49.102  14.960
    1STR   H05128817  59.812  49.103  14.998
    1STR   C05228818  60.014  49.118  15.076
    1STR   H05328819  60.117  49.112  15.040
    1STR   H05428820  60.000  49.041  15.152
    1STR   H05528821  60.001  49.214  15.125
    1STR   C05628822  59.928  49.217  14.858
    1STR   H05728823  60.030  49.220  14.819
    1STR   H05828824  59.862  49.198  14.774
    1STR   O05928825  59.895  49.340  14.921
    1STR   C06028826  59.908  49.456  14.839
    1STR   H06128827  60.000  49.451  14.781
    1STR   C06228828  59.787  49.467  14.744
    1STR   H06328829  59.693  49.467  14.800
    1STR   H06428830  59.783  49.385  14.673
    1STR   H06528831  59.791  49.559  14.687
    1STR   C06628832  59.917  49.578  14.932
    1STR   H06728833  59.826  49.588  14.990
    1STR   H06828834  59.999  49.563  15.002
    1STR   O06928835  59.939  49.696  14.854
    1STR   C07028836  59.946  49.817  14.928
    1STR   H07128837  59.867  49.820  15.004
    1STR   C07228838  60.084  49.831  14.995
    1STR   H07328839   0.004  49.824  14.921
    1STR   H07428840  60.101  49.754  15.070
    1STR   H07528841  60.093  49.927  15.045
    1STR   C07628842  59.920  49.933  14.830
    1STR   H07728843  59.998  49.935  14.753
    1STR   H07828844  59.825  49.915  14.779
    1STR   O07928845  59.917  50.056  14.901
    1STR   C08028846  59.897  50.172  14.820
    1STR   H08128847  59.959  50.166  14.730
    1STR   C08228848  59.749  50.185  14.782
    1STR   H08328849  59.685  50.186  14.871
    1STR   H08428850  59.715  50.104  14.718
    1STR   H08528851  59.731  50.278  14.728
    1STR   C08628852  59.945  50.293  14.902
    1STR   H08728853  59.884  50.303  14.992
    1STR   H08828854  60.048  50.276  14.934
    1STR   O08928855  59.936  50.411  14.822
    1STR   C09028856  59.974  50.532  14.888
    1STR   H09128857  59.932  50.534  14.989
    1STR   C09228858  60.127  50.542  14.894
    1STR   H09328859   0.011  50.535  14.795
    1STR   H09428860   0.011  50.465  14.956
    1STR   H09528861  60.157  50.638  14.936
    1STR   C09628862  59.913  50.648  14.808
    1STR   H09728863  59.954  50.649  14.707
    1STR   H09828864  59.805  50.632  14.799
    1STR   O09928865  59.940  50.771  14.875
    1STR   C10028866  59.891  50.888  14.809
    1STR   H10128867  59.912  50.882  14.702
    1STR   C10228868  59.740  50.903  14.834
    1STR   H10328869  59.718  50.904  14.940
    1STR   H10428870  59.683  50.822  14.788
    1STR   H10528871  59.704  50.996  14.791
    1STR   C10628872  59.970  51.007  14.866
    1STR   H10728873  59.950  51.017  14.972
    1STR   H10828874  60.076  50.989  14.854
    1STR   O10928875  59.932  51.126  14.796
    1STR   C11028876  59.995  51.245  14.841
    1STR   H11128877  59.997  51.248  14.950
    1STR   C11228878  60.138  51.254  14.785
    1STR   H11328879  60.138  51.246  14.677
    1STR   H11428880   0.042  51.175  14.824
    1STR   H11528881   0.024  51.349  14.812
    1STR   C11628882  59.909  51.363  14.793
    1STR   H11728883  59.906  51.365  14.684
    1STR   H11828884  59.806  51.349  14.828
    1STR   O11928885  59.962  51.485  14.844
    1STR   C12028886  59.894  51.603  14.803
    1STR   H12128887  59.870  51.598  14.697
    1STR   C12228888  59.765  51.620  14.886
    1STR   H12328889  59.787  51.621  14.993
    1STR   H12428890  59.693  51.541  14.867
    1STR   H12528891  59.716  51.715  14.861
    1STR   C12628892  59.990  51.721  14.824
    1STR   H12728893  60.015  51.731  14.929
    1STR   H12828894  60.083  51.701  14.770
    1STR   O12928895  59.930  51.841  14.775
    1STR   C13028896  60.007  51.959  14.792
    1STR   H13128897  60.053  51.960  14.891
    1STR   C13228898  60.116  51.966  14.683
    1STR   H13328899  60.073  51.959  14.584
    1STR   H13428900   0.029  51.885  14.693
    1STR   H13528901   0.011  52.060  14.690
    1STR   C13628902  59.911  52.078  14.782
    1STR   H13728903  59.865  52.081  14.683
    1STR   H13828904  59.831  52.065  14.855
    1STR   O13928905  59.983  52.199  14.808
    1STR   C14028906  59.906  52.318  14.798
    1STR   H14128907  59.841  52.314  14.710
    1STR   C14228908  59.821  52.337  14.925
    1STR   H14328909  59.884  52.336  15.014
    1STR   H14428910  59.746  52.259  14.937
    1STR   H14528911  59.768  52.432  14.923
    1STR   C14628912  60.004  52.435  14.779
    1STR   H14728913  60.070  52.443  14.865
    1STR   H14828914  60.067  52.414  14.692
    1STR   O14928915  59.931  52.556  14.759
    1STR   C15028916  60.011  52.673  14.743
    1STR   H15128917  60.092  52.673  14.816
    1STR   C15228918  60.068  52.679  14.600
    1STR   H15328919  59.988  52.674  14.526
    1STR   H15428920  60.137  52.597  14.580
    1STR   H15528921  60.122  52.772  14.585
    1STR   C15628922  59.921  52.793  14.773
    1STR   H15728923  59.839  52.798  14.701
    1STR   H15828924  59.876  52.781  14.872
    1STR   O15928925  59.998  52.913  14.768
    1STR   C16028926  59.926  53.033  14.790
    1STR   H16128927  59.831  53.031  14.736
    1STR   C16228928  59.899  53.052  14.941
    1STR   H16328929  59.993  53.050  14.997
    1STR   H16428930  59.834  52.975  14.981
    1STR   H16528931  59.851  53.148  14.960
    1STR   C16628932  60.010  53.149  14.733
    1STR   H16728933  60.105  53.155  14.787
    1STR   H16828934  60.033  53.127  14.629
    1STR   O16928935  59.937  53.271  14.745
    1STR   C17028936  60.006  53.387  14.699
    1STR   H17128937  60.110  53.385  14.733
    1STR   C17228938  60.001  53.393  14.545
    1STR   H17328939  59.898  53.390  14.509
    1STR   H17428940  60.055  53.311  14.499
    1STR   H17528941  60.046  53.486  14.509
    1STR   C17628942  59.937  53.508  14.762
    1STR   H17728943  59.833  53.514  14.729
    1STR   H17828944  59.935  53.496  14.871
    1STR   O17928945  60.008  53.627  14.727
    1STR   C18028946  59.953  53.748  14.777
    1STR   H18128947  59.844  53.747  14.764
    1STR   C18228948  59.989  53.766  14.925
    1STR   H18328949  60.097  53.762  14.940
    1STR   H18428950  59.943  53.689  14.988
    1STR   H18528951  59.954  53.862  14.962
    1STR   C18628952  60.009  53.862  14.691
    1STR   H18728953  60.118  53.867  14.702
    1STR   H18828954  59.989  53.842  14.586
    1STR   O18928955  59.949  53.985  14.731
    1STR   C19028956  59.996  54.101  14.662
    1STR   H19128957  60.104  54.097  14.652
    1STR   C19228958  59.930  54.109  14.523
    1STR   H19328959  59.821  54.108  14.530
    1STR   H19428960  59.960  54.026  14.458
    1STR   H19528961  59.959  54.201  14.472
    1STR   C19628962  59.960  54.223  14.748
    1STR   H19728963  59.852  54.231  14.758
    1STR   H19828964  60.001  54.210  14.847
    1STR   O19928965  60.013  54.341  14.687
    1STR   C20028966  59.984  54.462  14.755
    1STR   H20128967  59.880  54.463  14.787
    1STR   C20228968  60.077  54.478  14.876
    1STR   H20328969   0.022  54.473  14.847
    1STR   H20428970  60.060  54.402  14.952
    1STR   H20528971  60.061  54.575  14.925
    1STR   C20628972  60.003  54.577  14.654
    1STR   H20728973  60.107  54.580  14.621
    1STR   H20828974  59.942  54.557  14.566
    1STR   O20928975  59.966  54.700  14.715
    1STR   C21028976  59.983  54.816  14.633
    1STR   H21128977  60.078  54.811  14.580
    1STR   C21228978  59.867  54.826  14.532
    1STR   H21328979  59.771  54.826  14.583
    1STR   H21428980  59.868  54.743  14.461
    1STR   H21528981  59.875  54.918  14.474
    1STR   C21628982  59.987  54.938  14.726
    1STR   H21728983  59.892  54.947  14.780
    1STR   H21828984  60.064  54.923  14.801
    1STR   O21928985  60.013  55.055  14.650
    1STR   C22028986  60.015  55.177  14.724
    1STR   H22128987  59.933  55.179  14.795
    1STR   C22228988  60.149  55.190  14.798
    1STR   H22328989   0.073  55.183  14.729
    1STR   H22428990   0.002  55.113  14.874
    1STR   H22528991  60.156  55.286  14.849
    1STR   C22628992  59.995  55.292  14.624
    1STR   H22728993  60.077  55.294  14.552
    1STR   H22828994  59.903  55.274  14.568
    1STR   O22928995  59.987  55.415  14.695
    1STR   C23028996  59.972  55.531  14.613
    1STR   H23128997  60.038  55.525  14.527
    1STR   C23228998  59.826  55.544  14.567
    1STR   H23328999  59.758  55.545  14.652
    1STR   H23429000  59.796  55.462  14.501
    1STR   H23529001  59.811  55.636  14.511
    1STR   C23629002  60.014  55.653  14.697
    1STR   H23729003  59.949  55.663  14.784
    1STR   H23829004  60.115  55.636  14.735
    1STR   O23929005  60.010  55.770  14.617
    1STR   C24029006  60.044  55.891  14.685
    1STR   H24129007  59.997  55.894  14.783
    1STR   C24229008   0.037  55.902  14.699
    1STR   H24329009   0.086  55.894  14.602
    1STR   H24429010   0.077  55.824  14.764
    1STR   H24529011   0.065  55.998  14.743
    1STR   C24629012  59.987  56.008  14.602
    1STR   H24729013  60.033  56.009  14.503
    1STR   H24829014  59.880  55.992  14.587
    1STR   O24929015  60.011  56.131  14.670
    1STR   C25029016  59.966  56.248  14.602
    1STR   H25129017  59.992  56.242  14.496
    1STR   C25229018  59.813  56.262  14.618
    1STR   H25329019  59.785  56.263  14.723
    1STR   H25429020  59.759  56.182  14.569
    1STR   H25529021  59.779  56.356  14.573
    1STR   C25629022  60.040  56.369  14.662
    1STR   H25729023  60.015  56.378  14.768
    1STR   H25829024  60.147  56.350  14.656
    1STR   O25929025  60.005  56.487  14.591
    1STR   C26029026  60.066  56.607  14.639
    1STR   H26129027  60.062  56.610  14.748
    1STR   C26229028   0.052  56.615  14.591
    1STR   H26329029   0.058  56.607  14.483
    1STR   H26429030   0.113  56.536  14.635
    1STR   H26529031   0.097  56.710  14.620
    1STR   C26629032  59.983  56.726  14.586
    1STR   H26729033  59.986  56.727  14.477
    1STR   H26829034  59.879  56.712  14.615
    1STR   O26929035  60.034  56.849  14.638
    1STR   C27029036  59.967  56.967  14.594
    1STR   H27129037  59.948  56.962  14.487
    1STR   C27229038  59.834  56.982  14.670
    1STR   H27329039  59.850  56.982  14.778
    1STR   H27429040  59.764  56.903  14.646
    1STR   H27529041  59.786  57.077  14.644
    1STR   C27629042  60.060  57.087  14.620
    1STR   H27729043  60.081  57.096  14.727
    1STR   H27829044  60.156  57.068  14.571
    1STR   O27929045  60.002  57.207  14.570
    1STR   C28029046  60.079  57.326  14.590
    1STR   H28129047  60.119  57.328  14.691
    1STR   C28229048   0.034  57.331  14.488
    1STR   H28329049  60.156  57.323  14.386
    1STR   H28429050   0.106  57.251  14.503
    1STR   H28529051   0.088  57.425  14.495
    1STR   C28629052  59.985  57.448  14.574
    1STR   H28729053  59.943  57.449  14.473
    1STR   H28829054  59.901  57.436  14.643
    1STR   O28929055  60.055  57.570  14.600
    1STR   C29029056  59.978  57.690  14.588
    1STR   H29129057  59.918  57.687  14.497
    1STR   C29229058  59.887  57.705  14.711
    1STR   H29329059  59.944  57.702  14.803
    1STR   H29429060  59.811  57.627  14.715
    1STR   H29529061  59.834  57.801  14.707
    1STR   C29629062  60.076  57.809  14.576
    1STR   H29729063  60.138  57.815  14.666
    1STR   H29829064  60.143  57.791  14.492
    1STR   O29929065  60.005  57.933  14.558
    1STR   C30029066  60.087  58.050  14.547
    1STR   H30129067   0.006  58.048  14.622
    1STR   C30229068  60.149  58.056  14.406
    1STR   H30329069  60.072  58.050  14.329
    1STR   H30429070   0.060  57.975  14.389
    1STR   H30529071   0.043  58.150  14.392
    1STR   C30629072  59.999  58.175  14.574
    1STR   H30729073  59.922  58.183  14.497
    1STR   H30829074  59.948  58.160  14.669
    1STR   O30929075  60.078  58.295  14.579
    1STR    H1R29076  59.920  58.420  14.535
    1STR    H1S29077  59.913  58.521  14.770
    1STR    H1T29078  60.043  58.412  14.816
    1STR    H1U29079  59.885  58.348  14.772
    1STR    H1V29080  60.149  58.520  14.475
    1STR    H1W29081   0.012  58.554  14.644
    1STR    H1X29082  59.885  58.825  14.507
    1STR    H1Y29083  59.693  58.908  14.649
    1STR    H1Z29084  59.605  59.102  14.768
    1STR    H2029085  59.798  59.316  14.962
    1STR    H2129086  59.742  59.413  14.826
    1STR    H2229087  59.636  59.294  14.898
    1STR    H2329088  60.094  59.291  14.829
    1STR    H2729089  60.088  59.080  14.655
    1STR    H2829090  59.689  46.487  14.904
    1STR    H2929091  59.631  46.270  14.825
    1STR    H2A29092  59.862  46.010  14.735
    1STR    H2B29093  59.696  46.065  14.730
    1STR    H2C29094  59.754  45.977  14.872
    1STR   BCK129095  60.129  45.980  30.059
    1STR    O0329096   0.062  45.911  30.098
    1STR    N0429097  60.109  46.110  30.094
    1STR    C0529098   0.017  46.195  30.186
    1STR    C0629099   0.029  46.336  30.159
    1STR    C0729100   0.091  46.429  30.249
    1STR    N0829101   0.096  46.569  30.222
    1STR    C0929102   0.141  46.672  30.298
    1STR    O0A29103   0.189  46.660  30.410
    1STR    O0B29104   0.127  46.795  30.238
    1STR    C0C29105   0.177  46.915  30.303
    1STR    C0D29106   0.328  46.927  30.279
    1STR    C0E29107   0.103  47.045  30.258
    1STR    O0F29108   0.157  47.162  30.322
    1STR    C0G29109   0.093  47.288  30.291
    1STR    C0H29110  60.121  47.298  30.370
    1STR    C0I29111   0.185  47.408  30.326
    1STR    O0J29112   0.122  47.532  30.288
    1STR    C0K29113  59.974  58.432  30.475
    1STR    C0M29114  60.114  58.429  30.410
    1STR    C0N29115  59.889  58.547  30.413
    1STR    O0O29116  59.946  58.676  30.439
    1STR    C0P29117  59.939  58.778  30.349
    1STR    O0Q29118  59.893  58.770  30.235
    1STR    N0R29119  59.992  58.888  30.403
    1STR    C0S29120  60.021  59.017  30.354
    1STR    C0T29121  60.103  59.095  30.439
    1STR    C0U29122  60.147  59.222  30.401
    1STR    C0V29123  60.110  59.277  30.277
    1STR    C0W29124   0.016  59.407  30.235
    1STR    C0X29125  60.019  59.207  30.192
    1STR    N0Y29126  59.980  59.264  30.069
    1STR   BCK229127  59.929  59.387  30.046
    1STR    O1029128  59.893  59.465  30.134
    1STR    C1329129  59.979  59.075  30.231
    1STR    C1429130   0.145  46.375  30.368
    1STR    C1529131   0.131  46.239  30.399
    1STR    C1629132   0.065  46.150  30.312
    1STR    C1729133   0.043  46.010  30.366
    1STR    H1B29134  60.034  46.152  30.042
    1STR    H1C29135  60.150  46.373  30.066
    1STR    H1D29136   0.061  46.601  30.134
    1STR    H1E29137   0.160  46.905  30.411
    1STR    H1F29138   0.352  46.938  30.174
    1STR    H1G29139   0.369  47.015  30.331
    1STR    H1H29140   0.382  46.840  30.317
    1STR    H1I29141  60.157  47.034  30.281
    1STR    H1J29142   0.112  47.056  30.150
    1STR    H1K29143   0.072  47.292  30.184
    1STR    H1M29144  60.139  47.291  30.477
    1STR    H1N29145  60.049  47.221  30.342
    1STR    H1O29146  60.073  47.394  30.351
    1STR    H1P29147   0.207  47.409  30.433
    1STR    H1Q29148   0.280  47.397  30.274
    1STR   C01029149   0.193  47.653  30.319
    1STR   H01129150   0.231  47.649  30.421
    1STR   C01229151   0.310  47.672  30.221
    1STR   H01329152   0.275  47.672  30.118
    1STR   H01429153   0.385  47.595  30.231
    1STR   H01529154   0.360  47.768  30.238
    1STR   C01629155   0.095  47.773  30.310
    1STR   H01729156   0.053  47.779  30.209
    1STR   H01829157   0.011  47.754  30.378
    1STR   O01929158   0.159  47.896  30.344
    1STR   C02029159   0.078  48.014  30.335
    1STR   H02129160   0.020  48.012  30.243
    1STR   C02229161  60.144  48.023  30.456
    1STR   H02329162   0.040  48.021  30.550
    1STR   H02429163  60.072  47.941  30.458
    1STR   H02529164  60.087  48.116  30.454
    1STR   C02629165   0.170  48.139  30.329
    1STR   H02729166   0.231  48.145  30.419
    1STR   H02829167   0.239  48.127  30.245
    1STR   O02929168   0.092  48.258  30.313
    1STR   C03029169   0.166  48.381  30.310
    1STR   H03129170   0.242  48.380  30.388
    1STR   C03229171   0.232  48.399  30.173
    1STR   H03329172   0.158  48.396  30.093
    1STR   H03429173   0.307  48.323  30.152
    1STR   H03529174   0.282  48.496  30.167
    1STR   C03629175   0.068  48.497  30.340
    1STR   H03729176  60.151  48.501  30.264
    1STR   H03829177   0.018  48.477  30.435
    1STR   O03929178   0.139  48.621  30.346
    1STR   C04029179   0.059  48.737  30.369
    1STR   H04129180  60.129  48.733  30.308
    1STR   C04229181   0.022  48.746  30.518
    1STR   H04329182   0.111  48.745  30.581
    1STR   H04429183  60.118  48.664  30.549
    1STR   H04529184  60.127  48.838  30.538
    1STR   C04629185   0.141  48.860  30.325
    1STR   H04729186   0.232  48.868  30.385
    1STR   H04829187   0.172  48.847  30.221
    1STR   O04929188   0.061  48.978  30.339
    1STR   C05029189   0.127  49.100  30.306
    1STR   H05129190   0.228  49.102  30.347
    1STR   C05229191   0.132  49.116  30.153
    1STR   H05329192   0.033  49.111  30.109
    1STR   H05429193   0.194  49.040  30.105
    1STR   H05529194   0.175  49.213  30.126
    1STR   C05629195   0.048  49.216  30.371
    1STR   H05729196  60.107  49.219  30.331
    1STR   H05829197   0.040  49.197  30.478
    1STR   O05929198   0.115  49.339  30.347
    1STR   C06029199   0.050  49.455  30.399
    1STR   H06129200  60.103  49.450  30.379
    1STR   C06229201   0.075  49.466  30.550
    1STR   H06329202   0.182  49.467  30.572
    1STR   H06429203   0.030  49.384  30.605
    1STR   H06529204   0.033  49.558  30.589
    1STR   C06629205   0.106  49.578  30.324
    1STR   H06729206   0.213  49.587  30.342
    1STR   H06829207   0.093  49.563  30.217
    1STR   O06929208   0.037  49.695  30.366
    1STR   C07029209   0.082  49.817  30.307
    1STR   H07129210   0.191  49.819  30.305
    1STR   C07229211   0.026  49.830  30.165
    1STR   H07329212  60.077  49.823  30.165
    1STR   H07429213   0.064  49.753  30.098
    1STR   H07529214   0.052  49.927  30.122
    1STR   C07629215   0.035  49.932  30.397
    1STR   H07729216  60.086  49.934  30.401
    1STR   H07829217   0.070  49.915  30.499
    1STR   O07929218   0.085  50.056  30.347
    1STR   C08029219   0.045  50.172  30.420
    1STR   H08129220  60.099  50.166  30.444
    1STR   C08229221   0.129  50.185  30.548
    1STR   H08329222   0.236  50.186  30.525
    1STR   H08429223   0.110  50.103  30.618
    1STR   H08529224   0.105  50.278  30.600
    1STR   C08629225   0.065  50.293  30.327
    1STR   H08729226   0.171  50.303  30.301
    1STR   H08829227   0.011  50.276  30.234
    1STR   O08929228   0.018  50.411  30.392
    1STR   C09029229   0.034  50.531  30.318
    1STR   H09129230   0.133  50.534  30.272
    1STR   C09229231  60.086  50.542  30.210
    1STR   H09329232  59.986  50.535  30.254
    1STR   H09429233  60.095  50.465  30.134
    1STR   H09529234  60.092  50.638  30.158
    1STR   C09629235   0.026  50.648  30.418
    1STR   H09729236  60.087  50.649  30.465
    1STR   H09829237   0.099  50.632  30.497
    1STR   O09929238   0.051  50.771  30.350
    1STR   C10029239   0.042  50.887  30.432
    1STR   H10129240  60.115  50.882  30.497
    1STR   C10229241   0.170  50.903  30.516
    1STR   H10329242   0.259  50.904  30.452
    1STR   H10429243   0.182  50.822  30.588
    1STR   H10529244   0.168  50.996  30.572
    1STR   C10629245   0.022  51.007  30.337
    1STR   H10729246   0.109  51.017  30.271
    1STR   H10829247  60.096  50.988  30.274
    1STR   O10929248   0.003  51.126  30.414
    1STR   C11029249  60.147  51.245  30.338
    1STR   H11129250   0.060  51.248  30.256
    1STR   C11229251  60.004  51.254  30.283
    1STR   H11329252  59.931  51.246  30.363
    1STR   H11429253  59.983  51.175  30.211
    1STR   H11529254  59.988  51.349  30.232
    1STR   C11629255   0.018  51.363  30.432
    1STR   H11729256  60.107  51.365  30.514
    1STR   H11829257   0.117  51.349  30.475
    1STR   O11929258   0.013  51.485  30.358
    1STR   C12029259   0.036  51.603  30.434
    1STR   H12129260  60.142  51.598  30.529
    1STR   C12229261   0.187  51.620  30.460
    1STR   H12329262   0.243  51.621  30.366
    1STR   H12429263   0.227  51.541  30.523
    1STR   H12529264   0.206  51.715  30.511
    1STR   C12629265  60.139  51.721  30.354
    1STR   H12729266   0.032  51.731  30.259
    1STR   H12829267  60.034  51.701  30.331
    1STR   O12929268  60.151  51.841  30.431
    1STR   C13029269  60.105  51.959  30.366
    1STR   H13129270  60.139  51.960  30.262
    1STR   C13229271  59.951  51.966  30.372
    1STR   H13329272  59.916  51.959  30.475
    1STR   H13429273  59.904  51.885  30.315
    1STR   H13529274  59.915  52.060  30.330
    1STR   C13629275   0.009  52.078  30.438
    1STR   H13729276  60.137  52.081  30.542
    1STR   H13829277   0.117  52.065  30.439
    1STR   O13929278  60.134  52.199  30.371
    1STR   C14029279   0.024  52.318  30.431
    1STR   H14129280   0.012  52.314  30.539
    1STR   C14229281   0.172  52.337  30.394
    1STR   H14329282   0.186  52.336  30.286
    1STR   H14429283   0.235  52.259  30.436
    1STR   H14529284   0.209  52.432  30.431
    1STR   C14629285  60.098  52.435  30.378
    1STR   H14729286  60.109  52.443  30.270
    1STR   H14829287  59.993  52.414  30.399
    1STR   O14929288  60.139  52.556  30.442
    1STR   C15029289  60.069  52.673  30.400
    1STR   H15129290  60.059  52.673  30.291
    1STR   C15229291  59.931  52.679  30.467
    1STR   H15329292  59.940  52.674  30.575
    1STR   H15429293  59.866  52.598  30.434
    1STR   H15529294  59.880  52.772  30.442
    1STR   C15629295  60.156  52.793  30.439
    1STR   H15729296   0.008  52.798  30.547
    1STR   H15829297   0.096  52.781  30.396
    1STR   O15929298  60.096  52.913  30.390
    1STR   C16029299   0.004  53.033  30.423
    1STR   H16129300   0.037  53.031  30.527
    1STR   C16229301   0.125  53.052  30.330
    1STR   H16329302   0.095  53.050  30.225
    1STR   H16429303   0.201  52.975  30.344
    1STR   H16529304   0.174  53.148  30.348
    1STR   C16629305  60.064  53.149  30.408
    1STR   H16729306  60.030  53.155  30.304
    1STR   H16829307  59.976  53.127  30.469
    1STR   O16929308  60.125  53.271  30.449
    1STR   C17029309  60.043  53.387  30.436
    1STR   H17129310  59.990  53.385  30.340
    1STR   C17229311  59.943  53.393  30.552
    1STR   H17329312  59.994  53.390  30.648
    1STR   H17429313  59.872  53.311  30.550
    1STR   H17529314  59.886  53.486  30.548
    1STR   C17629315  60.137  53.508  30.435
    1STR   H17729316   0.031  53.514  30.530
    1STR   H17829317   0.051  53.496  30.357
    1STR   O17929318  60.061  53.627  30.413
    1STR   C18029319  60.135  53.748  30.414
    1STR   H18129320   0.047  53.747  30.497
    1STR   C18229321   0.049  53.766  30.280
    1STR   H18329322  60.139  53.762  30.197
    1STR   H18429323   0.125  53.689  30.265
    1STR   H18529324   0.099  53.862  30.277
    1STR   C18629325  60.036  53.863  30.439
    1STR   H18729326  59.963  53.867  30.358
    1STR   H18829327  59.980  53.842  30.530
    1STR   O18929328  60.107  53.986  30.451
    1STR   C19029329  60.026  54.101  30.470
    1STR   H19129330  59.939  54.097  30.404
    1STR   C19229331  59.980  54.109  30.617
    1STR   H19329332  60.066  54.108  30.684
    1STR   H19429333  59.915  54.026  30.644
    1STR   H19529334  59.925  54.201  30.635
    1STR   C19629335  60.110  54.223  30.431
    1STR   H19729336   0.037  54.231  30.496
    1STR   H19829337  60.147  54.210  30.329
    1STR   O19929338  60.030  54.341  30.439
    1STR   C20029339  60.097  54.463  30.409
    1STR   H20129340   0.036  54.464  30.456
    1STR   C20229341  60.111  54.478  30.257
    1STR   H20329342  60.013  54.473  30.208
    1STR   H20429343   0.015  54.402  30.213
    1STR   H20529344  60.155  54.575  30.232
    1STR   C20629345  60.015  54.577  30.470
    1STR   H20729346  59.916  54.580  30.425
    1STR   H20829347  60.001  54.558  30.577
    1STR   O20929348  60.083  54.701  30.451
    1STR   C21029349  60.016  54.816  30.500
    1STR   H21129350  59.910  54.811  30.474
    1STR   C21229351  60.033  54.826  30.652
    1STR   H21329352  60.138  54.826  30.680
    1STR   H21429353  59.984  54.743  30.705
    1STR   H21529354  59.988  54.918  30.690
    1STR   C21629355  60.076  54.938  30.429
    1STR   H21729356   0.022  54.947  30.453
    1STR   H21829357  60.069  54.923  30.321
    1STR   O21929358  60.005  55.056  30.467
    1STR   C22029359  60.053  55.177  30.411
    1STR   H22129360   0.002  55.179  30.414
    1STR   C22229361  60.004  55.190  30.265
    1STR   H22329362  59.896  55.183  30.260
    1STR   H22429363  60.046  55.113  30.201
    1STR   H22529364  60.033  55.287  30.224
    1STR   C22629365  60.001  55.292  30.498
    1STR   H22729366  59.892  55.294  30.496
    1STR   H22829367  60.031  55.275  30.601
    1STR   O22929368  60.054  55.416  30.451
    1STR   C23029369  60.010  55.532  30.522
    1STR   H23129370  59.903  55.526  30.541
    1STR   C23229371  60.087  55.544  30.655
    1STR   H23329372   0.035  55.545  30.638
    1STR   H23429373  60.064  55.462  30.723
    1STR   H23529374  60.061  55.637  30.706
    1STR   C23629375  60.036  55.654  30.431
    1STR   H23729376  60.143  55.663  30.411
    1STR   H23829377  59.987  55.637  30.335
    1STR   O23929378  59.985  55.772  30.493
    1STR   C24029379  60.006  55.893  30.421
    1STR   H24129380  60.107  55.895  30.380
    1STR   C24229381  59.903  55.903  30.307
    1STR   H24329382  59.801  55.895  30.345
    1STR   H24429383  59.917  55.825  30.232
    1STR   H24529384  59.911  55.999  30.255
    1STR   C24629385  59.991  56.010  30.520
    1STR   H24729386  59.890  56.011  30.562
    1STR   H24829387  60.060  55.994  30.603
    1STR   O24929388  60.019  56.133  30.454
    1STR   C25029389  60.007  56.250  30.535
    1STR   H25129390  59.916  56.244  30.595
    1STR   C25229391  60.130  56.264  30.626
    1STR   H25329392   0.062  56.264  30.567
    1STR   H25429393  60.137  56.183  30.698
    1STR   H25529394  60.126  56.357  30.682
    1STR   C25629395  59.993  56.371  30.440
    1STR   H25729396  60.083  56.381  30.379
    1STR   H25829397  59.910  56.353  30.372
    1STR   O25929398  59.971  56.490  30.516
    1STR   C26029399  59.959  56.610  30.440
    1STR   H26129400  60.035  56.613  30.362
    1STR   C26229401  59.819  56.617  30.376
    1STR   H26329402  59.741  56.608  30.452
    1STR   H26429403  59.803  56.538  30.303
    1STR   H26529404  59.804  56.712  30.325
    1STR   C26629405  59.983  56.730  30.534
    1STR   H26729406  59.908  56.730  30.613
    1STR   H26829407  60.080  56.717  30.583
    1STR   O26929408  59.980  56.853  30.461
    1STR   C27029409  60.000  56.972  30.539
    1STR   H27129410  59.942  56.966  30.631
    1STR   C27229411  60.150  56.986  30.573
    1STR   H27329412   0.051  56.985  30.482
    1STR   H27429413   0.025  56.906  30.638
    1STR   H27529414   0.009  57.080  30.624
    1STR   C27629415  59.950  57.093  30.457
    1STR   H27729416  60.007  57.101  30.364
    1STR   H27829417  59.846  57.074  30.429
    1STR   O27929418  59.960  57.214  30.533
    1STR   C28029419  59.916  57.333  30.467
    1STR   H28129420  59.955  57.335  30.365
    1STR   C28229421  59.762  57.337  30.465
    1STR   H28329422  59.721  57.327  30.566
    1STR   H28429423  59.720  57.257  30.404
    1STR   H28529424  59.727  57.431  30.423
    1STR   C28629425  59.973  57.456  30.542
    1STR   H28729426  59.937  57.457  30.645
    1STR   H28829427  60.082  57.444  30.548
    1STR   O28929428  59.939  57.578  30.476
    1STR   C29029429  59.989  57.699  30.536
    1STR   H29129430  59.971  57.696  30.644
    1STR   C29229431  60.139  57.713  30.507
    1STR   H29329432  60.159  57.708  30.400
    1STR   H29429433   0.038  57.635  30.556
    1STR   H29529434   0.017  57.808  30.544
    1STR   C29629435  59.910  57.819  30.478
    1STR   H29729436  59.923  57.823  30.370
    1STR   H29829437  59.804  57.802  30.496
    1STR   O29929438  59.950  57.945  30.536
    1STR   C30029439  59.881  58.061  30.489
    1STR   H30129440  59.872  58.055  30.380
    1STR   C30229441  59.742  58.067  30.553
    1STR   H30329442  59.748  58.062  30.661
    1STR   H30429443  59.678  57.986  30.519
    1STR   H30529444  59.691  58.160  30.527
    1STR   C30629445  59.963  58.190  30.521
    1STR   H30729446  59.966  58.206  30.629
    1STR   H30829447  60.065  58.173  30.489
    1STR   O30929448  59.908  58.305  30.454
    1STR    H1R29449  59.984  58.450  30.582
    1STR    H1S29450   0.002  58.527  30.417
    1STR    H1T29451  60.107  58.403  30.304
    1STR    H1U29452   0.021  58.358  30.458
    1STR    H1V29453  59.789  58.545  30.455
    1STR    H1W29454  59.878  58.531  30.305
    1STR    H1X29455  60.019  58.869  30.497
    1STR    H1Y29456  60.135  59.057  30.535
    1STR    H1Z29457   0.053  59.277  30.466
    1STR    H2029458   0.037  59.408  30.129
    1STR    H2129459  60.112  59.492  30.259
    1STR    H2229460   0.111  59.422  30.287
    1STR    H2329461  59.990  59.207  29.987
    1STR    H2729462  59.915  59.018  30.166
    1STR    H2829463   0.196  46.435  30.441
    1STR    H2929464   0.170  46.203  30.493
    1STR    H2A29465  60.109  45.967  30.330
    1STR    H2B29466   0.038  46.010  30.475
    1STR    H2C29467   0.125  45.945  30.337
    1STR   BCK129468  60.057  45.982  44.948
    1STR    O0329469  59.983  45.987  44.850
    1STR    N0429470  60.133  46.085  44.990
    1STR    C0529471   0.016  46.194  44.912
    1STR    C0629472  60.145  46.331  44.943
    1STR    C0729473   0.037  46.439  44.865
    1STR    N0829474   0.010  46.575  44.896
    1STR    C0929475   0.024  46.685  44.819
    1STR    O0A29476   0.054  46.682  44.700
    1STR    O0B29477   0.002  46.803  44.886
    1STR    C0C29478   0.010  46.929  44.815
    1STR    C0D29479  60.040  46.952  44.736
    1STR    C0E29480   0.040  47.051  44.907
    1STR    O0F29481   0.047  47.172  44.829
    1STR    C0G29482   0.074  47.294  44.900
    1STR    C0H29483   0.224  47.302  44.933
    1STR    C0I29484   0.031  47.415  44.813
    1STR    O0J29485   0.050  47.538  44.885
    1STR    C0K29486   0.367  58.428  44.921
    1STR    C0M29487   0.221  58.404  44.880
    1STR    C0N29488   0.375  58.562  45.000
    1STR    O0O29489   0.347  58.673  44.913
    1STR    C0P29490   0.274  58.783  44.951
    1STR    O0Q29491   0.214  58.797  45.057
    1STR    N0R29492   0.283  58.875  44.854
    1STR    C0S29493   0.240  59.007  44.835
    1STR    C0T29494   0.328  59.085  44.757
    1STR    C0U29495   0.297  59.218  44.726
    1STR    C0V29496   0.178  59.278  44.770
    1STR    C0W29497   0.165  59.425  44.737
    1STR    C0X29498   0.083  59.203  44.845
    1STR    N0Y29499  60.123  59.257  44.899
    1STR   BCK229500  60.031  59.354  44.877
    1STR    O1029501  59.945  59.371  44.963
    1STR    C1329502   0.119  59.068  44.880
    1STR    C1429503   0.123  46.406  44.758
    1STR    C1529504   0.156  46.273  44.728
    1STR    C1629505   0.105  46.167  44.806
    1STR    C1729506   0.152  46.026  44.776
    1STR    H1B29507   0.018  46.072  45.079
    1STR    H1C29508  60.079  46.351  45.026
    1STR    H1D29509  60.135  46.597  44.988
    1STR    H1E29510   0.093  46.923  44.743
    1STR    H1F29511  59.954  46.959  44.802
    1STR    H1G29512  60.046  47.044  44.677
    1STR    H1H29513  60.022  46.870  44.665
    1STR    H1I29514   0.134  47.034  44.959
    1STR    H1J29515  60.122  47.060  44.983
    1STR    H1K29516   0.015  47.296  44.992
    1STR    H1M29517   0.284  47.297  44.842
    1STR    H1N29518   0.256  47.223  45.000
    1STR    H1O29519   0.247  47.397  44.982
    1STR    H1P29520   0.088  47.417  44.720
    1STR    H1Q29521  60.086  47.404  44.786
    1STR   C01029522   0.019  47.659  44.815
    1STR   H01129523   0.060  47.655  44.714
    1STR   C01229524  60.026  47.678  44.808
    1STR   H01329525  59.982  47.677  44.908
    1STR   H01429526  59.977  47.600  44.749
    1STR   H01529527  60.001  47.773  44.761
    1STR   C01629528   0.085  47.778  44.888
    1STR   H01729529   0.047  47.784  44.990
    1STR   H01829530   0.192  47.759  44.895
    1STR   O01929531   0.061  47.901  44.818
    1STR   C02029532   0.115  48.018  44.880
    1STR   H02129533   0.096  48.016  44.987
    1STR   C02229534   0.266  48.026  44.854
    1STR   H02329535   0.288  48.024  44.747
    1STR   H02429536   0.321  47.945  44.901
    1STR   H02529537   0.307  48.119  44.893
    1STR   C02629538   0.043  48.142  44.822
    1STR   H02729539   0.060  48.148  44.714
    1STR   H02829540  60.095  48.130  44.836
    1STR   O02929541   0.089  48.261  44.886
    1STR   C03029542   0.033  48.383  44.839
    1STR   H03129543   0.030  48.383  44.730
    1STR   C03229544  60.051  48.401  44.896
    1STR   H03329545  60.052  48.398  45.005
    1STR   H03429546  59.982  48.325  44.860
    1STR   H03529547  60.010  48.498  44.866
    1STR   C03629548   0.125  48.499  44.882
    1STR   H03729549   0.131  48.503  44.991
    1STR   H03829550   0.226  48.479  44.846
    1STR   O03929551   0.077  48.622  44.830
    1STR   C04029552   0.152  48.738  44.867
    1STR   H04129553   0.177  48.735  44.973
    1STR   C04229554   0.280  48.747  44.782
    1STR   H04329555   0.257  48.746  44.676
    1STR   H04429556   0.348  48.665  44.803
    1STR   H04529557   0.334  48.839  44.804
    1STR   C04629558   0.062  48.861  44.844
    1STR   H04729559   0.035  48.869  44.738
    1STR   H04829560  60.129  48.848  44.899
    1STR   O04929561   0.130  48.979  44.888
    1STR   C05029562   0.059  49.102  44.868
    1STR   H05129563   0.012  49.103  44.769
    1STR   C05229564  60.111  49.117  44.977
    1STR   H05329565  60.155  49.112  45.077
    1STR   H05429566  60.034  49.041  44.970
    1STR   H05529567  60.062  49.214  44.969
    1STR   C05629568   0.161  49.217  44.873
    1STR   H05729569   0.209  49.220  44.971
    1STR   H05829570   0.239  49.198  44.800
    1STR   O05929571   0.095  49.340  44.846
    1STR   C06029572   0.178  49.456  44.851
    1STR   H06129573   0.244  49.451  44.938
    1STR   C06229574   0.262  49.467  44.722
    1STR   H06329575   0.198  49.467  44.634
    1STR   H06429576   0.333  49.384  44.712
    1STR   H06529577   0.320  49.559  44.722
    1STR   C06629578   0.087  49.578  44.868
    1STR   H06729579   0.020  49.588  44.782
    1STR   H06829580   0.024  49.563  44.956
    1STR   O06929581   0.166  49.696  44.884
    1STR   C07029582   0.093  49.817  44.897
    1STR   H07129583   0.011  49.820  44.825
    1STR   C07229584   0.039  49.830  45.040
    1STR   H07329585   0.119  49.824  45.113
    1STR   H07429586  60.125  49.754  45.064
    1STR   H07529587  60.149  49.927  45.054
    1STR   C07629588   0.189  49.933  44.863
    1STR   H07729589   0.272  49.934  44.933
    1STR   H07829590   0.231  49.915  44.764
    1STR   O07929591   0.117  50.056  44.865
    1STR   C08029592   0.196  50.172  44.839
    1STR   H08129593   0.291  50.166  44.892
    1STR   C08229594   0.221  50.185  44.688
    1STR   H08329595   0.127  50.186  44.632
    1STR   H08429596   0.282  50.104  44.649
    1STR   H08529597   0.274  50.278  44.665
    1STR   C08629598   0.119  50.293  44.894
    1STR   H08729599   0.023  50.303  44.841
    1STR   H08829600   0.096  50.276  44.999
    1STR   O08929601   0.198  50.411  44.878
    1STR   C09029602   0.135  50.532  44.921
    1STR   H09129603   0.031  50.534  44.888
    1STR   C09229604   0.143  50.542  45.075
    1STR   H09329605   0.246  50.535  45.110
    1STR   H09429606   0.085  50.465  45.124
    1STR   H09529607   0.103  50.638  45.108
    1STR   C09629608   0.210  50.648  44.854
    1STR   H09729609   0.314  50.649  44.885
    1STR   H09829610   0.209  50.632  44.746
    1STR   O09929611   0.145  50.771  44.886
    1STR   C10029612   0.207  50.888  44.832
    1STR   H10129613   0.315  50.882  44.843
    1STR   C10229614   0.169  50.903  44.684
    1STR   H10329615   0.061  50.904  44.671
    1STR   H10429616   0.209  50.822  44.623
    1STR   H10529617   0.208  50.996  44.644
    1STR   C10629618   0.157  51.007  44.915
    1STR   H10729619   0.049  51.017  44.906
    1STR   H10829620   0.178  50.988  45.021
    1STR   O10929621   0.223  51.126  44.872
    1STR   C11029622   0.184  51.245  44.938
    1STR   H11129623   0.075  51.248  44.950
    1STR   C11229624   0.252  51.254  45.076
    1STR   H11329625   0.360  51.247  45.066
    1STR   H11429626   0.218  51.175  45.143
    1STR   H11529627   0.229  51.349  45.124
    1STR   C11629628   0.224  51.363  44.848
    1STR   H11729629   0.333  51.365  44.836
    1STR   H11829630   0.181  51.349  44.749
    1STR   O11929631   0.178  51.485  44.906
    1STR   C12029632   0.213  51.603  44.834
    1STR   H12129633   0.316  51.598  44.801
    1STR   C12229634   0.119  51.620  44.714
    1STR   H12329635   0.015  51.621  44.745
    1STR   H12429636   0.132  51.541  44.640
    1STR   H12529637   0.139  51.715  44.663
    1STR   C12629638   0.201  51.721  44.932
    1STR   H12729639   0.097  51.731  44.966
    1STR   H12829640   0.262  51.701  45.020
    1STR   O12929641   0.244  51.841  44.867
    1STR   C13029642   0.234  51.959  44.946
    1STR   H13129643   0.139  51.960  45.000
    1STR   C13229644   0.351  51.966  45.045
    1STR   H13329645   0.447  51.959  44.994
    1STR   H13429646   0.347  51.885  45.119
    1STR   H13529647   0.349  52.060  45.101
    1STR   C13629648   0.235  52.078  44.850
    1STR   H13729649   0.329  52.081  44.795
    1STR   H13829650   0.156  52.065  44.776
    1STR   O13929651   0.216  52.199  44.923
    1STR   C14029652   0.219  52.318  44.845
    1STR   H14129653   0.301  52.314  44.773
    1STR   C14229654   0.085  52.337  44.772
    1STR   H14329655   0.001  52.336  44.843
    1STR   H14429656   0.067  52.259  44.699
    1STR   H14529657   0.083  52.432  44.719
    1STR   C14629658   0.247  52.435  44.942
    1STR   H14729659   0.166  52.443  45.015
    1STR   H14829660   0.338  52.414  44.997
    1STR   O14929661   0.260  52.556  44.867
    1STR   C15029662   0.282  52.673  44.945
    1STR   H15129663   0.217  52.673  45.033
    1STR   C15229664   0.429  52.679  44.989
    1STR   H15329665   0.497  52.674  44.904
    1STR   H15429666   0.456  52.598  45.057
    1STR   H15529667   0.450  52.772  45.042
    1STR   C15629668   0.245  52.794  44.858
    1STR   H15729669   0.310  52.798  44.770
    1STR   H15829670   0.143  52.781  44.822
    1STR   O15929671   0.256  52.913  44.935
    1STR   C16029672   0.228  53.033  44.865
    1STR   H16129673   0.274  53.031  44.766
    1STR   C16229674   0.076  53.052  44.852
    1STR   H16329675   0.028  53.050  44.949
    1STR   H16429676   0.030  52.975  44.790
    1STR   H16529677   0.053  53.148  44.805
    1STR   C16629678   0.292  53.149  44.944
    1STR   H16729679   0.247  53.155  45.043
    1STR   H16829680   0.398  53.127  44.958
    1STR   O16929681   0.275  53.271  44.872
    1STR   C17029682   0.326  53.387  44.937
    1STR   H17129683   0.301  53.385  45.043
    1STR   C17229684   0.479  53.393  44.918
    1STR   H17329685   0.506  53.390  44.813
    1STR   H17429686   0.530  53.311  44.968
    1STR   H17529687   0.519  53.486  44.960
    1STR   C17629688   0.257  53.508  44.874
    1STR   H17729689   0.281  53.514  44.767
    1STR   H17829690   0.149  53.496  44.881
    1STR   O17929691   0.298  53.627  44.942
    1STR   C18029692   0.244  53.748  44.890
    1STR   H18129693   0.247  53.748  44.781
    1STR   C18229694   0.100  53.766  44.939
    1STR   H18329695   0.094  53.762  45.048
    1STR   H18429696   0.033  53.689  44.900
    1STR   H18529697   0.060  53.862  44.908
    1STR   C18629698   0.334  53.863  44.939
    1STR   H18729699   0.333  53.867  45.048
    1STR   H18829700   0.437  53.842  44.910
    1STR   O18929701   0.290  53.986  44.883
    1STR   C19029702   0.363  54.101  44.923
    1STR   H19129703   0.382  54.097  45.031
    1STR   C19229704   0.495  54.109  44.846
    1STR   H19329705   0.478  54.108  44.738
    1STR   H19429706   0.562  54.026  44.870
    1STR   H19529707   0.548  54.201  44.870
    1STR   C19629708   0.274  54.223  44.895
    1STR   H19729709   0.254  54.231  44.788
    1STR   H19829710   0.178  54.210  44.945
    1STR   O19929711   0.339  54.341  44.943
    1STR   C20029712   0.269  54.463  44.920
    1STR   H20129713   0.227  54.464  44.819
    1STR   C20229714   0.156  54.478  45.023
    1STR   H20329715   0.195  54.473  45.125
    1STR   H20429716   0.079  54.402  45.012
    1STR   H20529717   0.107  54.575  45.012
    1STR   C20629718   0.371  54.577  44.930
    1STR   H20729719   0.413  54.580  45.031
    1STR   H20829720   0.453  54.558  44.861
    1STR   O20929721   0.307  54.701  44.898
    1STR   C21029722   0.390  54.816  44.908
    1STR   H21129723   0.451  54.811  44.999
    1STR   C21229724   0.481  54.826  44.784
    1STR   H21329725   0.422  54.826  44.693
    1STR   H21429726   0.552  54.744  44.779
    1STR   H21529727   0.539  54.918  44.786
    1STR   C21629728   0.298  54.938  44.920
    1STR   H21729729   0.236  54.947  44.830
    1STR   H21829730   0.230  54.923  45.004
    1STR   O21929731   0.376  55.056  44.939
    1STR   C22029732   0.302  55.177  44.948
    1STR   H22129733   0.224  55.180  44.872
    1STR   C22229734   0.240  55.190  45.088
    1STR   H22329735   0.316  55.183  45.166
    1STR   H22429736   0.165  55.113  45.108
    1STR   H22529737   0.190  55.287  45.100
    1STR   C22629738   0.400  55.293  44.919
    1STR   H22729739   0.479  55.294  44.995
    1STR   H22829740   0.447  55.275  44.823
    1STR   O22929741   0.328  55.416  44.918
    1STR   C23029742   0.408  55.532  44.895
    1STR   H23129743   0.500  55.526  44.954
    1STR   C23229744   0.442  55.544  44.746
    1STR   H23329745   0.351  55.545  44.685
    1STR   H23429746   0.505  55.463  44.711
    1STR   H23529747   0.495  55.637  44.726
    1STR   C23629748   0.328  55.654  44.945
    1STR   H23729749   0.236  55.664  44.888
    1STR   H23829750   0.300  55.637  45.049
    1STR   O23929751   0.408  55.772  44.933
    1STR   C24029752   0.344  55.893  44.973
    1STR   H24129753   0.242  55.896  44.935
    1STR   C24229754   0.343  55.903  45.127
    1STR   H24329755   0.444  55.895  45.167
    1STR   H24429756   0.282  55.825  45.173
    1STR   H24529757   0.302  55.999  45.159
    1STR   C24629758   0.421  56.010  44.910
    1STR   H24729759   0.524  56.011  44.947
    1STR   H24829760   0.426  55.994  44.802
    1STR   O24929761   0.356  56.134  44.940
    1STR   C25029762   0.420  56.251  44.888
    1STR   H25129763   0.528  56.245  44.905
    1STR   C25229764   0.391  56.264  44.738
    1STR   H25329765   0.283  56.264  44.719
    1STR   H25429766   0.435  56.183  44.680
    1STR   H25529767   0.431  56.357  44.699
    1STR   C25629768   0.366  56.372  44.967
    1STR   H25729769   0.259  56.381  44.952
    1STR   H25829770   0.382  56.354  45.073
    1STR   O25929771   0.433  56.491  44.926
    1STR   C26029772   0.391  56.611  44.991
    1STR   H26129773   0.282  56.614  44.997
    1STR   C26229774   0.451  56.618  45.132
    1STR   H26329775   0.560  56.609  45.129
    1STR   H26429776   0.413  56.539  45.197
    1STR   H26529777   0.427  56.713  45.180
    1STR   C26629778   0.437  56.731  44.905
    1STR   H26729779   0.546  56.732  44.897
    1STR   H26829780   0.399  56.718  44.804
    1STR   O26929781   0.390  56.854  44.961
    1STR   C27029782   0.427  56.973  44.890
    1STR   H27129783   0.533  56.968  44.861
    1STR   C27229784   0.340  56.987  44.764
    1STR   H27329785   0.234  56.986  44.789
    1STR   H27429786   0.358  56.908  44.692
    1STR   H27529787   0.361  57.081  44.713
    1STR   C27629788   0.409  57.094  44.984
    1STR   H27729789   0.305  57.102  45.014
    1STR   H27829790   0.467  57.076  45.075
    1STR   O27929791   0.453  57.216  44.921
    1STR   C28029792   0.442  57.335  45.000
    1STR   H28129793   0.344  57.337  45.049
    1STR   C28229794   0.554  57.338  45.105
    1STR   H28329795   0.652  57.328  45.058
    1STR   H28429796   0.543  57.258  45.178
    1STR   H28529797   0.552  57.432  45.160
    1STR   C28629798   0.450  57.458  44.907
    1STR   H28729799   0.546  57.460  44.855
    1STR   H28829800   0.374  57.448  44.830
    1STR   O28929801   0.431  57.581  44.979
    1STR   C29029802   0.435  57.702  44.902
    1STR   H29129803   0.520  57.700  44.834
    1STR   C29229804   0.305  57.715  44.821
    1STR   H29329805   0.217  57.710  44.885
    1STR   H29429806   0.295  57.638  44.745
    1STR   H29529807   0.302  57.811  44.768
    1STR   C29629808   0.453  57.824  44.997
    1STR   H29729809   0.370  57.827  45.068
    1STR   H29829810   0.543  57.808  45.056
    1STR   O29929811   0.460  57.948  44.925
    1STR   C30029812   0.475  58.068  45.004
    1STR   H30129813   0.407  58.063  45.090
    1STR   C30229814   0.620  58.078  45.053
    1STR   H30329815   0.690  58.073  44.970
    1STR   H30429816   0.646  57.998  45.123
    1STR   H30529817   0.638  58.172  45.105
    1STR   C30629818   0.435  58.192  44.919
    1STR   H30729819   0.508  58.207  44.840
    1STR   H30829820   0.342  58.165  44.869
    1STR   O30929821   0.416  58.314  44.995
    1STR    H1R29822   0.429  58.439  44.831
    1STR    H1S29823   0.179  58.493  44.833
    1STR    H1T29824   0.160  58.381  44.967
    1STR    H1U29825   0.209  58.323  44.808
    1STR    H1V29826   0.475  58.575  45.041
    1STR    H1W29827   0.307  58.560  45.086
    1STR    H1X29828   0.342  58.838  44.782
    1STR    H1Y29829   0.421  59.044  44.722
    1STR    H1Z29830   0.369  59.274  44.668
    1STR    H2029831   0.106  59.437  44.646
    1STR    H2129832   0.119  59.479  44.820
    1STR    H2229833   0.261  59.471  44.718
    1STR    H2329834  60.092  59.207  44.981
    1STR    H2729835   0.052  59.008  44.939
    1STR    H2829836   0.168  46.482  44.696
    1STR    H2929837   0.223  46.253  44.646
    1STR    H2A29838   0.185  45.977  44.867
    1STR    H2B29839   0.236  46.026  44.706
    1STR    H2C29840   0.071  45.968  44.732
    1STR   BCK129841  14.894   0.854  60.103
    1STR    O0329842  14.917   0.798   0.050
    1STR    N0429843  14.869   0.987  60.091
    1STR    C0529844  14.828   1.081   0.029
    1STR    C0629845  14.875   1.216   0.028
    1STR    C0729846  14.825   1.316   0.118
    1STR    N0829847  14.866   1.452   0.113
    1STR    C0929848  14.802   1.562   0.160
    1STR    O0A29849  14.691   1.560   0.212
    1STR    O0B29850  14.873   1.679   0.143
    1STR    C0C29851  14.823   1.803   0.200
    1STR    C0D29852  14.866   1.814   0.347
    1STR    C0E29853  14.867   1.929   0.120
    1STR    O0F29854  14.810   2.049   0.178
    1STR    C0G29855  14.838   2.173   0.110
    1STR    C0H29856  14.748   2.183  60.146
    1STR    C0I29857  14.812   2.293   0.205
    1STR    O0J29858  14.845   2.417   0.139
    1STR    C0K29859  14.597  13.286  60.012
    1STR    C0M29860  14.687  13.294  60.136
    1STR    C0N29861  14.624  13.406  59.918
    1STR    O0O29862  14.575  13.525  59.979
    1STR    C0P29863  14.641  13.642  59.969
    1STR    O0Q29864  14.744  13.662  59.906
    1STR    N0R29865  14.577  13.732  60.043
    1STR    C0S29866  14.610  13.862  60.080
    1STR    C0T29867  14.567  13.902   0.048
    1STR    C0U29868  14.599  14.030   0.096
    1STR    C0V29869  14.669  14.123   0.017
    1STR    C0W29870  14.705  14.252   0.088
    1STR    C0X29871  14.703  14.090  60.042
    1STR    N0Y29872  14.748  14.180  59.942
    1STR   BCK229873  14.764  14.313  59.933
    1STR    O1029874  14.771  14.394  60.024
    1STR    C1329875  14.678  13.956  59.999
    1STR    C1429876  14.731   1.274   0.214
    1STR    C1529877  14.682   1.142   0.216
    1STR    C1629878  14.726   1.047   0.122
    1STR    C1729879  14.654   0.913   0.123
    1STR    H1B29880  14.874   1.020  59.996
    1STR    H1C29881  14.950   1.245  60.115
    1STR    H1D29882  14.953   1.475   0.068
    1STR    H1E29883  14.713   1.802   0.196
    1STR    H1F29884  14.975   1.818   0.357
    1STR    H1G29885  14.825   1.904   0.393
    1STR    H1H29886  14.830   1.729   0.405
    1STR    H1I29887  14.834   1.918   0.017
    1STR    H1J29888  14.976   1.937   0.119
    1STR    H1K29889  14.943   2.176   0.081
    1STR    H1M29890  14.643   2.177   0.012
    1STR    H1N29891  14.770   2.106  60.072
    1STR    H1O29892  14.763   2.279  60.096
    1STR    H1P29893  14.707   2.294   0.236
    1STR    H1Q29894  14.871   2.281   0.295
    1STR   C01029895  14.820   2.537   0.213
    1STR   H01129896  14.721   2.533   0.259
    1STR   C01229897  14.928   2.556   0.321
    1STR   H01329898  15.027   2.557   0.277
    1STR   H01429899  14.924   2.479   0.397
    1STR   H01529900  14.914   2.652   0.372
    1STR   C01629901  14.820   2.657   0.114
    1STR   H01729902  14.917   2.663   0.064
    1STR   H01829903  14.746   2.638   0.036
    1STR   O01929904  14.791   2.780   0.181
    1STR   C02029905  14.793   2.897   0.100
    1STR   H02129906  14.880   2.895   0.033
    1STR   C02229907  14.664   2.905   0.017
    1STR   H02329908  14.576   2.903   0.081
    1STR   H02429909  14.656   2.824  60.105
    1STR   H02529910  14.661   2.998  60.120
    1STR   C02629911  14.807   3.021   0.191
    1STR   H02729912  14.722   3.027   0.259
    1STR   H02829913  14.896   3.010   0.253
    1STR   O02929914  14.816   3.140   0.112
    1STR   C03029915  14.826   3.263   0.185
    1STR   H03129916  14.754   3.262   0.268
    1STR   C03229917  14.968   3.281   0.239
    1STR   H03329918  15.042   3.277   0.158
    1STR   H03429919  14.995   3.205   0.312
    1STR   H03529920  14.979   3.378   0.288
    1STR   C03629921  14.787   3.378   0.091
    1STR   H03729922  14.857   3.383   0.007
    1STR   H03829923  14.688   3.359   0.049
    1STR   O03929924  14.787   3.502   0.162
    1STR   C04029925  14.757   3.618   0.084
    1STR   H04129926  14.810   3.614  60.149
    1STR   C04229927  14.605   3.627   0.060
    1STR   H04329928  14.550   3.626   0.154
    1STR   H04429929  14.569   3.545  60.159
    1STR   H04529930  14.580   3.719   0.008
    1STR   C04629931  14.808   3.741   0.162
    1STR   H04729932  14.756   3.749   0.257
    1STR   H04829933  14.914   3.728   0.183
    1STR   O04929934  14.787   3.859   0.084
    1STR   C05029935  14.827   3.981   0.146
    1STR   H05129936  14.794   3.983   0.250
    1STR   C05229937  14.979   3.997   0.138
    1STR   H05329938  15.014   3.992   0.035
    1STR   H05429939  15.032   3.921   0.195
    1STR   H05529940  15.010   4.094   0.178
    1STR   C05629941  14.755   4.096   0.073
    1STR   H05729942  14.786   4.099  60.129
    1STR   H05829943  14.647   4.078   0.074
    1STR   O05929944  14.784   4.220   0.138
    1STR   C06029945  14.727   4.336   0.077
    1STR   H06129946  14.737   4.331  60.129
    1STR   C06229947  14.578   4.346   0.116
    1STR   H06329948  14.566   4.347   0.224
    1STR   H06429949  14.519   4.264   0.076
    1STR   H06529950  14.535   4.439   0.078
    1STR   C06629951  14.806   4.458   0.127
    1STR   H06729952  14.797   4.467   0.235
    1STR   H06829953  14.912   4.443   0.104
    1STR   O06929954  14.758   4.576   0.062
    1STR   C07029955  14.821   4.697   0.102
    1STR   H07129956  14.833   4.699   0.210
    1STR   C07229957  14.958   4.710   0.033
    1STR   H07329958  14.948   4.704  60.085
    1STR   H07429959  15.028   4.634   0.066
    1STR   H07529960  15.003   4.807   0.056
    1STR   C07629961  14.727   4.812   0.062
    1STR   H07729962  14.714   4.814  60.114
    1STR   H07829963  14.629   4.795   0.106
    1STR   O07929964  14.781   4.936   0.108
    1STR   C08029965  14.706   5.052   0.075
    1STR   H08129966  14.672   5.046  60.131
    1STR   C08229967  14.585   5.065   0.169
    1STR   H08329968  14.617   5.066   0.274
    1STR   H08429969  14.514   4.984   0.157
    1STR   H08529970  14.531   5.158   0.150
    1STR   C08629971  14.800   5.173   0.087
    1STR   H08729972  14.835   5.183   0.190
    1STR   H08829973  14.887   5.156   0.024
    1STR   O08929974  14.731   5.291   0.045
    1STR   C09029975  14.806   5.411   0.055
    1STR   H09129976  14.860   5.414   0.150
    1STR   C09229977  14.904   5.422  60.097
    1STR   H09329978  14.852   5.415  60.002
    1STR   H09429979  14.980   5.344  60.100
    1STR   H09529980  14.956   5.518  60.099
    1STR   C09629981  14.705   5.528   0.055
    1STR   H09729982  14.650   5.529  60.121
    1STR   H09829983  14.633   5.512   0.135
    1STR   O09929984  14.775   5.651   0.074
    1STR   C10029985  14.694   5.767   0.073
    1STR   H10129986  14.621   5.762  60.151
    1STR   C10229987  14.621   5.783   0.207
    1STR   H10329988  14.692   5.784   0.290
    1STR   H10429989  14.550   5.702   0.225
    1STR   H10529990  14.565   5.876   0.210
    1STR   C10629991  14.786   5.887   0.045
    1STR   H10729992  14.859   5.897   0.125
    1STR   H10829993  14.842   5.868  60.113
    1STR   O10929994  14.708   6.006   0.032
    1STR   C11029995  14.782   6.125   0.010
    1STR   H11129996  14.870   6.128   0.075
    1STR   C11229997  14.824   6.134  60.023
    1STR   H11329998  14.738   6.126  59.956
    1STR   H11429999  14.894   6.055  59.995
    1STR   H11530000  14.874   6.229  60.002
    1STR   C11630001  14.691   6.243   0.049
    1STR   H11730002  14.603   6.245  60.145
    1STR   H11830003  14.656   6.229   0.151
    1STR   O11930004  14.764   6.365   0.037
    1STR   C12030005  14.690   6.483   0.067
    1STR   H12130006  14.591   6.478   0.021
    1STR   C12230007  14.678   6.500   0.219
    1STR   H12330008  14.776   6.501   0.267
    1STR   H12430009  14.618   6.421   0.265
    1STR   H12530010  14.629   6.595   0.243
    1STR   C12630011  14.765   6.601   0.003
    1STR   H12730012  14.864   6.611   0.047
    1STR   H12830013  14.779   6.581  60.057
    1STR   O12930014  14.690   6.721   0.022
    1STR   C13030015  14.750   6.839  60.130
    1STR   H13130016  14.857   6.840  60.155
    1STR   C13230017  14.731   6.846  59.978
    1STR   H13330018  14.625   6.839  59.951
    1STR   H13430019  14.783   6.766  59.926
    1STR   H13530020  14.769   6.940  59.938
    1STR   C13630021  14.684   6.958   0.041
    1STR   H13730022  14.577   6.961   0.017
    1STR   H13830023  14.693   6.945   0.149
    1STR   O13930024  14.748   7.079  60.159
    1STR   C14030025  14.693   7.198   0.055
    1STR   H14130026  14.584   7.194   0.053
    1STR   C14230027  14.743   7.217   0.199
    1STR   H14330028  14.852   7.216   0.203
    1STR   H14430029  14.706   7.139   0.266
    1STR   H14530030  14.708   7.312   0.240
    1STR   C14630031  14.737   7.315  60.125
    1STR   H14730032  14.846   7.323  60.125
    1STR   H14830033  14.707   7.294  60.022
    1STR   O14930034  14.677   7.436   0.011
    1STR   C15030035  14.714   7.553  60.098
    1STR   H15130036  14.821   7.553  60.078
    1STR   C15230037  14.635   7.559  59.966
    1STR   H15330038  14.528   7.554  59.984
    1STR   H15430039  14.661   7.478  59.898
    1STR   H15530040  14.655   7.652  59.913
    1STR   C15630041  14.682   7.674   0.028
    1STR   H15730042  14.575   7.678   0.049
    1STR   H15830043  14.733   7.661   0.123
    1STR   O15930044  14.726   7.793  60.123
    1STR   C16030045  14.699   7.913   0.034
    1STR   H16130046  14.598   7.911   0.076
    1STR   C16230047  14.802   7.932   0.146
    1STR   H16330048  14.904   7.930   0.107
    1STR   H16430049  14.794   7.855   0.223
    1STR   H16530050  14.788   8.028   0.196
    1STR   C16630051  14.705   8.029  60.093
    1STR   H16730052  14.805   8.035  60.050
    1STR   H16830053  14.637   8.007  60.011
    1STR   O16930054  14.670   8.151  60.157
    1STR   C17030055  14.675   8.267  60.075
    1STR   H17130056  14.766   8.265  60.014
    1STR   C17230057  14.551   8.273  59.985
    1STR   H17330058  14.459   8.270  60.044
    1STR   H17430059  14.547   8.191  59.913
    1STR   H17530060  14.550   8.366  59.927
    1STR   C17630061  14.684   8.389   0.008
    1STR   H17730062  14.594   8.394   0.070
    1STR   H17830063  14.769   8.376   0.075
    1STR   O17930064  14.699   8.507  60.090
    1STR   C18030065  14.705   8.628   0.005
    1STR   H18130066  14.629   8.627   0.083
    1STR   C18230067  14.845   8.646   0.066
    1STR   H18330068  14.922   8.642  60.149
    1STR   H18430069  14.867   8.569   0.140
    1STR   H18530070  14.853   8.742   0.116
    1STR   C18630071  14.671   8.743  60.068
    1STR   H18730072  14.746   8.747  59.988
    1STR   H18830073  14.575   8.722  60.020
    1STR   O18930074  14.666   8.866  60.139
    1STR   C19030075  14.640   8.981  60.060
    1STR   H19130076  14.698   8.977  59.968
    1STR   C19230077  14.489   8.989  60.028
    1STR   H19330078  14.429   8.988  60.119
    1STR   H19430079  14.456   8.907  59.965
    1STR   H19530080  14.467   9.081  59.974
    1STR   C19630081  14.686   9.103  60.141
    1STR   H19730082  14.629   9.111   0.073
    1STR   H19830083  14.791   9.090   0.009
    1STR   O19930084  14.670   9.221  60.062
    1STR   C20030085  14.707   9.342  60.126
    1STR   H20130086  14.669   9.344   0.069
    1STR   C20230087  14.859   9.358  60.126
    1STR   H20330088  14.899   9.353  60.025
    1STR   H20430089  14.909   9.282   0.026
    1STR   H20530090  14.888   9.455   0.008
    1STR   C20630091  14.638   9.457  60.050
    1STR   H20730092  14.675   9.460  59.947
    1STR   H20830093  14.531   9.437  60.045
    1STR   O20930094  14.664   9.580  60.116
    1STR   C21030095  14.609   9.696  60.053
    1STR   H21130096  14.625   9.691  59.945
    1STR   C21230097  14.459   9.706  60.083
    1STR   H21330098  14.440   9.706   0.031
    1STR   H21430099  14.402   9.624  60.040
    1STR   H21530100  14.417   9.798  60.042
    1STR   C21630101  14.685   9.818  60.107
    1STR   H21730102  14.670   9.827   0.054
    1STR   H21830103  14.792   9.803  60.091
    1STR   O21930104  14.641   9.935  60.039
    1STR   C22030105  14.701  10.057  60.082
    1STR   H22130106  14.708  10.059   0.031
    1STR   C22230107  14.842  10.070  60.021
    1STR   H22330108  14.838  10.063  59.912
    1STR   H22430109  14.910   9.993  60.057
    1STR   H22530110  14.886  10.166  60.046
    1STR   C22630111  14.609  10.172  60.038
    1STR   H22730112  14.602  10.174  59.929
    1STR   H22830113  14.509  10.154  60.077
    1STR   O22930114  14.661  10.295  60.087
    1STR   C23030115  14.587  10.411  60.050
    1STR   H23130116  14.559  10.405  59.945
    1STR   C23230117  14.461  10.424  60.138
    1STR   H23330118  14.487  10.425   0.083
    1STR   H23430119  14.391  10.342  60.121
    1STR   H23530120  14.408  10.516  60.116
    1STR   C23630121  14.680  10.532  60.067
    1STR   H23730122  14.709  10.542   0.012
    1STR   H23830123  14.771  10.516  60.010
    1STR   O23930124  14.613  10.650  60.022
    1STR   C24030125  14.687  10.771  60.036
    1STR   H24130126  14.737  10.774  60.133
    1STR   C24230127  14.792  10.781  59.923
    1STR   H24330128  14.745  10.774  59.825
    1STR   H24430129  14.868  10.704  59.930
    1STR   H24530130  14.844  10.877  59.928
    1STR   C24630131  14.587  10.887  60.030
    1STR   H24730132  14.537  10.889  59.934
    1STR   H24830133  14.510  10.871  60.106
    1STR   O24930134  14.655  11.010  60.053
    1STR   C25030135  14.574  11.127  60.047
    1STR   H25130136  14.506  11.121  59.962
    1STR   C25230137  14.494  11.142   0.018
    1STR   H25330138  14.560  11.143   0.105
    1STR   H25430139  14.422  11.061   0.031
    1STR   H25530140  14.438  11.235   0.018
    1STR   C25630141  14.667  11.247  60.025
    1STR   H25730142  14.736  11.257  60.109
    1STR   H25830143  14.728  11.229  59.936
    1STR   O25930144  14.589  11.366  60.009
    1STR   C26030145  14.664  11.486  59.990
    1STR   H26130146  14.749  11.489  60.060
    1STR   C26230147  14.715  11.494  59.846
    1STR   H26330148  14.633  11.486  59.774
    1STR   H26430149  14.787  11.415  59.823
    1STR   H26530150  14.766  11.589  59.828
    1STR   C26630151  14.572  11.604  60.024
    1STR   H26730152  14.487  11.605  59.955
    1STR   H26830153  14.532  11.590  60.124
    1STR   O26930154  14.645  11.727  60.016
    1STR   C27030155  14.569  11.845  60.042
    1STR   H27130156  14.472  11.839  59.991
    1STR   C27230157  14.548  11.861   0.033
    1STR   H27330158  14.644  11.861   0.086
    1STR   H27430159  14.487  11.781   0.075
    1STR   H27530160  14.498  11.955   0.056
    1STR   C27630161  14.647  11.964  59.983
    1STR   H27730162  14.744  11.973  60.032
    1STR   H27830163  14.666  11.945  59.878
    1STR   O27930164  14.571  12.084  59.999
    1STR   C28030165  14.633  12.203  59.950
    1STR   H28130166  14.738  12.205  59.980
    1STR   C28230167  14.622  12.209  59.797
    1STR   H28330168  14.518  12.201  59.765
    1STR   H28430169  14.678  12.129  59.748
    1STR   H28530170  14.661  12.303  59.759
    1STR   C28630171  14.563  12.323  60.016
    1STR   H28730172  14.458  12.325  59.987
    1STR   H28830173  14.567  12.311  60.124
    1STR   O28930174  14.628  12.445  59.977
    1STR   C29030175  14.571  12.565  60.030
    1STR   H29130176  14.462  12.561  60.022
    1STR   C29230177  14.612  12.581   0.017
    1STR   H29330178  14.721  12.580   0.028
    1STR   H29430179  14.571  12.503   0.081
    1STR   H29530180  14.577  12.677   0.057
    1STR   C29630181  14.620  12.683  59.944
    1STR   H29730182  14.729  12.689  59.950
    1STR   H29830183  14.595  12.663  59.840
    1STR   O29930184  14.561  12.805  59.987
    1STR   C30030185  14.601  12.922  59.916
    1STR   H30130186  14.709  12.920  59.899
    1STR   C30230187  14.528  12.928  59.781
    1STR   H30330188  14.420  12.923  59.794
    1STR   H30430189  14.557  12.847  59.714
    1STR   H30530190  14.550  13.021  59.729
    1STR   C30630191  14.569  13.046  60.002
    1STR   H30730192  14.461  13.054  60.016
    1STR   H30830193  14.613  13.031  60.100
    1STR   O30930194  14.622  13.164  59.941
    1STR    H1R30195  14.492  13.290  60.041
    1STR    H1S30196  14.675  13.391   0.026
    1STR    H1T30197  14.792  13.283  60.110
    1STR    H1U30198  14.663  13.218   0.050
    1STR    H1V30199  14.573  13.393  59.823
    1STR    H1W30200  14.731  13.413  59.895
    1STR    H1X30201  14.495  13.691  60.085
    1STR    H1Y30202  14.512  13.835   0.112
    1STR    H1Z30203  14.568  14.056   0.196
    1STR    H2030204  14.810  14.276   0.071
    1STR    H2130205  14.641  14.333   0.055
    1STR    H2230206  14.693  14.244   0.196
    1STR    H2330207  14.761  14.137  59.852
    1STR    H2730208  14.707  13.925  59.899
    1STR    H2830209  14.691   1.341   0.289
    1STR    H2930210  14.606   1.116   0.288
    1STR    H2A30211  14.643   0.874   0.022
    1STR    H2B30212  14.554   0.922   0.164
    1STR    H2C30213  14.709   0.841   0.183
    1STR   BCK130214  15.052   0.862  14.935
    1STR    O0330215  15.153   0.796  14.912
    1STR    N0430216  15.051   0.988  14.986
    1STR    C0530217  15.156   1.075  15.026
    1STR    C0630218  15.143   1.217  15.006
    1STR    C0730219  15.243   1.312  15.045
    1STR    N0830220  15.224   1.452  15.027
    1STR    C0930221  15.311   1.555  15.042
    1STR    O0A30222  15.430   1.542  15.068
    1STR    O0B30223  15.252   1.678  15.024
    1STR    C0C30224  15.333   1.798  15.029
    1STR    C0D30225  15.406   1.816  14.894
    1STR    C0E30226  15.250   1.925  15.063
    1STR    O0F30227  15.331   2.044  15.062
    1STR    C0G30228  15.266   2.168  15.094
    1STR    C0H30229  15.247   2.178  15.247
    1STR    C0I30230  15.348   2.290  15.043
    1STR    O0J30231  15.279   2.413  15.069
    1STR    C0K30232  15.238  13.317  15.394
    1STR    C0M30233  15.280  13.300  15.247
    1STR    C0N30234  15.137  13.436  15.404
    1STR    O0O30235  15.196  13.561  15.362
    1STR    C0P30236  15.126  13.658  15.295
    1STR    O0Q30237  15.012  13.646  15.251
    1STR    N0R30238  15.201  13.768  15.286
    1STR    C0S30239  15.190  13.897  15.231
    1STR    C0T30240  15.295  13.983  15.266
    1STR    C0U30241  15.307  14.111  15.210
    1STR    C0V30242  15.213  14.158  15.117
    1STR    C0W30243  15.245  14.290  15.048
    1STR    C0X30244  15.098  14.080  15.085
    1STR    N0Y30245  15.005  14.128  14.990
    1STR   BCK230246  14.947  14.251  14.981
    1STR    O1030247  14.947  14.334  15.071
    1STR    C1330248  15.090  13.947  15.141
    1STR    C1430249  15.359   1.260  15.105
    1STR    C1530250  15.373   1.123  15.130
    1STR    C1630251  15.272   1.031  15.096
    1STR    C1730252  15.293   0.888  15.143
    1STR    H1B30253  14.959   1.026  14.991
    1STR    H1C30254  15.054   1.253  14.957
    1STR    H1D30255  15.133   1.484  15.000
    1STR    H1E30256  15.408   1.787  15.107
    1STR    H1F30257  15.335   1.828  14.812
    1STR    H1G30258  15.470   1.904  14.896
    1STR    H1H30259  15.470   1.731  14.873
    1STR    H1I30260  15.204   1.912  15.161
    1STR    H1J30261  15.168   1.937  14.992
    1STR    H1K30262  15.168   2.172  15.045
    1STR    H1M30263  15.343   2.172  15.299
    1STR    H1N30264  15.182   2.100  15.286
    1STR    H1O30265  15.201   2.273  15.274
    1STR    H1P30266  15.446   2.291  15.091
    1STR    H1Q30267  15.366   2.278  14.936
    1STR   C01030268  15.347   2.534  15.032
    1STR   H01130269  15.451   2.530  15.064
    1STR   C01230270  15.340   2.553  14.880
    1STR   H01330271  15.237   2.553  14.845
    1STR   H01430272  15.394   2.475  14.826
    1STR   H01530273  15.384   2.649  14.851
    1STR   C01630274  15.280   2.653  15.105
    1STR   H01730275  15.174   2.660  15.076
    1STR   H01830276  15.282   2.635  15.212
    1STR   O01930277  15.346   2.777  15.074
    1STR   C02030278  15.290   2.895  15.133
    1STR   H02130279  15.181   2.893  15.123
    1STR   C02230280  15.328   2.903  15.282
    1STR   H02330281  15.437   2.901  15.294
    1STR   H02430282  15.286   2.822  15.340
    1STR   H02530283  15.292   2.996  15.326
    1STR   C02630284  15.341   3.019  15.056
    1STR   H02730285  15.449   3.025  15.064
    1STR   H02830286  15.316   3.008  14.951
    1STR   O02930287  15.281   3.138  15.108
    1STR   C03030288  15.323   3.261  15.049
    1STR   H03130289  15.432   3.260  15.036
    1STR   C03230290  15.254   3.279  14.912
    1STR   H03330291  15.146   3.276  14.922
    1STR   H03430292  15.284   3.203  14.840
    1STR   H03530293  15.280   3.376  14.869
    1STR   C03630294  15.288   3.377  15.144
    1STR   H03730295  15.180   3.381  15.159
    1STR   H03830296  15.333   3.357  15.242
    1STR   O03930297  15.336   3.501  15.091
    1STR   C04030298  15.306   3.617  15.169
    1STR   H04130299  15.202   3.613  15.203
    1STR   C04230300  15.401   3.626  15.289
    1STR   H04330301  15.505   3.625  15.257
    1STR   H04430302  15.387   3.544  15.359
    1STR   H04530303  15.384   3.718  15.345
    1STR   C04630304  15.320   3.740  15.077
    1STR   H04730305  15.423   3.748  15.042
    1STR   H04830306  15.257   3.727  14.990
    1STR   O04930307  15.283   3.858  15.149
    1STR   C05030308  15.296   3.981  15.076
    1STR   H05130309  15.390   3.982  15.021
    1STR   C05230310  15.178   3.996  14.979
    1STR   H05330311  15.083   3.991  15.032
    1STR   H05430312  15.178   3.920  14.901
    1STR   H05530313  15.182   4.093  14.929
    1STR   C05630314  15.300   4.096  15.179
    1STR   H05730315  15.206   4.099  15.235
    1STR   H05830316  15.380   4.077  15.250
    1STR   O05930317  15.322   4.220  15.111
    1STR   C06030318  15.323   4.335  15.194
    1STR   H06130319  15.242   4.330  15.267
    1STR   C06230320  15.459   4.346  15.266
    1STR   H06330321  15.541   4.347  15.195
    1STR   H06430322  15.475   4.264  15.336
    1STR   H06530323  15.464   4.438  15.324
    1STR   C06630324  15.298   4.458  15.104
    1STR   H06730325  15.378   4.467  15.031
    1STR   H06830326  15.205   4.443  15.049
    1STR   O06930327  15.290   4.575  15.185
    1STR   C07030328  15.270   4.697  15.113
    1STR   H07130329  15.335   4.699  15.025
    1STR   C07230330  15.123   4.710  15.071
    1STR   H07330331  15.057   4.703  15.158
    1STR   H07430332  15.093   4.633  15.000
    1STR   H07530333  15.105   4.807  15.024
    1STR   C07630334  15.313   4.812  15.205
    1STR   H07730335  15.250   4.814  15.294
    1STR   H07830336  15.415   4.795  15.239
    1STR   O07930337  15.304   4.936  15.135
    1STR   C08030338  15.337   5.052  15.211
    1STR   H08130339  15.292   5.046  15.310
    1STR   C08230340  15.490   5.065  15.222
    1STR   H08330341  15.537   5.066  15.124
    1STR   H08430342  15.534   4.983  15.280
    1STR   H08530343  15.517   5.158  15.273
    1STR   C08630344  15.276   5.173  15.138
    1STR   H08730345  15.320   5.183  15.039
    1STR   H08830346  15.169   5.156  15.125
    1STR   O08930347  15.298   5.291  15.216
    1STR   C09030348  15.250   5.411  15.158
    1STR   H09130349  15.274   5.414  15.051
    1STR   C09230350  15.098   5.422  15.178
    1STR   H09330351  15.072   5.415  15.284
    1STR   H09430352  15.044   5.344  15.125
    1STR   H09530353  15.061   5.518  15.142
    1STR   C09630354  15.324   5.528  15.225
    1STR   H09730355  15.301   5.529  15.332
    1STR   H09830356  15.431   5.512  15.216
    1STR   O09930357  15.286   5.651  15.164
    1STR   C10030358  15.345   5.767  15.221
    1STR   H10130359  15.343   5.761  15.330
    1STR   C10230360  15.489   5.783  15.170
    1STR   H10330361  15.493   5.784  15.061
    1STR   H10430362  15.554   5.702  15.205
    1STR   H10530363  15.532   5.876  15.206
    1STR   C10630364  15.258   5.887  15.179
    1STR   H10730365  15.258   5.897  15.070
    1STR   H10830366  15.155   5.868  15.209
    1STR   O10930367  15.307   6.006  15.241
    1STR   C11030368  15.237   6.125  15.207
    1STR   H11130369  15.216   6.128  15.100
    1STR   C11230370  15.106   6.133  15.287
    1STR   H11330371  15.125   6.126  15.394
    1STR   H11430372  15.036   6.055  15.259
    1STR   H11530373  15.056   6.228  15.268
    1STR   C11630374  15.330   6.243  15.239
    1STR   H11730375  15.352   6.245  15.346
    1STR   H11830376  15.425   6.229  15.187
    1STR   O11930377  15.269   6.365  15.199
    1STR   C12030378  15.343   6.483  15.227
    1STR   H12130379  15.386   6.478  15.327
    1STR   C12230380  15.455   6.500  15.123
    1STR   H12330381  15.415   6.501  15.022
    1STR   H12430382  15.530   6.421  15.129
    1STR   H12530383  15.508   6.595  15.138
    1STR   C12630384  15.245   6.601  15.224
    1STR   H12730385  15.201   6.610  15.124
    1STR   H12830386  15.163   6.581  15.293
    1STR   O12930387  15.313   6.721  15.261
    1STR   C13030388  15.233   6.839  15.258
    1STR   H13130389  15.171   6.840  15.168
    1STR   C13230390  15.145   6.846  15.383
    1STR   H13330391  15.205   6.839  15.474
    1STR   H13430392  15.071   6.766  15.386
    1STR   H13530393  15.090   6.940  15.386
    1STR   C13630394  15.330   6.958  15.250
    1STR   H13730395  15.393   6.961  15.340
    1STR   H13830396  15.396   6.945  15.165
    1STR   O13930397  15.255   7.079  15.238
    1STR   C14030398  15.333   7.198  15.234
    1STR   H14130399  15.412   7.194  15.309
    1STR   C14230400  15.394   7.217  15.094
    1STR   H14330401  15.316   7.216  15.017
    1STR   H14430402  15.466   7.139  15.070
    1STR   H14530403  15.446   7.312  15.087
    1STR   C14630404  15.239   7.315  15.270
    1STR   H14730405  15.160   7.323  15.196
    1STR   H14830406  15.192   7.294  15.366
    1STR   O14930407  15.315   7.436  15.277
    1STR   C15030408  15.239   7.553  15.306
    1STR   H15130409  15.146   7.553  15.249
    1STR   C15230410  15.208   7.559  15.457
    1STR   H15330411  15.299   7.554  15.516
    1STR   H15430412  15.142   7.478  15.489
    1STR   H15530413  15.157   7.652  15.482
    1STR   C15630414  15.323   7.674  15.261
    1STR   H15730415  15.416   7.678  15.318
    1STR   H15830416  15.349   7.661  15.156
    1STR   O15930417  15.247   7.793  15.280
    1STR   C16030418  15.315   7.913  15.245
    1STR   H16130419  15.417   7.911  15.283
    1STR   C16230420  15.314   7.932  15.093
    1STR   H16330421  15.213   7.930  15.053
    1STR   H16430422  15.372   7.855  15.042
    1STR   H16530423  15.358   8.028  15.065
    1STR   C16630424  15.241   8.029  15.316
    1STR   H16730425  15.139   8.035  15.280
    1STR   H16830426  15.237   8.007  15.423
    1STR   O16930427  15.311   8.151  15.292
    1STR   C17030428  15.251   8.267  15.349
    1STR   H17130429  15.143   8.265  15.334
    1STR   C17230430  15.283   8.273  15.500
    1STR   H17330431  15.390   8.270  15.517
    1STR   H17430432  15.237   8.191  15.555
    1STR   H17530433  15.245   8.366  15.543
    1STR   C17630434  15.308   8.388  15.275
    1STR   H17730435  15.416   8.394  15.289
    1STR   H17830436  15.291   8.376  15.168
    1STR   O17930437  15.244   8.507  15.322
    1STR   C18030438  15.290   8.628  15.263
    1STR   H18130439  15.399   8.628  15.257
    1STR   C18230440  15.229   8.646  15.123
    1STR   H18330441  15.120   8.642  15.128
    1STR   H18430442  15.263   8.569  15.054
    1STR   H18530443  15.257   8.742  15.081
    1STR   C18630444  15.249   8.743  15.357
    1STR   H18730445  15.141   8.747  15.365
    1STR   H18830446  15.288   8.722  15.457
    1STR   O18930447  15.302   8.866  15.308
    1STR   C19030448  15.268   8.981  15.384
    1STR   H19130449  15.162   8.978  15.413
    1STR   C19230450  15.356   8.989  15.509
    1STR   H19330451  15.462   8.988  15.483
    1STR   H19430452  15.338   8.907  15.578
    1STR   H19530453  15.337   9.081  15.564
    1STR   C19630454  15.288   9.103  15.293
    1STR   H19730455  15.393   9.111  15.264
    1STR   H19830456  15.230   9.090  15.202
    1STR   O19930457  15.246   9.221  15.362
    1STR   C20030458  15.263   9.343  15.290
    1STR   H20130459  15.360   9.344  15.240
    1STR   C20230460  15.150   9.358  15.187
    1STR   H20330461  15.053   9.353  15.234
    1STR   H20430462  15.155   9.282  15.109
    1STR   H20530463  15.157   9.455  15.137
    1STR   C20630464  15.261   9.457  15.393
    1STR   H20730465  15.165   9.460  15.444
    1STR   H20830466  15.337   9.438  15.468
    1STR   O20930467  15.288   9.581  15.326
    1STR   C21030468  15.285   9.696  15.410
    1STR   H21130469  15.200   9.691  15.479
    1STR   C21230470  15.417   9.706  15.489
    1STR   H21330471  15.503   9.706  15.422
    1STR   H21430472  15.429   9.624  15.560
    1STR   H21530473  15.420   9.798  15.547
    1STR   C21630474  15.265   9.818  15.319
    1STR   H21730475  15.349   9.827  15.250
    1STR   H21830476  15.176   9.804  15.259
    1STR   O21930477  15.253   9.936  15.399
    1STR   C22030478  15.237  10.058  15.326
    1STR   H22130479  15.306  10.060  15.241
    1STR   C22230480  15.092  10.071  15.277
    1STR   H22330481  15.022  10.063  15.359
    1STR   H22430482  15.067   9.994  15.204
    1STR   H22530483  15.077  10.167  15.228
    1STR   C22630484  15.275  10.173  15.421
    1STR   H22730485  15.207  10.175  15.506
    1STR   H22830486  15.375  10.155  15.460
    1STR   O22930487  15.270  10.297  15.350
    1STR   C23030488  15.299  10.413  15.427
    1STR   H23130489  15.249  10.407  15.524
    1STR   C23230490  15.451  10.425  15.448
    1STR   H23330491  15.504  10.425  15.352
    1STR   H23430492  15.492  10.343  15.507
    1STR   H23530493  15.476  10.517  15.500
    1STR   C23630494  15.243  10.535  15.352
    1STR   H23730495  15.292  10.544  15.255
    1STR   H23830496  15.137  10.518  15.333
    1STR   O23930497  15.262  10.653  15.430
    1STR   C24030498  15.216  10.773  15.370
    1STR   H24130499  15.245  10.776  15.265
    1STR   C24230500  15.063  10.783  15.383
    1STR   H24330501  15.032  10.775  15.487
    1STR   H24430502  15.012  10.706  15.326
    1STR   H24530503  15.028  10.879  15.345
    1STR   C24630504  15.286  10.891  15.441
    1STR   H24730505  15.258  10.892  15.547
    1STR   H24830506  15.394  10.875  15.437
    1STR   O24930507  15.250  11.014  15.379
    1STR   C25030508  15.307  11.131  15.438
    1STR   H25130509  15.300  11.126  15.547
    1STR   C25230510  15.454  11.145  15.395
    1STR   H25330511  15.464  11.145  15.287
    1STR   H25430512  15.516  11.064  15.435
    1STR   H25530513  15.497  11.238  15.433
    1STR   C25630514  15.224  11.253  15.392
    1STR   H25730515  15.230  11.262  15.283
    1STR   H25830516  15.120  11.235  15.417
    1STR   O25930517  15.271  11.372  15.455
    1STR   C26030518  15.203  11.493  15.419
    1STR   H26130519  15.188  11.496  15.310
    1STR   C26230520  15.067  11.499  15.491
    1STR   H26330521  15.080  11.490  15.599
    1STR   H26430522  15.000  11.420  15.458
    1STR   H26530523  15.018  11.594  15.471
    1STR   C26630524  15.292  11.613  15.457
    1STR   H26730525  15.309  11.613  15.565
    1STR   H26830526  15.390  11.600  15.410
    1STR   O26930527  15.233  11.736  15.416
    1STR   C27030528  15.307  11.855  15.446
    1STR   H27130529  15.344  11.850  15.549
    1STR   C27230530  15.425  11.868  15.348
    1STR   H27330531  15.390  11.867  15.245
    1STR   H27430532  15.498  11.789  15.360
    1STR   H27530533  15.477  11.963  15.364
    1STR   C27630534  15.212  11.977  15.436
    1STR   H27730535  15.173  11.985  15.335
    1STR   H27830536  15.126  11.958  15.501
    1STR   O27930537  15.278  12.098  15.473
    1STR   C28030538  15.199  12.218  15.469
    1STR   H28130539  15.141  12.220  15.377
    1STR   C28230540  15.104  12.220  15.590
    1STR   H28330541  15.159  12.210  15.684
    1STR   H28430542  15.029  12.141  15.586
    1STR   H28530543  15.049  12.314  15.594
    1STR   C28630544  15.293  12.341  15.470
    1STR   H28730545  15.352  12.343  15.561
    1STR   H28830546  15.363  12.331  15.387
    1STR   O28930547  15.219  12.464  15.457
    1STR   C29030548  15.296  12.586  15.453
    1STR   H29130549  15.370  12.584  15.533
    1STR   C29230550  15.366  12.598  15.317
    1STR   H29330551  15.294  12.592  15.235
    1STR   H29430552  15.440  12.520  15.302
    1STR   H29530553  15.418  12.693  15.309
    1STR   C29630554  15.202  12.707  15.479
    1STR   H29730555  15.124  12.709  15.403
    1STR   H29830556  15.152  12.692  15.574
    1STR   O29930557  15.272  12.833  15.479
    1STR   C30030558  15.192  12.951  15.502
    1STR   H30130559  15.100  12.943  15.444
    1STR   C30230560  15.159  12.960  15.651
    1STR   H30330561  15.250  12.956  15.712
    1STR   H30430562  15.094  12.879  15.684
    1STR   H30530563  15.108  13.054  15.674
    1STR   C30630564  15.267  13.078  15.452
    1STR   H30730565  15.352  13.099  15.517
    1STR   H30830566  15.308  13.055  15.354
    1STR   O30930567  15.180  13.194  15.443
    1STR    H1R30568  15.326  13.341  15.454
    1STR    H1S30569  15.316  13.394  15.205
    1STR    H1T30570  15.196  13.267  15.186
    1STR    H1U30571  15.362  13.229  15.234
    1STR    H1V30572  15.105  13.448  15.508
    1STR    H1W30573  15.047  13.414  15.347
    1STR    H1X30574  15.287  13.749  15.335
    1STR    H1Y30575  15.372  13.951  15.335
    1STR    H1Z30576  15.391  14.172  15.237
    1STR    H2030577  15.212  14.288  14.944
    1STR    H2130578  15.196  14.373  15.099
    1STR    H2230579  15.352  14.309  15.047
    1STR    H2330580  14.980  14.065  14.916
    1STR    H2730581  15.007  13.883  15.115
    1STR    H2830582  15.440   1.323  15.138
    1STR    H2930583  15.463   1.089  15.180
    1STR    H2A30584  15.199   0.840  15.168
    1STR    H2B30585  15.355   0.885  15.233
    1STR    H2C30586  15.344   0.830  15.067
    1STR   BCK130587  14.884   0.852  29.971
    1STR    O0330588  14.763   0.853  29.990
    1STR    N0430589  14.956   0.963  29.948
    1STR    C0530590  14.906   1.078  29.883
    1STR    C0630591  14.912   1.210  29.938
    1STR    C0730592  14.865   1.324  29.865
    1STR    N0830593  14.875   1.457  29.915
    1STR    C0930594  14.816   1.570  29.869
    1STR    O0A30595  14.732   1.572  29.780
    1STR    O0B30596  14.860   1.685  29.930
    1STR    C0C30597  14.806   1.813  29.888
    1STR    C0D30598  14.666   1.833  29.947
    1STR    C0E30599  14.898   1.933  29.921
    1STR    O0F30600  14.840   2.054  29.869
    1STR    C0G30601  14.913   2.176  29.890
    1STR    C0H30602  15.029   2.184  29.790
    1STR    C0I30603  14.817   2.297  29.871
    1STR    O0J30604  14.885   2.420  29.899
    1STR    C0K30605  15.138  13.303  29.655
    1STR    C0M30606  15.012  13.298  29.742
    1STR    C0N30607  15.224  13.427  29.695
    1STR    O0O30608  15.172  13.547  29.635
    1STR    C0P30609  15.131  13.656  29.706
    1STR    O0Q30610  15.129  13.667  29.828
    1STR    N0R30611  15.090  13.747  29.617
    1STR    C0S30612  15.021  13.869  29.620
    1STR    C0T30613  14.966  13.904  29.496
    1STR    C0U30614  14.880  14.014  29.484
    1STR    C0V30615  14.849  14.094  29.595
    1STR    C0W30616  14.731  14.188  29.577
    1STR    C0X30617  14.917  14.074  29.718
    1STR    N0Y30618  14.893  14.157  29.830
    1STR   BCK230619  14.870  14.289  29.848
    1STR    O1030620  14.831  14.327  29.958
    1STR    C1330621  14.999  13.957  29.731
    1STR    C1430622  14.814   1.300  29.735
    1STR    C1530623  14.810   1.172  29.680
    1STR    C1630624  14.858   1.061  29.751
    1STR    C1730625  14.861   0.927  29.680
    1STR    H1B30626  15.056   0.953  29.954
    1STR    H1C30627  14.951   1.223  30.038
    1STR    H1D30628  14.933   1.473  29.995
    1STR    H1E30629  14.797   1.811  29.779
    1STR    H1F30630  14.669   1.838  30.056
    1STR    H1G30631  14.622   1.927  29.911
    1STR    H1H30632  14.598   1.753  29.918
    1STR    H1I30633  14.997   1.917  29.878
    1STR    H1J30634  14.912   1.942  30.029
    1STR    H1K30635  14.951   2.179  29.992
    1STR    H1M30636  14.993   2.178  29.687
    1STR    H1N30637  15.102   2.105  29.804
    1STR    H1O30638  15.082   2.279  29.800
    1STR    H1P30639  14.777   2.298  29.769
    1STR    H1Q30640  14.732   2.285  29.938
    1STR   C01030641  14.810   2.540  29.880
    1STR   H01130642  14.755   2.536  29.786
    1STR   C01230643  14.711   2.559  29.997
    1STR   H01330644  14.763   2.559  30.092
    1STR   H01430645  14.635   2.481  30.000
    1STR   H01530646  14.659   2.654  29.988
    1STR   C01630647  14.908   2.659  29.872
    1STR   H01730648  14.966   2.666  29.964
    1STR   H01830649  14.979   2.640  29.791
    1STR   O01930650  14.838   2.782  29.848
    1STR   C02030651  14.919   2.899  29.842
    1STR   H02130652  14.993   2.897  29.923
    1STR   C02230653  14.991   2.907  29.706
    1STR   H02330654  14.919   2.905  29.624
    1STR   H02430655  15.061   2.826  29.692
    1STR   H02530656  15.047   3.000  29.698
    1STR   C02630657  14.829   3.023  29.864
    1STR   H02730658  14.754   3.029  29.785
    1STR   H02830659  14.775   3.011  29.958
    1STR   O02930660  14.909   3.142  29.867
    1STR   C03030661  14.837   3.264  29.883
    1STR   H03130662  14.748   3.264  29.819
    1STR   C03230663  14.796   3.282  30.030
    1STR   H03330664  14.882   3.278  30.095
    1STR   H03430665  14.725   3.206  30.062
    1STR   H03530666  14.747   3.379  30.044
    1STR   C03630667  14.928   3.379  29.836
    1STR   H03730668  15.017   3.384  29.898
    1STR   H03830669  14.961   3.360  29.734
    1STR   O03930670  14.856   3.503  29.842
    1STR   C04030671  14.931   3.619  29.805
    1STR   H04130672  15.031   3.615  29.850
    1STR   C04230673  14.942   3.628  29.652
    1STR   H04330674  14.844   3.627  29.606
    1STR   H04430675  15.000   3.545  29.610
    1STR   H04530676  14.992   3.720  29.622
    1STR   C04630677  14.859   3.742  29.863
    1STR   H04730678  14.759   3.750  29.820
    1STR   H04830679  14.846   3.729  29.970
    1STR   O04930680  14.934   3.860  29.836
    1STR   C05030681  14.876   3.982  29.880
    1STR   H05130682  14.769   3.983  29.857
    1STR   C05230683  14.897   3.998  30.032
    1STR   H05330684  15.003   3.992  30.057
    1STR   H05430685  14.845   3.922  30.089
    1STR   H05530686  14.860   4.094  30.066
    1STR   C05630687  14.942   4.097  29.802
    1STR   H05730688  15.049   4.100  29.824
    1STR   H05830689  14.932   4.078  29.696
    1STR   O05930690  14.880   4.220  29.838
    1STR   C06030691  14.935   4.336  29.775
    1STR   H06130692  15.044   4.331  29.775
    1STR   C06230693  14.884   4.347  29.630
    1STR   H06330694  14.775   4.347  29.627
    1STR   H06430695  14.919   4.265  29.568
    1STR   H06530696  14.918   4.439  29.584
    1STR   C06630697  14.893   4.458  29.858
    1STR   H06730698  14.785   4.468  29.859
    1STR   H06830699  14.925   4.443  29.962
    1STR   O06930700  14.954   4.576  29.805
    1STR   C07030701  14.920   4.697  29.871
    1STR   H07130702  14.813   4.700  29.892
    1STR   C07230703  15.000   4.711  30.001
    1STR   H07330704  15.107   4.704  29.982
    1STR   H07430705  14.974   4.634  30.073
    1STR   H07530706  14.981   4.807  30.048
    1STR   C07630707  14.951   4.813  29.774
    1STR   H07730708  15.057   4.814  29.751
    1STR   H07830709  14.898   4.795  29.680
    1STR   O07930710  14.909   4.936  29.832
    1STR   C08030711  14.936   5.052  29.753
    1STR   H08130712  15.037   5.046  29.711
    1STR   C08230713  14.832   5.065  29.642
    1STR   H08330714  14.731   5.066  29.682
    1STR   H08430715  14.838   4.984  29.570
    1STR   H08530716  14.846   5.158  29.586
    1STR   C08630717  14.933   5.173  29.848
    1STR   H08730718  14.833   5.183  29.892
    1STR   H08830719  15.002   5.156  29.930
    1STR   O08930720  14.968   5.291  29.776
    1STR   C09030721  14.965   5.411  29.852
    1STR   H09130722  14.875   5.414  29.914
    1STR   C09230723  15.091   5.422  29.939
    1STR   H09330724  15.181   5.415  29.879
    1STR   H09430725  15.094   5.344  30.015
    1STR   H09530726  15.093   5.518  29.991
    1STR   C09630727  14.956   5.528  29.752
    1STR   H09730728  15.045   5.529  29.688
    1STR   H09830729  14.870   5.512  29.686
    1STR   O09930730  14.943   5.651  29.823
    1STR   C10030731  14.937   5.768  29.741
    1STR   H10130732  15.012   5.762  29.662
    1STR   C10230733  14.797   5.783  29.681
    1STR   H10330734  14.721   5.784  29.759
    1STR   H10430735  14.773   5.703  29.611
    1STR   H10530736  14.789   5.876  29.625
    1STR   C10630737  14.973   5.887  29.831
    1STR   H10730738  14.900   5.897  29.911
    1STR   H10830739  15.070   5.868  29.878
    1STR   O10930740  14.979   6.006  29.752
    1STR   C11030741  15.007   6.125  29.824
    1STR   H11130742  14.950   6.128  29.917
    1STR   C11230743  15.158   6.134  29.854
    1STR   H11330744  15.217   6.126  29.762
    1STR   H11430745  15.191   6.055  29.921
    1STR   H11530746  15.182   6.229  29.901
    1STR   C11630747  14.961   6.243  29.737
    1STR   H11730748  15.017   6.245  29.643
    1STR   H11830749  14.856   6.229  29.711
    1STR   O11930750  14.979   6.365  29.809
    1STR   C12030751  14.943   6.483  29.737
    1STR   H12130752  14.980   6.478  29.635
    1STR   C12230753  14.790   6.500  29.738
    1STR   H12330754  14.751   6.501  29.840
    1STR   H12430755  14.739   6.421  29.683
    1STR   H12530756  14.762   6.595  29.691
    1STR   C12630757  15.013   6.601  29.806
    1STR   H12730758  14.978   6.611  29.909
    1STR   H12830759  15.120   6.581  29.811
    1STR   O12930760  14.988   6.721  29.733
    1STR   C13030761  15.044   6.839  29.789
    1STR   H13130762  15.029   6.840  29.897
    1STR   C13230763  15.194   6.846  29.756
    1STR   H13330764  15.212   6.839  29.649
    1STR   H13430765  15.251   6.766  29.804
    1STR   H13530766  15.237   6.940  29.791
    1STR   C13630767  14.968   6.958  29.729
    1STR   H13730768  14.982   6.961  29.621
    1STR   H13830769  14.862   6.945  29.747
    1STR   O13930770  15.015   7.079  29.789
    1STR   C14030771  14.955   7.198  29.739
    1STR   H14130772  14.947   7.194  29.630
    1STR   C14230773  14.816   7.217  29.801
    1STR   H14330774  14.821   7.216  29.910
    1STR   H14430775  14.746   7.139  29.771
    1STR   H14530776  14.772   7.312  29.771
    1STR   C14630777  15.049   7.315  29.775
    1STR   H14730778  15.057   7.323  29.884
    1STR   H14830779  15.148   7.294  29.737
    1STR   O14930780  14.998   7.436  29.720
    1STR   C15030781  15.073   7.553  29.750
    1STR   H15130782  15.103   7.553  29.855
    1STR   C15230783  15.198   7.559  29.660
    1STR   H15330784  15.170   7.554  29.554
    1STR   H15430785  15.267   7.478  29.680
    1STR   H15530786  15.252   7.652  29.675
    1STR   C15630787  14.981   7.673  29.726
    1STR   H15730788  14.951   7.678  29.621
    1STR   H15830789  14.890   7.661  29.785
    1STR   O15930790  15.049   7.793  29.764
    1STR   C16030791  14.976   7.913  29.743
    1STR   H16130792  14.926   7.911  29.646
    1STR   C16230793  14.873   7.932  29.856
    1STR   H16330794  14.921   7.930  29.954
    1STR   H16430795  14.796   7.855  29.854
    1STR   H16530796  14.822   8.028  29.846
    1STR   C16630797  15.078   8.029  29.741
    1STR   H16730798  15.129   8.035  29.837
    1STR   H16830799  15.153   8.007  29.665
    1STR   O16930800  15.010   8.151  29.711
    1STR   C17030801  15.093   8.267  29.709
    1STR   H17130802  15.162   8.265  29.794
    1STR   C17230803  15.171   8.273  29.577
    1STR   H17330804  15.104   8.270  29.491
    1STR   H17430805  15.242   8.191  29.567
    1STR   H17530806  15.228   8.366  29.571
    1STR   C17630807  15.001   8.388  29.726
    1STR   H17730808  14.931   8.394  29.642
    1STR   H17830809  14.941   8.376  29.817
    1STR   O17930810  15.080   8.507  29.735
    1STR   C18030811  15.006   8.628  29.746
    1STR   H18130812  14.921   8.628  29.678
    1STR   C18230813  14.957   8.646  29.891
    1STR   H18330814  15.040   8.642  29.962
    1STR   H18430815  14.885   8.569  29.920
    1STR   H18530816  14.908   8.742  29.904
    1STR   C18630817  15.100   8.743  29.705
    1STR   H18730818  15.185   8.747  29.772
    1STR   H18830819  15.139   8.722  29.605
    1STR   O18930820  15.028   8.866  29.706
    1STR   C19030821  15.104   8.981  29.672
    1STR   H19130822  15.201   8.977  29.722
    1STR   C19230823  15.124   8.989  29.520
    1STR   H19330824  15.028   8.988  29.468
    1STR   H19430825  15.184   8.907  29.482
    1STR   H19530826  15.175   9.081  29.493
    1STR   C19630827  15.028   9.103  29.726
    1STR   H19730828  14.931   9.111  29.677
    1STR   H19830829  15.010   9.090  29.832
    1STR   O19930830  15.106   9.221  29.703
    1STR   C20030831  15.044   9.343  29.745
    1STR   H20130832  14.939   9.344  29.716
    1STR   C20230833  15.058   9.358  29.897
    1STR   H20330834  15.162   9.353  29.929
    1STR   H20430835  15.002   9.282  29.952
    1STR   H20530836  15.019   9.455  29.930
    1STR   C20630837  15.115   9.457  29.670
    1STR   H20730838  15.220   9.460  29.698
    1STR   H20830839  15.110   9.438  29.563
    1STR   O20930840  15.051   9.581  29.702
    1STR   C21030841  15.109   9.696  29.642
    1STR   H21130842  15.218   9.691  29.648
    1STR   C21230843  15.066   9.706  29.494
    1STR   H21330844  14.957   9.706  29.485
    1STR   H21430845  15.105   9.624  29.434
    1STR   H21530846  15.103   9.798  29.450
    1STR   C21630847  15.062   9.818  29.722
    1STR   H21730848  14.954   9.827  29.716
    1STR   H21830849  15.088   9.803  29.827
    1STR   O21930850  15.125   9.935  29.672
    1STR   C22030851  15.088  10.057  29.736
    1STR   H22130852  14.980  10.059  29.752
    1STR   C22230853  15.161  10.070  29.870
    1STR   H22330854  15.269  10.063  29.857
    1STR   H22430855  15.131   9.993  29.941
    1STR   H22530856  15.140  10.167  29.916
    1STR   C22630857  15.124  10.172  29.641
    1STR   H22730858  15.231  10.174  29.623
    1STR   H22830859  15.076  10.154  29.544
    1STR   O22930860  15.079  10.296  29.696
    1STR   C23030861  15.110  10.412  29.619
    1STR   H23130862  15.213  10.406  29.582
    1STR   C23230863  15.012  10.424  29.502
    1STR   H23330864  14.909  10.425  29.537
    1STR   H23430865  15.022  10.342  29.430
    1STR   H23530866  15.029  10.517  29.447
    1STR   C23630867  15.101  10.533  29.713
    1STR   H23730868  14.999  10.543  29.751
    1STR   H23830869  15.166  10.516  29.799
    1STR   O23930870  15.140  10.651  29.643
    1STR   C24030871  15.133  10.772  29.718
    1STR   H24130872  15.040  10.775  29.776
    1STR   C24230873  15.254  10.782  29.812
    1STR   H24330874  15.347  10.774  29.757
    1STR   H24430875  15.253  10.704  29.889
    1STR   H24530876  15.254  10.878  29.864
    1STR   C24630877  15.130  10.889  29.618
    1STR   H24730878  15.222  10.890  29.559
    1STR   H24830879  15.047  10.873  29.548
    1STR   O24930880  15.113  11.012  29.688
    1STR   C25030881  15.112  11.129  29.606
    1STR   H25130882  15.191  11.123  29.531
    1STR   C25230883  14.975  11.143  29.538
    1STR   H25330884  14.894  11.143  29.611
    1STR   H25430885  14.955  11.062  29.467
    1STR   H25530886  14.969  11.236  29.481
    1STR   C25630887  15.142  11.250  29.697
    1STR   H25730888  15.064  11.259  29.773
    1STR   H25830889  15.236  11.231  29.749
    1STR   O25930890  15.150  11.369  29.618
    1STR   C26030891  15.176  11.489  29.691
    1STR   H26130892  15.114  11.491  29.781
    1STR   C26230893  15.325  11.496  29.729
    1STR   H26330894  15.388  11.487  29.641
    1STR   H26430895  15.353  11.417  29.799
    1STR   H26530896  15.347  11.591  29.777
    1STR   C26630897  15.135  11.608  29.602
    1STR   H26730898  15.196  11.608  29.511
    1STR   H26830899  15.031  11.594  29.571
    1STR   O26930900  15.150  11.730  29.673
    1STR   C27030901  15.117  11.849  29.600
    1STR   H27130902  15.159  11.843  29.500
    1STR   C27230903  14.964  11.864  29.593
    1STR   H27330904  14.920  11.863  29.693
    1STR   H27430905  14.917  11.784  29.535
    1STR   H27530906  14.937  11.958  29.545
    1STR   C27630907  15.181  11.969  29.672
    1STR   H27730908  15.141  11.978  29.773
    1STR   H27830909  15.288  11.950  29.682
    1STR   O27930910  15.158  12.090  29.599
    1STR   C28030911  15.213  12.209  29.656
    1STR   H28130912  15.192  12.211  29.763
    1STR   C28230913  15.365  12.213  29.632
    1STR   H28330914  15.388  12.204  29.526
    1STR   H28430915  15.417  12.134  29.685
    1STR   H28530916  15.407  12.307  29.667
    1STR   C28630917  15.143  12.331  29.592
    1STR   H28730918  15.162  12.333  29.485
    1STR   H28830919  15.035  12.320  29.606
    1STR   O28930920  15.188  12.454  29.652
    1STR   C29030921  15.130  12.574  29.602
    1STR   H29130922  15.129  12.572  29.493
    1STR   C29230923  14.987  12.589  29.655
    1STR   H29330924  14.985  12.585  29.764
    1STR   H29430925  14.920  12.511  29.618
    1STR   H29530926  14.944  12.684  29.625
    1STR   C29630927  15.218  12.694  29.646
    1STR   H29730928  15.224  12.697  29.754
    1STR   H29830929  15.320  12.677  29.610
    1STR   O29930930  15.168  12.819  29.595
    1STR   C30030931  15.243  12.936  29.631
    1STR   H30130932  15.271  12.930  29.737
    1STR   C30230933  15.370  12.944  29.544
    1STR   H30330934  15.345  12.939  29.438
    1STR   H30430935  15.439  12.862  29.565
    1STR   H30530936  15.423  13.037  29.562
    1STR   C30630937  15.154  13.062  29.613
    1STR   H30730938  15.133  13.077  29.507
    1STR   H30830939  15.059  13.042  29.661
    1STR   O30930940  15.214  13.181  29.669
    1STR    H1R30941  15.111  13.314  29.550
    1STR    H1S30942  14.960  13.394  29.740
    1STR    H1T30943  15.037  13.276  29.846
    1STR    H1U30944  14.941  13.223  29.708
    1STR    H1V30945  15.325  13.414  29.656
    1STR    H1W30946  15.234  13.436  29.803
    1STR    H1X30947  15.107  13.709  29.526
    1STR    H1Y30948  14.983  13.844  29.408
    1STR    H1Z30949  14.832  14.033  29.389
    1STR    H2030950  14.686  14.215  29.672
    1STR    H2130951  14.762  14.278  29.524
    1STR    H2230952  14.653  14.140  29.519
    1STR    H2330953  14.890  14.109  29.918
    1STR    H2730954  15.045  13.933  29.826
    1STR    H2830955  14.778   1.379  29.671
    1STR    H2930956  14.771   1.159  29.580
    1STR    H2A30957  14.957   0.878  29.696
    1STR    H2B30958  14.847   0.938  29.573
    1STR    H2C30959  14.782   0.862  29.718
    1STR   BCK130960  14.949   0.863  45.113
    1STR    O0330961  15.025   0.796  45.182
    1STR    N0430962  14.921   0.994  45.136
    1STR    C0530963  14.954   1.080  45.244
    1STR    C0630964  14.982   1.219  45.221
    1STR    C0730965  15.007   1.313  45.327
    1STR    N0830966  15.028   1.451  45.302
    1STR    C0930967  15.028   1.556  45.388
    1STR    O0A30968  15.005   1.547  45.508
    1STR    O0B30969  15.054   1.677  45.328
    1STR    C0C30970  15.065   1.798  45.408
    1STR    C0D30971  15.208   1.808  45.466
    1STR    C0E30972  15.030   1.927  45.328
    1STR    O0F30973  15.041   2.045  45.410
    1STR    C0G30974  15.004   2.170  45.348
    1STR    C0H30975  14.851   2.181  45.344
    1STR    C0I30976  15.064   2.290  45.427
    1STR    O0J30977  15.032   2.414  45.361
    1STR    C0K30978  14.660  13.304  45.369
    1STR    C0M30979  14.813  13.306  45.382
    1STR    C0N30980  14.612  13.422  45.279
    1STR    O0O30981  14.640  13.549  45.340
    1STR    C0P30982  14.669  13.658  45.264
    1STR    O0Q30983  14.682  13.657  45.142
    1STR    N0R30984  14.683  13.765  45.342
    1STR    C0S30985  14.724  13.897  45.315
    1STR    C0T30986  14.759  13.976  45.427
    1STR    C0U30987  14.812  14.105  45.410
    1STR    C0V30988  14.829  14.161  45.281
    1STR    C0W30989  14.908  14.290  45.271
    1STR    C0X30990  14.785  14.089  45.167
    1STR    N0Y30991  14.805  14.134  45.036
    1STR   BCK230992  14.777  14.245  44.964
    1STR    O1030993  14.807  14.246  44.845
    1STR    C1330994  14.735  13.957  45.186
    1STR    C1430995  15.010   1.261  45.458
    1STR    C1530996  14.981   1.126  45.483
    1STR    C1630997  14.949   1.037  45.380
    1STR    C1730998  14.904   0.898  45.422
    1STR    H1B30999  14.868   1.035  45.061
    1STR    H1C31000  14.982   1.255  45.119
    1STR    H1D31001  15.046   1.481  45.208
    1STR    H1E31002  14.995   1.792  45.491
    1STR    H1F31003  15.283   1.816  45.388
    1STR    H1G31004  15.217   1.896  45.530
    1STR    H1H31005  15.231   1.721  45.528
    1STR    H1I31006  14.928   1.916  45.291
    1STR    H1J31007  15.095   1.936  45.241
    1STR    H1K31008  15.045   2.174  45.247
    1STR    H1M31009  14.808   2.174  45.444
    1STR    H1N31010  14.805   2.104  45.282
    1STR    H1O31011  14.821   2.277  45.302
    1STR    H1P31012  15.025   2.291  45.529
    1STR    H1Q31013  15.172   2.278  45.434
    1STR   C01031014  15.075   2.535  45.425
    1STR   H01131015  15.052   2.531  45.531
    1STR   C01231016  15.226   2.554  45.405
    1STR   H01331017  15.252   2.554  45.299
    1STR   H01431018  15.284   2.476  45.454
    1STR   H01531019  15.259   2.649  45.447
    1STR   C01631020  14.997   2.654  45.364
    1STR   H01731021  15.016   2.660  45.257
    1STR   H01831022  14.890   2.636  45.376
    1STR   O01931023  15.033   2.777  45.428
    1STR   C02031024  14.969   2.895  45.377
    1STR   H02131025  14.969   2.893  45.268
    1STR   C02231026  14.825   2.904  45.429
    1STR   H02331027  14.822   2.902  45.538
    1STR   H02431028  14.763   2.822  45.392
    1STR   H02531029  14.777   2.996  45.396
    1STR   C02631030  15.050   3.019  45.421
    1STR   H02731031  15.052   3.026  45.530
    1STR   H02831032  15.153   3.008  45.388
    1STR   O02931033  14.993   3.139  45.366
    1STR   C03031034  15.056   3.261  45.403
    1STR   H03131035  15.079   3.261  45.510
    1STR   C03231036  15.186   3.280  45.322
    1STR   H03331037  15.166   3.276  45.215
    1STR   H03431038  15.260   3.204  45.346
    1STR   H03531039  15.231   3.377  45.344
    1STR   C03631040  14.958   3.377  45.376
    1STR   H03731041  14.933   3.381  45.270
    1STR   H03831042  14.865   3.358  45.429
    1STR   O03931043  15.015   3.501  45.419
    1STR   C04031044  14.935   3.617  45.396
    1STR   H04131045  14.892   3.613  45.296
    1STR   C04231046  14.823   3.626  45.501
    1STR   H04331047  14.864   3.625  45.602
    1STR   H04431048  14.752   3.544  45.493
    1STR   H04531049  14.766   3.718  45.489
    1STR   C04631050  15.027   3.741  45.402
    1STR   H04731051  15.071   3.748  45.502
    1STR   H04831052  15.109   3.728  45.332
    1STR   O04931053  14.953   3.859  45.371
    1STR   C05031054  15.026   3.981  45.378
    1STR   H05131055  15.089   3.982  45.467
    1STR   C05231056  15.113   3.997  45.252
    1STR   H05331057  15.052   3.991  45.162
    1STR   H05431058  15.190   3.921  45.245
    1STR   H05531059  15.163   4.094  45.252
    1STR   C05631060  14.925   4.096  45.391
    1STR   H05731061  14.860   4.099  45.303
    1STR   H05831062  14.860   4.077  45.477
    1STR   O05931063  14.994   4.220  45.407
    1STR   C06031064  14.911   4.335  45.416
    1STR   H06131065  14.831   4.330  45.342
    1STR   C06231066  14.852   4.346  45.557
    1STR   H06331067  14.930   4.347  45.633
    1STR   H06431068  14.784   4.264  45.580
    1STR   H06531069  14.795   4.438  45.568
    1STR   C06631070  14.998   4.458  45.383
    1STR   H06731071  15.079   4.467  45.456
    1STR   H06831072  15.045   4.443  45.285
    1STR   O06931073  14.917   4.575  45.381
    1STR   C07031074  14.987   4.697  45.356
    1STR   H07131075  15.081   4.699  45.412
    1STR   C07231076  15.016   4.710  45.205
    1STR   H07331077  14.924   4.703  45.147
    1STR   H07431078  15.085   4.633  45.170
    1STR   H07531079  15.062   4.807  45.183
    1STR   C07631080  14.899   4.812  45.406
    1STR   H07731081  14.805   4.814  45.351
    1STR   H07831082  14.874   4.795  45.511
    1STR   O07931083  14.969   4.936  45.391
    1STR   C08031084  14.896   5.052  45.431
    1STR   H08131085  14.793   5.046  45.395
    1STR   C08231086  14.897   5.065  45.584
    1STR   H08331087  15.000   5.066  45.622
    1STR   H08431088  14.844   4.983  45.633
    1STR   H08531089  14.849   5.158  45.615
    1STR   C08631090  14.962   5.173  45.364
    1STR   H08731091  15.065   5.183  45.398
    1STR   H08831092  14.967   5.156  45.256
    1STR   O08931093  14.887   5.291  45.393
    1STR   C09031094  14.941   5.411  45.339
    1STR   H09131095  15.049   5.414  45.354
    1STR   C09231096  14.907   5.422  45.190
    1STR   H09331097  14.800   5.415  45.173
    1STR   H09431098  14.956   5.344  45.131
    1STR   H09531099  14.940   5.518  45.150
    1STR   C09631100  14.880   5.528  45.419
    1STR   H09731101  14.772   5.529  45.406
    1STR   H09831102  14.899   5.512  45.525
    1STR   O09931103  14.938   5.651  45.376
    1STR   C10031104  14.887   5.767  45.439
    1STR   H10131105  14.778   5.761  45.447
    1STR   C10231106  14.949   5.783  45.579
    1STR   H10331107  15.058   5.784  45.573
    1STR   H10431108  14.920   5.702  45.646
    1STR   H10531109  14.918   5.876  45.625
    1STR   C10631110  14.921   5.887  45.349
    1STR   H10731111  15.029   5.897  45.340
    1STR   H10831112  14.882   5.868  45.249
    1STR   O10931113  14.863   6.006  45.404
    1STR   C11031114  14.891   6.125  45.331
    1STR   H11131115  14.996   6.128  45.301
    1STR   C11231116  14.800   6.133  45.208
    1STR   H11331117  14.695   6.126  45.236
    1STR   H11431118  14.821   6.055  45.135
    1STR   H11531119  14.814   6.228  45.156
    1STR   C11631120  14.867   6.243  45.427
    1STR   H11731121  14.762   6.245  45.458
    1STR   H11831122  14.927   6.229  45.517
    1STR   O11931123  14.902   6.365  45.362
    1STR   C12031124  14.880   6.483  45.438
    1STR   H12131125  14.784   6.478  45.489
    1STR   C12231126  14.993   6.500  45.541
    1STR   H12331127  15.091   6.501  45.492
    1STR   H12431128  14.994   6.421  45.616
    1STR   H12531129  14.982   6.595  45.595
    1STR   C12631130  14.875   6.601  45.340
    1STR   H12731131  14.971   6.610  45.288
    1STR   H12831132  14.799   6.581  45.264
    1STR   O12931133  14.844   6.721  45.411
    1STR   C13031134  14.840   6.839  45.332
    1STR   H13131135  14.924   6.840  45.262
    1STR   C13231136  14.708   6.846  45.254
    1STR   H13331137  14.622   6.839  45.322
    1STR   H13431138  14.698   6.766  45.181
    1STR   H13531139  14.700   6.940  45.200
    1STR   C13631140  14.856   6.958  45.427
    1STR   H13731141  14.772   6.961  45.497
    1STR   H13831142  14.947   6.945  45.486
    1STR   O13931143  14.862   7.079  45.351
    1STR   C14031144  14.872   7.198  45.429
    1STR   H14131145  14.805   7.194  45.514
    1STR   C14231146  15.017   7.217  45.477
    1STR   H14331147  15.087   7.216  45.393
    1STR   H14431148  15.048   7.139  45.546
    1STR   H14531149  15.029   7.312  45.529
    1STR   C14631150  14.828   7.315  45.339
    1STR   H14731151  14.895   7.323  45.253
    1STR   H14831152  14.728   7.294  45.300
    1STR   O14931153  14.828   7.436  45.414
    1STR   C15031154  14.792   7.553  45.341
    1STR   H15131155  14.841   7.553  45.244
    1STR   C15231156  14.640   7.559  45.324
    1STR   H15331157  14.589   7.554  45.420
    1STR   H15431158  14.602   7.478  45.261
    1STR   H15531159  14.610   7.652  45.275
    1STR   C15631160  14.844   7.674  45.421
    1STR   H15731161  14.796   7.678  45.518
    1STR   H15831162  14.951   7.661  45.438
    1STR   O15931163  14.819   7.793  45.347
    1STR   C16031164  14.860   7.913  45.411
    1STR   H16131165  14.832   7.911  45.517
    1STR   C16231166  15.012   7.932  45.398
    1STR   H16331167  15.042   7.930  45.293
    1STR   H16431168  15.068   7.855  45.450
    1STR   H16531169  15.043   8.028  45.439
    1STR   C16631170  14.783   8.029  45.345
    1STR   H16731171  14.810   8.035  45.239
    1STR   H16831172  14.676   8.007  45.349
    1STR   O16931173  14.812   8.151  45.412
    1STR   C17031174  14.750   8.267  45.358
    1STR   H17131175  14.757   8.265  45.249
    1STR   C17231176  14.603   8.273  45.402
    1STR   H17331177  14.595   8.270  45.511
    1STR   H17431178  14.544   8.191  45.362
    1STR   H17531179  14.557   8.366  45.368
    1STR   C17631180  14.830   8.388  45.407
    1STR   H17731181  14.824   8.394  45.516
    1STR   H17831182  14.935   8.376  45.381
    1STR   O17931183  14.777   8.507  45.348
    1STR   C18031184  14.840   8.628  45.389
    1STR   H18131185  14.856   8.628  45.497
    1STR   C18231186  14.973   8.646  45.315
    1STR   H18331187  14.960   8.642  45.207
    1STR   H18431188  15.046   8.569  45.343
    1STR   H18531189  15.018   8.742  45.339
    1STR   C18631190  14.742   8.743  45.356
    1STR   H18731191  14.725   8.747  45.249
    1STR   H18831192  14.646   8.722  45.404
    1STR   O18931193  14.796   8.866  45.404
    1STR   C19031194  14.717   8.981  45.377
    1STR   H19131195  14.679   8.977  45.275
    1STR   C19231196  14.600   8.989  45.477
    1STR   H19331197  14.636   8.988  45.580
    1STR   H19431198  14.530   8.907  45.464
    1STR   H19531199  14.544   9.081  45.462
    1STR   C19631200  14.809   9.103  45.389
    1STR   H19731201  14.848   9.111  45.491
    1STR   H19831202  14.895   9.090  45.323
    1STR   O19931203  14.737   9.221  45.353
    1STR   C20031204  14.811   9.343  45.364
    1STR   H20131205  14.869   9.344  45.456
    1STR   C20231206  14.903   9.358  45.243
    1STR   H20331207  14.847   9.353  45.149
    1STR   H20431208  14.981   9.282  45.240
    1STR   H20531209  14.954   9.455  45.245
    1STR   C20631210  14.708   9.457  45.372
    1STR   H20731211  14.649   9.460  45.280
    1STR   H20831212  14.639   9.438  45.454
    1STR   O20931213  14.777   9.581  45.392
    1STR   C21031214  14.693   9.696  45.397
    1STR   H21131215  14.617   9.691  45.318
    1STR   C21231216  14.626   9.706  45.535
    1STR   H21331217  14.700   9.706  45.615
    1STR   H21431218  14.557   9.624  45.553
    1STR   H21531219  14.568   9.798  45.543
    1STR   C21631220  14.782   9.818  45.369
    1STR   H21731221  14.858   9.827  45.446
    1STR   H21831222  14.834   9.803  45.274
    1STR   O21931223  14.701   9.935  45.363
    1STR   C22031224  14.772  10.057  45.342
    1STR   H22131225  14.863  10.059  45.403
    1STR   C22231226  14.809  10.070  45.193
    1STR   H22331227  14.720  10.063  45.130
    1STR   H22431228  14.879   9.993  45.161
    1STR   H22531229  14.856  10.167  45.173
    1STR   C22631230  14.681  10.172  45.387
    1STR   H22731231  14.590  10.174  45.327
    1STR   H22831232  14.651  10.154  45.491
    1STR   O22931233  14.752  10.296  45.376
    1STR   C23031234  14.677  10.412  45.412
    1STR   H23131235  14.576  10.406  45.371
    1STR   C23231236  14.670  10.424  45.566
    1STR   H23331237  14.770  10.425  45.609
    1STR   H23431238  14.614  10.342  45.611
    1STR   H23531239  14.621  10.516  45.595
    1STR   C23631240  14.747  10.533  45.350
    1STR   H23731241  14.848  10.543  45.390
    1STR   H23831242  14.757  10.516  45.242
    1STR   O23931243  14.671  10.651  45.375
    1STR   C24031244  14.727  10.772  45.324
    1STR   H24131245  14.834  10.775  45.344
    1STR   C24231246  14.701  10.782  45.173
    1STR   H24331247  14.595  10.774  45.151
    1STR   H24431248  14.753  10.705  45.117
    1STR   H24531249  14.736  10.878  45.135
    1STR   C24631250  14.661  10.889  45.400
    1STR   H24731251  14.554  10.890  45.382
    1STR   H24831252  14.675  10.873  45.507
    1STR   O24931253  14.721  11.012  45.360
    1STR   C25031254  14.667  11.129  45.421
    1STR   H25131255  14.558  11.123  45.424
    1STR   C25231256  14.722  11.143  45.564
    1STR   H25331257  14.831  11.143  45.565
    1STR   H25431258  14.688  11.062  45.629
    1STR   H25531259  14.688  11.236  45.610
    1STR   C25631260  14.706  11.250  45.334
    1STR   H25731261  14.815  11.259  45.331
    1STR   H25831262  14.672  11.232  45.232
    1STR   O25931263  14.647  11.369  45.386
    1STR   C26031264  14.677  11.489  45.315
    1STR   H26131265  14.784  11.492  45.291
    1STR   C26231266  14.593  11.496  45.187
    1STR   H26331267  14.487  11.488  45.209
    1STR   H26431268  14.619  11.417  45.116
    1STR   H26531269  14.609  11.591  45.136
    1STR   C26631270  14.647  11.608  45.408
    1STR   H26731271  14.541  11.609  45.434
    1STR   H26831272  14.702  11.594  45.501
    1STR   O26931273  14.684  11.731  45.346
    1STR   C27031274  14.659  11.849  45.422
    1STR   H27131275  14.560  11.844  45.468
    1STR   C27231276  14.767  11.864  45.531
    1STR   H27331277  14.867  11.864  45.487
    1STR   H27431278  14.762  11.785  45.605
    1STR   H27531279  14.755  11.958  45.584
    1STR   C27631280  14.660  11.969  45.325
    1STR   H27731281  14.758  11.978  45.278
    1STR   H27831282  14.588  11.951  45.246
    1STR   O27931283  14.628  12.090  45.395
    1STR   C28031284  14.626  12.209  45.316
    1STR   H28131285  14.714  12.211  45.250
    1STR   C28231286  14.498  12.214  45.231
    1STR   H28331287  14.409  12.205  45.294
    1STR   H28431288  14.494  12.134  45.157
    1STR   H28531289  14.491  12.308  45.177
    1STR   C28631290  14.635  12.331  45.410
    1STR   H28731291  14.548  12.333  45.477
    1STR   H28831292  14.723  12.320  45.473
    1STR   O28931293  14.642  12.454  45.336
    1STR   C29031294  14.651  12.574  45.413
    1STR   H29131295  14.579  12.571  45.495
    1STR   C29231296  14.793  12.589  45.470
    1STR   H29331297  14.867  12.585  45.390
    1STR   H29431298  14.817  12.510  45.541
    1STR   H29531299  14.804  12.684  45.522
    1STR   C29631300  14.614  12.694  45.322
    1STR   H29731301  14.684  12.699  45.238
    1STR   H29831302  14.516  12.675  45.280
    1STR   O29931303  14.615  12.818  45.394
    1STR   C30031304  14.582  12.935  45.318
    1STR   H30131305  14.634  12.931  45.222
    1STR   C30231306  14.430  12.940  45.295
    1STR   H30331307  14.376  12.934  45.390
    1STR   H30431308  14.395  12.858  45.232
    1STR   H30531309  14.401  13.033  45.246
    1STR   C30631310  14.631  13.062  45.393
    1STR   H30731311  14.576  13.073  45.487
    1STR   H30831312  14.736  13.046  45.419
    1STR   O30931313  14.617  13.179  45.311
    1STR    H1R31314  14.614  13.315  45.467
    1STR    H1S31315  14.848  13.403  45.416
    1STR    H1T31316  14.860  13.286  45.285
    1STR    H1U31317  14.850  13.232  45.453
    1STR    H1V31318  14.505  13.415  45.262
    1STR    H1W31319  14.659  13.414  45.181
    1STR    H1X31320  14.665  13.742  45.438
    1STR    H1Y31321  14.752  13.936  45.527
    1STR    H1Z31322  14.845  14.160  45.497
    1STR    H2031323  14.988  14.279  45.198
    1STR    H2131324  14.845  14.374  45.242
    1STR    H2231325  14.954  14.317  45.366
    1STR    H2331326  14.845  14.065  44.974
    1STR    H2731327  14.706  13.899  45.100
    1STR    H2831328  15.033   1.322  45.544
    1STR    H2931329  14.980   1.092  45.586
    1STR    H2A31330  14.829   0.858  45.354
    1STR    H2B31331  14.858   0.901  45.521
    1STR    H2C31332  14.989   0.830  45.427
    1STR   BCK131333  14.995  15.900  59.966
    1STR    O0331334  15.063  15.842  59.883
    1STR    N0431335  15.020  16.023  60.017
    1STR    C0531336  15.122  16.117  59.991
    1STR    C0631337  15.090  16.257  59.995
    1STR    C0731338  15.187  16.359  59.968
    1STR    N0831339  15.155  16.496  59.978
    1STR    C0931340  15.218  16.603  59.924
    1STR    O0A31341  15.311  16.595  59.845
    1STR    O0B31342  15.165  16.722  59.965
    1STR    C0C31343  15.214  16.846  59.909
    1STR    C0D31344  15.149  16.868  59.771
    1STR    C0E31345  15.190  16.969  60.001
    1STR    O0F31346  15.237  17.090  59.939
    1STR    C0G31347  15.221  17.212  60.013
    1STR    C0H31348  15.329  17.221  60.122
    1STR    C0I31349  15.231  17.333  59.917
    1STR    O0J31350  15.209  17.456  59.988
    1STR    C0K31351  15.447  28.357   0.030
    1STR    C0M31352  15.350  28.331  60.074
    1STR    C0N31353  15.403  28.488   0.103
    1STR    O0O31354  15.416  28.602   0.016
    1STR    C0P31355  15.327  28.707   0.016
    1STR    O0Q31356  15.223  28.713   0.081
    1STR    N0R31357  15.373  28.804  60.096
    1STR    C0S31358  15.332  28.933  60.058
    1STR    C0T31359  15.435  29.016  60.011
    1STR    C0U31360  15.408  29.146  59.965
    1STR    C0V31361  15.277  29.198  59.964
    1STR    C0W31362  15.264  29.341  59.916
    1STR    C0X31363  15.168  29.119  60.010
    1STR    N0Y31364  15.034  29.164  60.021
    1STR   BCK231365  14.944  29.259  59.981
    1STR    O1031366  14.835  29.257  60.036
    1STR    C1331367  15.199  28.987  60.058
    1STR    C1431368  15.318  16.316  59.936
    1STR    C1531369  15.352  16.180  59.937
    1STR    C1631370  15.258  16.081  59.968
    1STR    C1731371  15.311  15.940  59.983
    1STR    H1B31372  14.948  16.052  60.081
    1STR    H1C31373  14.989  16.286  60.018
    1STR    H1D31374  15.075  16.523  60.033
    1STR    H1E31375  15.322  16.838  59.895
    1STR    H1F31376  15.040  16.877  59.779
    1STR    H1G31377  15.186  16.959  59.724
    1STR    H1H31378  15.171  16.785  59.704
    1STR    H1I31379  15.241  16.953  60.096
    1STR    H1J31380  15.083  16.978  60.023
    1STR    H1K31381  15.122  17.214  60.059
    1STR    H1M31382  15.429  17.216  60.078
    1STR    H1N31383  15.321  17.141   0.036
    1STR    H1O31384  15.322  17.315   0.015
    1STR    H1P31385  15.329  17.335  59.869
    1STR    H1Q31386  15.157  17.322  59.837
    1STR   C01031387  15.220  17.577  59.912
    1STR   H01131388  15.309  17.573  59.849
    1STR   C01231389  15.095  17.596  59.825
    1STR   H01331390  15.004  17.596  59.885
    1STR   H01431391  15.086  17.518  59.749
    1STR   H01531392  15.099  17.691  59.772
    1STR   C01631393  15.237  17.696  60.010
    1STR   H01731394  15.150  17.702  60.075
    1STR   H01831395  15.323  17.677  60.073
    1STR   O01931396  15.253  17.819  59.938
    1STR   C02031397  15.266  17.937  60.019
    1STR   H02131398  15.192  17.935  60.099
    1STR   C02231399  15.408  17.945  60.078
    1STR   H02331400  15.483  17.943  60.000
    1STR   H02431401  15.428  17.863  60.147
    1STR   H02531402  15.421  18.038  60.134
    1STR   C02631403  15.236  18.061  59.931
    1STR   H02731404  15.308  18.067  59.850
    1STR   H02831405  15.138  18.049  59.886
    1STR   O02931406  15.241  18.180  60.011
    1STR   C03031407  15.219  18.302  59.940
    1STR   H03131408  15.275  18.302  59.846
    1STR   C03231409  15.069  18.321  59.912
    1STR   H03331410  15.011  18.317  60.005
    1STR   H03431411  15.030  18.245  59.845
    1STR   H03531412  15.050  18.417  59.866
    1STR   C03631413  15.274  18.418  60.027
    1STR   H03731414  15.220  18.422  60.122
    1STR   H03831415  15.378  18.398  60.050
    1STR   O03931416  15.261  18.542  59.956
    1STR   C04031417  15.304  18.658  60.028
    1STR   H04131418  15.268  18.654  60.131
    1STR   C04231419  15.458  18.667  60.025
    1STR   H04331420  15.495  18.666  59.923
    1STR   H04431421  15.504  18.584  60.079
    1STR   H04531422  15.492  18.759  60.072
    1STR   C04631423  15.241  18.781  59.960
    1STR   H04731424  15.275  18.789  59.857
    1STR   H04831425  15.132  18.768  59.957
    1STR   O04931426  15.274  18.899  60.033
    1STR   C05031427  15.225  19.021  59.979
    1STR   H05131428  15.238  19.022  59.871
    1STR   C05231429  15.076  19.037  60.014
    1STR   H05331430  15.060  19.032  60.121
    1STR   H05431431  15.014  18.961  59.966
    1STR   H05531432  15.039  19.134  59.980
    1STR   C05631433  15.308  19.136  60.038
    1STR   H05731434  15.296  19.139  60.146
    1STR   H05831435  15.414  19.117  60.018
    1STR   O05931436  15.268  19.260  59.980
    1STR   C06031437  15.335  19.376  60.029
    1STR   H06131438  15.344  19.370  60.138
    1STR   C06231439  15.474  19.386  59.965
    1STR   H06331440  15.468  19.387  59.856
    1STR   H06431441  15.540  19.304  59.994
    1STR   H06531442  15.524  19.479  59.996
    1STR   C06631443  15.248  19.498  59.995
    1STR   H06731444  15.238  19.507  59.886
    1STR   H06831445  15.148  19.483  60.035
    1STR   O06931446  15.307  19.615  60.050
    1STR   C07031447  15.238  19.737  60.022
    1STR   H07131448  15.207  19.739  59.917
    1STR   C07231449  15.115  19.750  60.113
    1STR   H07331450  15.144  19.743   0.058
    1STR   H07431451  15.041  19.674  60.093
    1STR   H07531452  15.067  19.847  60.098
    1STR   C07631453  15.337  19.852  60.044
    1STR   H07731454  15.369  19.854  60.148
    1STR   H07831455  15.426  19.835  59.984
    1STR   O07931456  15.276  19.976  60.008
    1STR   C08031457  15.356  20.092  60.028
    1STR   H08131458  15.408  20.086  60.124
    1STR   C08231459  15.458  20.105  59.914
    1STR   H08331460  15.409  20.106  59.817
    1STR   H08431461  15.531  20.024  59.914
    1STR   H08531462  15.515  20.198  59.923
    1STR   C08631463  15.262  20.213  60.033
    1STR   H08731464  15.209  20.223  59.937
    1STR   H08831465  15.186  20.196  60.109
    1STR   O08931466  15.337  20.331  60.062
    1STR   C09031467  15.261  20.451  60.065
    1STR   H09131468  15.191  20.454  59.981
    1STR   C09231469  15.185  20.462   0.038
    1STR   H09331470  15.253  20.455   0.123
    1STR   H09431471  15.109  20.385   0.049
    1STR   H09531472  15.133  20.558   0.045
    1STR   C09631473  15.360  20.568  60.047
    1STR   H09731474  15.431  20.569  60.130
    1STR   H09831475  15.417  20.552  59.956
    1STR   O09931476  15.288  20.691  60.040
    1STR   C10031477  15.369  20.807  60.028
    1STR   H10131478  15.454  20.802  60.095
    1STR   C10231479  15.416  20.823  59.883
    1STR   H10331480  15.332  20.824  59.814
    1STR   H10431481  15.483  20.742  59.853
    1STR   H10531482  15.471  20.916  59.870
    1STR   C10631483  15.283  20.927  60.072
    1STR   H10731484  15.196  20.937  60.005
    1STR   H10831485  15.244  20.908   0.012
    1STR   O10931486  15.362  21.046  60.070
    1STR   C11031487  15.293  21.165  60.105
    1STR   H11131488  15.195  21.168  60.057
    1STR   C11231489  15.276  21.174   0.098
    1STR   H11331490  15.373  21.166   0.148
    1STR   H11431491  15.212  21.095   0.137
    1STR   H11531492  15.231  21.269   0.126
    1STR   C11631493  15.375  21.283  60.051
    1STR   H11731494  15.473  21.285  60.098
    1STR   H11831495  15.391  21.269  59.944
    1STR   O11931496  15.305  21.405  60.075
    1STR   C12031497  15.373  21.523  60.033
    1STR   H12131498  15.478  21.518  60.061
    1STR   C12231499  15.359  21.540  59.881
    1STR   H12331500  15.254  21.541  59.851
    1STR   H12431501  15.409  21.461  59.826
    1STR   H12531502  15.403  21.635  59.849
    1STR   C12631503  15.310  21.641  60.109
    1STR   H12731504  15.205  21.651  60.083
    1STR   H12831505  15.315  21.621   0.056
    1STR   O12931506  15.381  21.761  60.078
    1STR   C13031507  15.330  21.879  60.139
    1STR   H13131508  15.221  21.880  60.133
    1STR   C13231509  15.376  21.886   0.126
    1STR   H13331510  15.485  21.879   0.133
    1STR   H13431511  15.333  21.805   0.186
    1STR   H13531512  15.345  21.980   0.171
    1STR   C13631513  15.383  21.998  60.058
    1STR   H13731514  15.492  22.001  60.063
    1STR   H13831515  15.356  21.985  59.953
    1STR   O13931516  15.328  22.119  60.110
    1STR   C14031517  15.372  22.238  60.046
    1STR   H14131518  15.480  22.234  60.029
    1STR   C14231519  15.298  22.257  59.912
    1STR   H14331520  15.190  22.256  59.927
    1STR   H14431521  15.322  22.179  59.840
    1STR   H14531522  15.324  22.352  59.866
    1STR   C14631523  15.344  22.355  60.142
    1STR   H14731524  15.237  22.363   0.000
    1STR   H14831525  15.391  22.334   0.078
    1STR   O14931526  15.395  22.476  60.086
    1STR   C15031527  15.372  22.593   0.004
    1STR   H15131528  15.270  22.593   0.043
    1STR   C15231529  15.473  22.599   0.120
    1STR   H15331530  15.575  22.594   0.084
    1STR   H15431531  15.458  22.518   0.192
    1STR   H15531532  15.462  22.692   0.176
    1STR   C15631533  15.387  22.714  60.070
    1STR   H15731534  15.489  22.718  60.031
    1STR   H15831535  15.320  22.701  59.985
    1STR   O15931536  15.356  22.833  60.142
    1STR   C16031537  15.370  22.953  60.067
    1STR   H16131538  15.462  22.951  60.008
    1STR   C16231539  15.249  22.972  59.974
    1STR   H16331540  15.155  22.970  60.031
    1STR   H16431541  15.243  22.895  59.898
    1STR   H16531542  15.254  23.068  59.923
    1STR   C16631543  15.381  23.069   0.008
    1STR   H16731544  15.290  23.075   0.068
    1STR   H16831545  15.463  23.047   0.077
    1STR   O16931546  15.405  23.191  60.098
    1STR   C17031547  15.414  23.307   0.020
    1STR   H17131548  15.336  23.305   0.097
    1STR   C17231549  15.552  23.313   0.087
    1STR   H17331550  15.632  23.310   0.012
    1STR   H17431551  15.569  23.231   0.157
    1STR   H17531552  15.564  23.406   0.143
    1STR   C17631553  15.389  23.429  60.090
    1STR   H17731554  15.467  23.434  60.013
    1STR   H17831555  15.294  23.416  60.039
    1STR   O17931556  15.388  23.547   0.010
    1STR   C18031557  15.369  23.668  60.097
    1STR   H18131558  15.430  23.668  60.007
    1STR   C18231559  15.221  23.686  60.061
    1STR   H18331560  15.158  23.682  60.150
    1STR   H18431561  15.186  23.609  59.992
    1STR   H18531562  15.204  23.782  60.013
    1STR   C18631563  15.419  23.783   0.027
    1STR   H18731564  15.359  23.787   0.118
    1STR   H18831565  15.522  23.762   0.057
    1STR   O18931566  15.412  23.906  60.115
    1STR   C19031567  15.452  24.021   0.029
    1STR   H19131568  15.410  24.018   0.130
    1STR   C19231569  15.605  24.029   0.034
    1STR   H19331570  15.648  24.028  60.094
    1STR   H19431571  15.649  23.947   0.091
    1STR   H19531572  15.637  24.121   0.083
    1STR   C19631573  15.392  24.143  60.117
    1STR   H19731574  15.432  24.151  60.016
    1STR   H19831575  15.284  24.130  60.108
    1STR   O19931576  15.421  24.261   0.032
    1STR   C20031577  15.374  24.383  60.135
    1STR   H20131578  15.394  24.384  60.027
    1STR   C20231579  15.224  24.398   0.002
    1STR   H20331580  15.202  24.393   0.108
    1STR   H20431581  15.165  24.322  60.111
    1STR   H20531582  15.188  24.495  60.126
    1STR   C20631583  15.455  24.497   0.039
    1STR   H20731584  15.436  24.500   0.146
    1STR   H20831585  15.561  24.478   0.024
    1STR   O20931586  15.418  24.621  60.138
    1STR   C21031587  15.483  24.736   0.030
    1STR   H21131588  15.485  24.731   0.139
    1STR   C21231589  15.626  24.746  60.134
    1STR   H21331590  15.625  24.746  60.025
    1STR   H21431591  15.689  24.664   0.008
    1STR   H21531592  15.673  24.838   0.007
    1STR   C21631593  15.398  24.859  60.151
    1STR   H21731594  15.395  24.868  60.042
    1STR   H21831595  15.296  24.844   0.025
    1STR   O21931596  15.454  24.976   0.049
    1STR   C22031597  15.387  25.098   0.017
    1STR   H22131598  15.362  25.100  60.071
    1STR   C22231599  15.259  25.111   0.102
    1STR   H22331600  15.282  25.103   0.208
    1STR   H22431601  15.186  25.034   0.078
    1STR   H22531602  15.212  25.207   0.085
    1STR   C22631603  15.485  25.213   0.045
    1STR   H22731604  15.511  25.215   0.151
    1STR   H22831605  15.577  25.195  60.149
    1STR   O22931606  15.426  25.337   0.006
    1STR   C23031607  15.505  25.453   0.030
    1STR   H23131608  15.551  25.447   0.128
    1STR   C23231609  15.614  25.465  60.081
    1STR   H23331610  15.569  25.465  59.982
    1STR   H23431611  15.685  25.383  60.086
    1STR   H23531612  15.670  25.557  60.093
    1STR   C23631613  15.411  25.575   0.029
    1STR   H23731614  15.364  25.584  60.091
    1STR   H23831615  15.332  25.558   0.101
    1STR   O23931616  15.485  25.693   0.061
    1STR   C24031617  15.409  25.814   0.061
    1STR   H24131618  15.343  25.817  60.133
    1STR   C24231619  15.326  25.823   0.190
    1STR   H24331620  15.389  25.815   0.278
    1STR   H24431621  15.250  25.746   0.196
    1STR   H24531622  15.274  25.919   0.195
    1STR   C24631623  15.508  25.931   0.049
    1STR   H24731624  15.575  25.932   0.135
    1STR   H24831625  15.570  25.915  60.121
    1STR   O24931626  15.437  26.055   0.039
    1STR   C25031627  15.519  26.172   0.030
    1STR   H25131628  15.601  26.166   0.102
    1STR   C25231629  15.574  26.185  60.047
    1STR   H25331630  15.494  26.185  59.973
    1STR   H25431631  15.643  26.104  60.022
    1STR   H25531632  15.630  26.278  60.036
    1STR   C25631633  15.431  26.293   0.067
    1STR   H25731634  15.349  26.303  60.157
    1STR   H25831635  15.388  26.275   0.166
    1STR   O25931636  15.510  26.413   0.068
    1STR   C26031637  15.440  26.533   0.101
    1STR   H26131638  15.345  26.536   0.047
    1STR   C26231639  15.415  26.539   0.252
    1STR   H26331640  15.508  26.530   0.308
    1STR   H26431641  15.348  26.460   0.286
    1STR   H26531642  15.369  26.634   0.280
    1STR   C26631643  15.525  26.653   0.053
    1STR   H26731644  15.621  26.653   0.105
    1STR   H26831645  15.546  26.640  60.107
    1STR   O26931646  15.456  26.777   0.076
    1STR   C27031647  15.525  26.896   0.035
    1STR   H27131648  15.629  26.890   0.068
    1STR   C27231649  15.519  26.909  60.042
    1STR   H27331650  15.416  26.907  60.007
    1STR   H27431651  15.573  26.830  59.991
    1STR   H27531652  15.563  27.003  60.010
    1STR   C27631653  15.459  27.017   0.105
    1STR   H27731654  15.355  27.025   0.074
    1STR   H27831655  15.459  26.999   0.212
    1STR   O27931656  15.529  27.139   0.075
    1STR   C28031657  15.477  27.259   0.136
    1STR   H28131658  15.369  27.261   0.125
    1STR   C28231659  15.515  27.261   0.285
    1STR   H28331660  15.623  27.251   0.298
    1STR   H28431661  15.467  27.181   0.341
    1STR   H28531662  15.485  27.355   0.331
    1STR   C28631663  15.534  27.383   0.062
    1STR   H28731664  15.643  27.384   0.070
    1STR   H28831665  15.511  27.372  60.116
    1STR   O28931666  15.480  27.506   0.113
    1STR   C29031667  15.523  27.627   0.050
    1STR   H29131668  15.632  27.625   0.039
    1STR   C29231669  15.458  27.639  60.071
    1STR   H29331670  15.349  27.633  60.079
    1STR   H29431671  15.491  27.561  60.003
    1STR   H29531672  15.482  27.735  60.025
    1STR   C29631673  15.487  27.750   0.139
    1STR   H29731674  15.379  27.752   0.154
    1STR   H29831675  15.532  27.735   0.237
    1STR   O29931676  15.530  27.875   0.081
    1STR   C30031677  15.499  27.995   0.156
    1STR   H30131678  15.396  27.989   0.192
    1STR   C30231679  15.596  28.006   0.275
    1STR   H30331680  15.700  28.000   0.242
    1STR   H30431681  15.581  27.926   0.347
    1STR   H30531682  15.583  28.100   0.328
    1STR   C30631683  15.509  28.120   0.063
    1STR   H30731684  15.614  28.137   0.036
    1STR   H30831685  15.459  28.093  60.130
    1STR   O30931686  15.451  28.241   0.117
    1STR    H1R31687  15.548  28.373  60.151
    1STR    H1S31688  15.337  28.420  60.013
    1STR    H1T31689  15.251  28.303  60.112
    1STR    H1U31690  15.383  28.252  60.007
    1STR    H1V31691  15.467  28.505   0.190
    1STR    H1W31692  15.302  28.478   0.142
    1STR    H1X31693  15.462  28.774  60.060
    1STR    H1Y31694  15.537  28.982  60.010
    1STR    H1Z31695  15.491  29.206  59.931
    1STR    H2031696  15.221  29.341  59.816
    1STR    H2131697  15.203  29.399  59.984
    1STR    H2231698  15.361  29.391  59.909
    1STR    H2331699  14.981  29.105  60.083
    1STR    H2731700  15.120  28.923  60.095
    1STR    H2831701  15.396  16.387  59.914
    1STR    H2931702  15.454  16.153  59.915
    1STR    H2A31703  15.256  15.885  60.059
    1STR    H2B31704  15.415  15.940  60.014
    1STR    H2C31705  15.304  15.886  59.888
    1STR   BCK131706  14.898  15.888  14.959
    1STR    O0331707  14.862  15.847  15.069
    1STR    N0431708  14.897  16.018  14.924
    1STR    C0531709  14.814  16.121  14.974
    1STR    C0631710  14.862  16.254  14.998
    1STR    C0731711  14.775  16.361  15.036
    1STR    N0831712  14.819  16.495  15.054
    1STR    C0931713  14.746  16.609  15.050
    1STR    O0A31714  14.626  16.612  15.023
    1STR    O0B31715  14.818  16.722  15.079
    1STR    C0C31716  14.748  16.849  15.097
    1STR    C0D31717  14.706  16.861  15.244
    1STR    C0E31718  14.831  16.972  15.052
    1STR    O0F31719  14.753  17.092  15.069
    1STR    C0G31720  14.812  17.215  15.025
    1STR    C0H31721  14.803  17.225  14.872
    1STR    C0I31722  14.739  17.336  15.091
    1STR    O0J31723  14.802  17.459  15.053
    1STR    C0K31724  14.741  28.334  14.680
    1STR    C0M31725  14.750  28.340  14.834
    1STR    C0N31726  14.810  28.458  14.618
    1STR    O0O31727  14.726  28.573  14.636
    1STR    C0P31728  14.775  28.692  14.676
    1STR    O0Q31729  14.893  28.717  14.700
    1STR    N0R31730  14.674  28.778  14.693
    1STR    C0S31731  14.672  28.904  14.754
    1STR    C0T31732  14.570  28.927  14.848
    1STR    C0U31733  14.567  29.046  14.922
    1STR    C0V31734  14.662  29.147  14.900
    1STR    C0W31735  14.667  29.261  15.001
    1STR    C0X31736  14.755  29.134  14.793
    1STR    N0Y31737  14.841  29.237  14.754
    1STR   BCK231738  14.819  29.365  14.718
    1STR    O1031739  14.910  29.428  14.665
    1STR    C1331740  14.764  29.009  14.726
    1STR    C1431741  14.639  16.327  15.057
    1STR    C1531742  14.590  16.199  15.031
    1STR    C1631743  14.675  16.097  14.986
    1STR    C1731744  14.610  15.966  14.945
    1STR    H1B31745  14.951  16.039  14.842
    1STR    H1C31746  14.967  16.274  14.985
    1STR    H1D31747  14.917  16.512  15.070
    1STR    H1E31748  14.658  16.850  15.036
    1STR    H1F31749  14.792  16.864  15.311
    1STR    H1G31750  14.649  16.953  15.260
    1STR    H1H31751  14.643  16.778  15.274
    1STR    H1I31752  14.859  16.960  14.948
    1STR    H1J31753  14.923  16.979  15.110
    1STR    H1K31754  14.916  17.219  15.057
    1STR    H1M31755  14.699  17.218  14.838
    1STR    H1N31756  14.860  17.147  14.822
    1STR    H1O31757  14.842  17.320  14.837
    1STR    H1P31758  14.634  17.336  15.061
    1STR    H1Q31759  14.741  17.324  15.199
    1STR   C01031760  14.741  17.579  15.102
    1STR   H01131761  14.633  17.575  15.088
    1STR   C01231762  14.773  17.599  15.251
    1STR   H01331763  14.881  17.599  15.268
    1STR   H01431764  14.729  17.521  15.313
    1STR   H01531765  14.734  17.694  15.287
    1STR   C01631766  14.794  17.698  15.018
    1STR   H01731767  14.902  17.705  15.029
    1STR   H01831768  14.774  17.679  14.913
    1STR   O01931769  14.733  17.821  15.059
    1STR   C02031770  14.778  17.939  14.991
    1STR   H02131771  14.887  17.937  14.982
    1STR   C02231772  14.714  17.947  14.852
    1STR   H02331773  14.605  17.944  14.859
    1STR   H02431774  14.745  17.865  14.787
    1STR   H02531775  14.741  18.040  14.802
    1STR   C02631776  14.741  18.062  15.076
    1STR   H02731777  14.632  18.068  15.087
    1STR   H02831778  14.782  18.051  15.176
    1STR   O02931779  14.791  18.181  15.015
    1STR   C03031780  14.760  18.304  15.081
    1STR   H03131781  14.655  18.303  15.113
    1STR   C03231782  14.851  18.322  15.203
    1STR   H03331783  14.956  18.318  15.174
    1STR   H03431784  14.835  18.246  15.279
    1STR   H03531785  14.834  18.419  15.251
    1STR   C03631786  14.778  18.419  14.981
    1STR   H03731787  14.882  18.423  14.947
    1STR   H03831788  14.717  18.399  14.892
    1STR   O03931789  14.740  18.543  15.041
    1STR   C04031790  14.756  18.659  14.959
    1STR   H04131791  14.852  18.655  14.907
    1STR   C04231792  14.641  18.667  14.857
    1STR   H04331793  14.544  18.667  14.907
    1STR   H04431794  14.643  18.585  14.786
    1STR   H04531795  14.648  18.760  14.800
    1STR   C04631796  14.757  18.782  15.052
    1STR   H04731797  14.662  18.790  15.105
    1STR   H04831798  14.835  18.769  15.127
    1STR   O04931799  14.782  18.900  14.975
    1STR   C05031800  14.782  19.022  15.049
    1STR   H05131801  14.698  19.023  15.120
    1STR   C05231802  14.915  19.038  15.124
    1STR   H05331803  15.000  19.032  15.056
    1STR   H05431804  14.928  18.962  15.201
    1STR   H05531805  14.919  19.134  15.174
    1STR   C05631806  14.760  19.137  14.949
    1STR   H05731807  14.842  19.140  14.877
    1STR   H05831808  14.669  19.118  14.892
    1STR   O05931809  14.750  19.260  15.019
    1STR   C06031810  14.734  19.376  14.937
    1STR   H06131811  14.801  19.371  14.851
    1STR   C06231812  14.588  19.386  14.890
    1STR   H06331813  14.519  19.387  14.975
    1STR   H06431814  14.560  19.304  14.824
    1STR   H06531815  14.572  19.479  14.834
    1STR   C06631816  14.775  19.498  15.021
    1STR   H06731817  14.709  19.507  15.108
    1STR   H06831818  14.876  19.483  15.060
    1STR   O06931819  14.769  19.616  14.941
    1STR   C07031820  14.800  19.737  15.008
    1STR   H07131821  14.752  19.740  15.106
    1STR   C07231822  14.953  19.750  15.024
    1STR   H07331823  15.003  19.744  14.927
    1STR   H07431824  14.994  19.674  15.089
    1STR   H07531825  14.979  19.847  15.067
    1STR   C07631826  14.742  19.853  14.925
    1STR   H07731827  14.789  19.854  14.826
    1STR   H07831828  14.636  19.835  14.909
    1STR   O07931829  14.763  19.976  14.993
    1STR   C08031830  14.718  20.092  14.924
    1STR   H08131831  14.745  20.086  14.818
    1STR   C08231832  14.565  20.105  14.939
    1STR   H08331833  14.536  20.106  15.044
    1STR   H08431834  14.512  20.024  14.890
    1STR   H08531835  14.530  20.198  14.894
    1STR   C08631836  14.791  20.213  14.984
    1STR   H08731837  14.765  20.223  15.090
    1STR   H08831838  14.898  20.196  14.979
    1STR   O08931839  14.755  20.331  14.912
    1STR   C09031840  14.813  20.451  14.961
    1STR   H09131841  14.808  20.454  15.070
    1STR   C09231842  14.959  20.462  14.914
    1STR   H09331843  14.966  20.455  14.806
    1STR   H09431844  15.022  20.385  14.957
    1STR   H09531845  15.002  20.558  14.943
    1STR   C09631846  14.728  20.568  14.907
    1STR   H09731847  14.732  20.569  14.798
    1STR   H09831848  14.624  20.552  14.935
    1STR   O09931849  14.777  20.691  14.961
    1STR   C10031850  14.709  20.807  14.915
    1STR   H10131851  14.691  20.802  14.808
    1STR   C10231852  14.575  20.823  14.990
    1STR   H10331853  14.591  20.824  15.098
    1STR   H10431854  14.506  20.742  14.967
    1STR   H10531855  14.526  20.916  14.962
    1STR   C10631856  14.802  20.927  14.941
    1STR   H10731857  14.820  20.937  15.048
    1STR   H10831858  14.898  20.908  14.893
    1STR   O10931859  14.742  21.046  14.889
    1STR   C11031860  14.817  21.165  14.910
    1STR   H11131861  14.856  21.168  15.012
    1STR   C11231862  14.932  21.174  14.809
    1STR   H11331863  14.895  21.167  14.706
    1STR   H11431864  15.006  21.095  14.823
    1STR   H11531865  14.985  21.269  14.818
    1STR   C11631866  14.719  21.283  14.894
    1STR   H11731867  14.679  21.285  14.793
    1STR   H11831868  14.635  21.269  14.962
    1STR   O11931869  14.787  21.405  14.924
    1STR   C12031870  14.709  21.523  14.909
    1STR   H12131871  14.650  21.518  14.817
    1STR   C12231872  14.617  21.540  15.031
    1STR   H12331873  14.674  21.541  15.123
    1STR   H12431874  14.542  21.461  15.037
    1STR   H12531875  14.562  21.635  15.025
    1STR   C12631876  14.806  21.641  14.895
    1STR   H12731877  14.866  21.651  14.986
    1STR   H12831878  14.875  21.621  14.813
    1STR   O12931879  14.733  21.761  14.870
    1STR   C13031880  14.812  21.879  14.860
    1STR   H13131881  14.888  21.880  14.937
    1STR   C13231882  14.877  21.886  14.721
    1STR   H13331883  14.802  21.879  14.642
    1STR   H13431884  14.949  21.806  14.705
    1STR   H13531885  14.931  21.980  14.708
    1STR   C13631886  14.718  21.998  14.883
    1STR   H13731887  14.641  22.001  14.806
    1STR   H13831888  14.667  21.985  14.979
    1STR   O13931889  14.794  22.119  14.883
    1STR   C14031890  14.718  22.238  14.900
    1STR   H14131891  14.627  22.234  14.840
    1STR   C14231892  14.682  22.257  15.048
    1STR   H14331893  14.772  22.256  15.111
    1STR   H14431894  14.615  22.179  15.085
    1STR   H14531895  14.631  22.352  15.064
    1STR   C14631896  14.804  22.355  14.848
    1STR   H14731897  14.895  22.363  14.907
    1STR   H14831898  14.834  22.334  14.745
    1STR   O14931899  14.728  22.476  14.854
    1STR   C15031900  14.798  22.593  14.813
    1STR   H15131901  14.899  22.593  14.853
    1STR   C15231902  14.802  22.599  14.659
    1STR   H15331903  14.702  22.594  14.617
    1STR   H15431904  14.861  22.518  14.616
    1STR   H15531905  14.848  22.692  14.626
    1STR   C15631906  14.723  22.714  14.871
    1STR   H15731907  14.622  22.718  14.832
    1STR   H15831908  14.715  22.701  14.979
    1STR   O15931909  14.795  22.833  14.840
    1STR   C16031910  14.734  22.953  14.886
    1STR   H16131911  14.626  22.951  14.867
    1STR   C16231912  14.761  22.972  15.036
    1STR   H16331913  14.868  22.970  15.057
    1STR   H16431914  14.713  22.895  15.096
    1STR   H16531915  14.722  23.068  15.071
    1STR   C16631916  14.794  23.069  14.804
    1STR   H16731917  14.901  23.075  14.821
    1STR   H16831918  14.780  23.047  14.698
    1STR   O16931919  14.729  23.191  14.839
    1STR   C17031920  14.778  23.307  14.772
    1STR   H17131921  14.887  23.305  14.769
    1STR   C17231922  14.721  23.313  14.630
    1STR   H17331923  14.612  23.310  14.631
    1STR   H17431924  14.756  23.231  14.568
    1STR   H17531925  14.751  23.406  14.581
    1STR   C17631926  14.735  23.428  14.856
    1STR   H17731927  14.626  23.434  14.860
    1STR   H17831928  14.771  23.416  14.958
    1STR   O17931929  14.790  23.547  14.798
    1STR   C18031930  14.755  23.668  14.864
    1STR   H18131931  14.649  23.667  14.890
    1STR   C18231932  14.840  23.686  14.991
    1STR   H18331933  14.946  23.682  14.968
    1STR   H18431934  14.818  23.609  15.066
    1STR   H18531935  14.819  23.782  15.038
    1STR   C18631936  14.779  23.783  14.764
    1STR   H18731937  14.884  23.787  14.738
    1STR   H18831938  14.723  23.762  14.673
    1STR   O18931939  14.735  23.906  14.822
    1STR   C19031940  14.756  24.021  14.741
    1STR   H19131941  14.855  24.017  14.694
    1STR   C19231942  14.647  24.029  14.633
    1STR   H19331943  14.547  24.028  14.678
    1STR   H19431944  14.653  23.947  14.562
    1STR   H19531945  14.656  24.121  14.576
    1STR   C19631946  14.752  24.143  14.834
    1STR   H19731947  14.654  24.151  14.881
    1STR   H19831948  14.825  24.130  14.914
    1STR   O19931949  14.781  24.261  14.759
    1STR   C20031950  14.777  24.382  14.833
    1STR   H20131951  14.690  24.384  14.899
    1STR   C20231952  14.906  24.398  14.915
    1STR   H20331953  14.994  24.393  14.851
    1STR   H20431954  14.915  24.322  14.992
    1STR   H20531955  14.908  24.495  14.965
    1STR   C20631956  14.760  24.497  14.732
    1STR   H20731957  14.846  24.500  14.665
    1STR   H20831958  14.673  24.477  14.670
    1STR   O20931959  14.746  24.620  14.801
    1STR   C21031960  14.734  24.736  14.719
    1STR   H21131961  14.806  24.731  14.636
    1STR   C21231962  14.591  24.746  14.663
    1STR   H21331963  14.518  24.746  14.744
    1STR   H21431964  14.567  24.663  14.596
    1STR   H21531965  14.578  24.838  14.607
    1STR   C21631966  14.770  24.858  14.805
    1STR   H21731967  14.699  24.867  14.887
    1STR   H21831968  14.868  24.843  14.849
    1STR   O21931969  14.768  24.975  14.724
    1STR   C22031970  14.796  25.097  14.793
    1STR   H22131971  14.743  25.099  14.888
    1STR   C22231972  14.947  25.110  14.817
    1STR   H22331973  15.002  25.103  14.723
    1STR   H22431974  14.985  25.033  14.884
    1STR   H22531975  14.971  25.206  14.862
    1STR   C22631976  14.742  25.212  14.706
    1STR   H22731977  14.794  25.214  14.610
    1STR   H22831978  14.637  25.194  14.685
    1STR   O22931979  14.759  25.335  14.775
    1STR   C23031980  14.717  25.451  14.704
    1STR   H23131981  14.750  25.445  14.600
    1STR   C23231982  14.564  25.463  14.710
    1STR   H23331983  14.529  25.465  14.814
    1STR   H23431984  14.514  25.382  14.659
    1STR   H23531985  14.531  25.556  14.663
    1STR   C23631986  14.786  25.573  14.768
    1STR   H23731987  14.754  25.583  14.872
    1STR   H23831988  14.894  25.556  14.769
    1STR   O23931989  14.754  25.690  14.694
    1STR   C24031990  14.809  25.811  14.746
    1STR   H24131991  14.799  25.814  14.855
    1STR   C24231992  14.957  25.822  14.707
    1STR   H24331993  14.970  25.814  14.599
    1STR   H24431994  15.018  25.744  14.753
    1STR   H24531995  14.999  25.918  14.738
    1STR   C24631996  14.727  25.928  14.688
    1STR   H24731997  14.737  25.929  14.579
    1STR   H24831998  14.622  25.912  14.711
    1STR   O24931999  14.773  26.051  14.744
    1STR   C25032000  14.707  26.168  14.695
    1STR   H25132001  14.695  26.162  14.586
    1STR   C25232002  14.570  26.182  14.762
    1STR   H25332003  14.579  26.183  14.871
    1STR   H25432004  14.502  26.102  14.735
    1STR   H25532005  14.522  26.275  14.732
    1STR   C25632006  14.798  26.288  14.726
    1STR   H25732007  14.811  26.298  14.834
    1STR   H25832008  14.896  26.270  14.684
    1STR   O25932009  14.741  26.407  14.671
    1STR   C26032010  14.814  26.527  14.696
    1STR   H26132011  14.848  26.530  14.799
    1STR   C26232012  14.935  26.535  14.601
    1STR   H26332013  14.903  26.527  14.497
    1STR   H26432014  15.007  26.456  14.620
    1STR   H26532015  14.987  26.630  14.612
    1STR   C26632016  14.718  26.646  14.674
    1STR   H26732017  14.683  26.647  14.571
    1STR   H26832018  14.630  26.632  14.737
    1STR   O26932019  14.784  26.768  14.706
    1STR   C27032020  14.706  26.886  14.688
    1STR   H27132021  14.652  26.881  14.593
    1STR   C27232022  14.607  26.902  14.804
    1STR   H27332023  14.659  26.902  14.900
    1STR   H27432024  14.533  26.822  14.806
    1STR   H27532025  14.553  26.996  14.796
    1STR   C27632026  14.803  27.006  14.680
    1STR   H27732027  14.858  27.015  14.773
    1STR   H27832028  14.876  26.987  14.601
    1STR   O27932029  14.730  27.127  14.653
    1STR   C28032030  14.809  27.246  14.645
    1STR   H28132031  14.882  27.248  14.726
    1STR   C28232032  14.882  27.250  14.509
    1STR   H28332033  14.812  27.242  14.427
    1STR   H28432034  14.956  27.171  14.499
    1STR   H28532035  14.936  27.345  14.498
    1STR   C28632036  14.716  27.367  14.662
    1STR   H28732037  14.642  27.368  14.582
    1STR   H28832038  14.661  27.355  14.755
    1STR   O28932039  14.791  27.489  14.663
    1STR   C29032040  14.715  27.609  14.678
    1STR   H29132041  14.627  27.605  14.613
    1STR   C29232042  14.671  27.625  14.824
    1STR   H29332043  14.757  27.622  14.892
    1STR   H29432044  14.601  27.547  14.855
    1STR   H29532045  14.620  27.720  14.839
    1STR   C29632046  14.803  27.728  14.633
    1STR   H29732047  14.892  27.733  14.695
    1STR   H29832048  14.837  27.709  14.531
    1STR   O29932049  14.730  27.851  14.639
    1STR   C30032050  14.802  27.969  14.600
    1STR   H30132051  14.902  27.967  14.644
    1STR   C30232052  14.812  27.974  14.447
    1STR   H30332053  14.714  27.967  14.400
    1STR   H30432054  14.873  27.893  14.407
    1STR   H30532055  14.858  28.067  14.414
    1STR   C30632056  14.728  28.093  14.655
    1STR   H30732057  14.629  28.100  14.610
    1STR   H30832058  14.713  28.077  14.762
    1STR   O30932059  14.802  28.214  14.633
    1STR    H1R32060  14.636  28.335  14.649
    1STR    H1S32061  14.713  28.436  14.871
    1STR    H1T32062  14.853  28.329  14.867
    1STR    H1U32063  14.691  28.263  14.882
    1STR    H1V32064  14.824  28.444  14.511
    1STR    H1W32065  14.909  28.473  14.661
    1STR    H1X32066  14.586  28.736  14.669
    1STR    H1Y32067  14.496  28.851  14.868
    1STR    H1Z32068  14.492  29.058  14.999
    1STR    H2032069  14.681  29.221  15.101
    1STR    H2132070  14.749  29.330  14.983
    1STR    H2232071  14.573  29.317  15.000
    1STR    H2332072  14.937  29.210  14.735
    1STR    H2732073  14.840  28.993  14.651
    1STR    H2832074  14.567  16.400  15.092
    1STR    H2932075  14.484  16.180  15.043
    1STR    H2A32076  14.657  15.926  14.855
    1STR    H2B32077  14.504  15.980  14.922
    1STR    H2C32078  14.618  15.892  15.025
    1STR   BCK132079  15.039  15.901  30.035
    1STR    O0332080  15.137  15.831  30.055
    1STR    N0432081  15.025  16.029  30.076
    1STR    C0532082  15.109  16.115  30.153
    1STR    C0632083  15.112  16.256  30.125
    1STR    C0732084  15.191  16.350  30.200
    1STR    N0832085  15.186  16.490  30.174
    1STR    C0932086  15.254  16.593  30.231
    1STR    O0A32087  15.340  16.580  30.318
    1STR    O0B32088  15.218  16.716  30.182
    1STR    C0C32089  15.286  16.836  30.228
    1STR    C0D32090  15.420  16.850  30.154
    1STR    C0E32091  15.200  16.965  30.211
    1STR    O0F32092  15.271  17.083  30.254
    1STR    C0G32093  15.200  17.208  30.247
    1STR    C0H32094  15.103  17.218  30.366
    1STR    C0I32095  15.298  17.328  30.248
    1STR    O0J32096  15.226  17.452  30.233
    1STR    C0K32097  15.003  28.354  30.501
    1STR    C0M32098  15.115  28.346  30.396
    1STR    C0N32099  14.904  28.468  30.463
    1STR    O0O32100  14.967  28.597  30.464
    1STR    C0P32101  14.934  28.695  30.375
    1STR    O0Q32102  14.856  28.684  30.281
    1STR    N0R32103  15.001  28.807  30.407
    1STR    C0S32104  15.016  28.935  30.350
    1STR    C0T32105  15.112  29.016  30.415
    1STR    C0U32106  15.145  29.143  30.366
    1STR    C0V32107  15.082  29.195  30.252
    1STR    C0W32108  15.135  29.326  30.196
    1STR    C0X32109  14.977  29.122  30.188
    1STR    N0Y32110  14.915  29.175  30.073
    1STR   BCK232111  14.862  29.298  30.054
    1STR    O1032112  14.839  29.378  30.143
    1STR    C1332113  14.948  28.990  30.237
    1STR    C1432114  15.272  16.296  30.303
    1STR    C1532115  15.269  16.160  30.334
    1STR    C1632116  15.186  16.070  30.264
    1STR    C1732117  15.181  15.928  30.319
    1STR    H1B32118  14.940  16.071  30.043
    1STR    H1C32119  15.051  16.293  30.045
    1STR    H1D32120  15.123  16.522  30.103
    1STR    H1E32121  15.306  16.826  30.335
    1STR    H1F32122  15.405  16.862  30.047
    1STR    H1G32123  15.474  16.938  30.190
    1STR    H1H32124  15.484  16.764  30.171
    1STR    H1I32125  15.108  16.953  30.269
    1STR    H1J32126  15.170  16.976  30.107
    1STR    H1K32127  15.144  17.212  30.153
    1STR    H1M32128  15.156  17.212  30.460
    1STR    H1N32129  15.027  17.141  30.364
    1STR    H1O32130  15.051  17.314  30.364
    1STR    H1P32131  15.355  17.329  30.341
    1STR    H1Q32132  15.370  17.317  30.166
    1STR   C01032133  15.303  17.573  30.238
    1STR   H01132134  15.374  17.569  30.321
    1STR   C01232135  15.379  17.592  30.106
    1STR   H01332136  15.311  17.593  30.021
    1STR   H01432137  15.454  17.515  30.090
    1STR   H01532138  15.432  17.688  30.106
    1STR   C01632139  15.208  17.693  30.264
    1STR   H01732140  15.134  17.699  30.183
    1STR   H01832141  15.152  17.675  30.356
    1STR   O01932142  15.280  17.816  30.273
    1STR   C02032143  15.201  17.934  30.292
    1STR   H02132144  15.114  17.932  30.226
    1STR   C02232145  15.154  17.943  30.439
    1STR   H02332146  15.239  17.941  30.507
    1STR   H02432147  15.087  17.861  30.465
    1STR   H02532148  15.099  18.036  30.456
    1STR   C02632149  15.285  18.059  30.255
    1STR   H02732150  15.373  18.065  30.320
    1STR   H02832151  15.321  18.047  30.153
    1STR   O02932152  15.206  18.178  30.267
    1STR   C03032153  15.274  18.301  30.239
    1STR   H03132154  15.373  18.300  30.287
    1STR   C03232155  15.289  18.319  30.087
    1STR   H03332156  15.192  18.316  30.038
    1STR   H03432157  15.353  18.243  30.043
    1STR   H03532158  15.334  18.416  30.065
    1STR   C03632159  15.193  18.417  30.301
    1STR   H03732160  15.094  18.421  30.256
    1STR   H03832161  15.179  18.397  30.407
    1STR   O03932162  15.262  18.540  30.282
    1STR   C04032163  15.195  18.657  30.331
    1STR   H04132164  15.089  18.653  30.305
    1STR   C04232165  15.211  18.666  30.484
    1STR   H04332166  15.316  18.665  30.513
    1STR   H04432167  15.161  18.584  30.535
    1STR   H04532168  15.167  18.758  30.522
    1STR   C04632169  15.256  18.780  30.262
    1STR   H04732170  15.362  18.788  30.287
    1STR   H04832171  15.250  18.767  30.154
    1STR   O04932172  15.187  18.898  30.302
    1STR   C05032173  15.236  19.020  30.248
    1STR   H05132174  15.346  19.022  30.252
    1STR   C05232175  15.189  19.036  30.103
    1STR   H05332176  15.080  19.031  30.096
    1STR   H05432177  15.231  18.960  30.037
    1STR   H05532178  15.220  19.133  30.063
    1STR   C05632179  15.185  19.136  30.336
    1STR   H05732180  15.076  19.139  30.334
    1STR   H05832181  15.214  19.117  30.440
    1STR   O05932182  15.240  19.259  30.291
    1STR   C06032183  15.196  19.375  30.362
    1STR   H06132184  15.089  19.370  30.381
    1STR   C06232185  15.272  19.386  30.495
    1STR   H06332186  15.380  19.387  30.479
    1STR   H06432187  15.249  19.304  30.563
    1STR   H06532188  15.246  19.478  30.547
    1STR   C06632189  15.223  19.498  30.273
    1STR   H06732190  15.330  19.507  30.253
    1STR   H06832191  15.174  19.483  30.176
    1STR   O06932192  15.173  19.615  30.336
    1STR   C07032193  15.195  19.737  30.265
    1STR   H07132194  15.297  19.739  30.225
    1STR   C07232195  15.093  19.750  30.151
    1STR   H07332196  14.991  19.743  30.188
    1STR   H07432197  15.107  19.673  30.075
    1STR   H07532198  15.104  19.847  30.101
    1STR   C07632199  15.182  19.852  30.366
    1STR   H07732200  15.081  19.854  30.407
    1STR   H07832201  15.250  19.835  30.449
    1STR   O07932202  15.212  19.976  30.302
    1STR   C08032203  15.199  20.092  30.384
    1STR   H08132204  15.108  20.086  30.443
    1STR   C08232205  15.322  20.105  30.475
    1STR   H08332206  15.414  20.106  30.418
    1STR   H08432207  15.328  20.023  30.547
    1STR   H08532208  15.317  20.198  30.532
    1STR   C08632209  15.186  20.213  30.290
    1STR   H08732210  15.276  20.223  30.229
    1STR   H08832211  15.103  20.196  30.221
    1STR   O08932212  15.164  20.331  30.367
    1STR   C09032213  15.154  20.451  30.292
    1STR   H09132214  15.231  20.454  30.215
    1STR   C09232215  15.015  20.462  30.228
    1STR   H09332216  14.936  20.455  30.303
    1STR   H09432217  14.997  20.384  30.154
    1STR   H09532218  15.003  20.558  30.177
    1STR   C09632219  15.180  20.568  30.389
    1STR   H09732220  15.104  20.569  30.467
    1STR   H09832221  15.276  20.552  30.438
    1STR   O09932222  15.181  20.691  30.317
    1STR   C10032223  15.200  20.807  30.396
    1STR   H10132224  15.140  20.801  30.487
    1STR   C10232225  15.349  20.823  30.431
    1STR   H10332226  15.410  20.824  30.341
    1STR   H10432227  15.385  20.742  30.495
    1STR   H10532228  15.366  20.916  30.484
    1STR   C10632229  15.149  20.927  30.314
    1STR   H10732230  15.207  20.937  30.222
    1STR   H10832231  15.046  20.908  30.284
    1STR   O10932232  15.158  21.046  30.393
    1STR   C11032233  15.117  21.165  30.327
    1STR   H11132234  15.156  21.168  30.225
    1STR   C11232235  14.963  21.174  30.324
    1STR   H11332236  14.922  21.167  30.424
    1STR   H11432237  14.919  21.095  30.263
    1STR   H11532238  14.931  21.269  30.281
    1STR   C11632239  15.178  21.283  30.404
    1STR   H11732240  15.139  21.285  30.506
    1STR   H11832241  15.286  21.269  30.411
    1STR   O11932242  15.148  21.405  30.336
    1STR   C12032243  15.196  21.523  30.400
    1STR   H12132244  15.177  21.518  30.508
    1STR   C12232245  15.346  21.540  30.373
    1STR   H12332246  15.366  21.541  30.266
    1STR   H12432247  15.405  21.461  30.418
    1STR   H12532248  15.382  21.635  30.414
    1STR   C12632249  15.114  21.641  30.345
    1STR   H12732250  15.131  21.651  30.237
    1STR   H12832251  15.008  21.621  30.359
    1STR   O12932252  15.152  21.761  30.412
    1STR   C13032253  15.086  21.879  30.367
    1STR   H13132254  15.082  21.880  30.258
    1STR   C13232255  14.944  21.886  30.426
    1STR   H13332256  14.946  21.879  30.534
    1STR   H13432257  14.881  21.806  30.388
    1STR   H13532258  14.896  21.980  30.399
    1STR   C13632259  15.172  21.998  30.413
    1STR   H13732260  15.177  22.001  30.522
    1STR   H13832261  15.274  21.985  30.377
    1STR   O13932262  15.115  22.119  30.362
    1STR   C14032263  15.183  22.238  30.401
    1STR   H14132264  15.209  22.234  30.507
    1STR   C14232265  15.309  22.257  30.315
    1STR   H14332266  15.285  22.256  30.209
    1STR   H14432267  15.383  22.179  30.333
    1STR   H14532268  15.357  22.352  30.338
    1STR   C14632269  15.084  22.355  30.381
    1STR   H14732270  15.057  22.363  30.276
    1STR   H14832271  14.993  22.334  30.437
    1STR   O14932272  15.144  22.476  30.428
    1STR   C15032273  15.065  22.593  30.411
    1STR   H15132274  15.017  22.593  30.313
    1STR   C15232275  14.958  22.599  30.521
    1STR   H15332276  15.003  22.594  30.620
    1STR   H15432277  14.886  22.518  30.513
    1STR   H15532278  14.902  22.692  30.515
    1STR   C15632279  15.159  22.714  30.418
    1STR   H15732280  15.208  22.718  30.516
    1STR   H15832281  15.238  22.701  30.344
    1STR   O15932282  15.086  22.833  30.393
    1STR   C16032283  15.162  22.953  30.400
    1STR   H16132284  15.228  22.951  30.487
    1STR   C16232285  15.243  22.972  30.271
    1STR   H16332286  15.179  22.970  30.184
    1STR   H16432287  15.319  22.895  30.259
    1STR   H16532288  15.295  23.068  30.272
    1STR   C16632289  15.062  23.069  30.421
    1STR   H16732290  14.995  23.075  30.335
    1STR   H16832291  15.001  23.047  30.508
    1STR   O16932292  15.134  23.191  30.438
    1STR   C17032293  15.052  23.307  30.454
    1STR   H17132294  14.970  23.305  30.383
    1STR   C17232295  14.998  23.313  30.598
    1STR   H17332296  15.080  23.310  30.671
    1STR   H17432297  14.930  23.231  30.620
    1STR   H17532298  14.943  23.406  30.614
    1STR   C17632299  15.140  23.428  30.422
    1STR   H17732300  15.223  23.434  30.492
    1STR   H17832301  15.183  23.416  30.322
    1STR   O17932302  15.061  23.547  30.427
    1STR   C18032303  15.131  23.668  30.403
    1STR   H18132304  15.227  23.668  30.455
    1STR   C18232305  15.154  23.686  30.252
    1STR   H18332306  15.060  23.682  30.197
    1STR   H18432307  15.220  23.609  30.211
    1STR   H18532308  15.201  23.782  30.231
    1STR   C18632309  15.047  23.783  30.460
    1STR   H18732310  14.951  23.787  30.408
    1STR   H18832311  15.026  23.762  30.565
    1STR   O18932312  15.117  23.906  30.446
    1STR   C19032313  15.048  24.021  30.493
    1STR   H19132314  14.943  24.018  30.460
    1STR   C19232315  15.055  24.029  30.646
    1STR   H19332316  15.159  24.028  30.680
    1STR   H19432317  15.003  23.947  30.694
    1STR   H19532318  15.010  24.121  30.682
    1STR   C19632319  15.113  24.143  30.427
    1STR   H19732320  15.218  24.151  30.458
    1STR   H19832321  15.113  24.130  30.319
    1STR   O19932322  15.041  24.261  30.462
    1STR   C20032323  15.094  24.383  30.411
    1STR   H20132324  15.203  24.384  30.421
    1STR   C20232325  15.055  24.398  30.263
    1STR   H20332326  14.946  24.393  30.251
    1STR   H20432327  15.100  24.322  30.200
    1STR   H20532328  15.087  24.495  30.224
    1STR   C20632329  15.038  24.497  30.496
    1STR   H20732330  14.929  24.500  30.488
    1STR   H20832331  15.061  24.478  30.601
    1STR   O20932332  15.095  24.621  30.455
    1STR   C21032333  15.048  24.736  30.524
    1STR   H21132334  14.940  24.731  30.536
    1STR   C21232335  15.117  24.746  30.661
    1STR   H21332336  15.225  24.746  30.651
    1STR   H21432337  15.089  24.664  30.727
    1STR   H21532338  15.088  24.838  30.712
    1STR   C21632339  15.080  24.858  30.436
    1STR   H21732340  15.188  24.867  30.423
    1STR   H21832341  15.037  24.843  30.337
    1STR   O21932342  15.027  24.976  30.497
    1STR   C22032343  15.053  25.097  30.427
    1STR   H22132344  15.157  25.100  30.393
    1STR   C22232345  14.957  25.110  30.308
    1STR   H22332346  14.853  25.103  30.339
    1STR   H22432347  14.975  25.034  30.232
    1STR   H22532348  14.970  25.207  30.258
    1STR   C22632349  15.034  25.213  30.527
    1STR   H22732350  14.931  25.214  30.563
    1STR   H22832351  15.097  25.195  30.614
    1STR   O22932352  15.068  25.336  30.465
    1STR   C23032353  15.051  25.452  30.546
    1STR   H23132354  14.957  25.446  30.601
    1STR   C23232355  15.168  25.464  30.645
    1STR   H23332356  15.264  25.465  30.592
    1STR   H23432357  15.170  25.383  30.717
    1STR   H23532358  15.161  25.557  30.702
    1STR   C23632359  15.044  25.574  30.452
    1STR   H23732360  15.137  25.584  30.397
    1STR   H23832361  14.965  25.557  30.379
    1STR   O23932362  15.018  25.692  30.528
    1STR   C24032363  15.012  25.813  30.453
    1STR   H24132364  15.093  25.816  30.380
    1STR   C24232365  14.876  25.823  30.381
    1STR   H24332366  14.794  25.815  30.452
    1STR   H24432367  14.863  25.745  30.306
    1STR   H24532368  14.866  25.919  30.330
    1STR   C24632369  15.032  25.930  30.551
    1STR   H24732370  14.952  25.931  30.625
    1STR   H24832371  15.125  25.914  30.605
    1STR   O24932372  15.036  26.054  30.479
    1STR   C25032373  15.052  26.171  30.559
    1STR   H25132374  14.987  26.165  30.647
    1STR   C25232375  15.199  26.184  30.603
    1STR   H25332376  15.265  26.185  30.516
    1STR   H25432377  15.230  26.103  30.669
    1STR   H25532378  15.214  26.277  30.657
    1STR   C25632379  15.007  26.292  30.476
    1STR   H25732380  15.070  26.301  30.387
    1STR   H25832381  14.905  26.274  30.441
    1STR   O25932382  15.012  26.411  30.554
    1STR   C26032383  14.974  26.531  30.487
    1STR   H26132384  15.019  26.534  30.388
    1STR   C26232385  14.821  26.538  30.475
    1STR   H26332386  14.774  26.529  30.573
    1STR   H26432387  14.781  26.459  30.412
    1STR   H26532388  14.790  26.633  30.432
    1STR   C26632389  15.029  26.651  30.567
    1STR   H26732390  14.986  26.651  30.667
    1STR   H26832391  15.137  26.638  30.580
    1STR   O26932392  15.001  26.774  30.500
    1STR   C27032393  15.047  26.893  30.566
    1STR   H27132394  15.024  26.888  30.672
    1STR   C27232395  15.199  26.907  30.546
    1STR   H27332396  15.226  26.906  30.440
    1STR   H27432397  15.255  26.827  30.596
    1STR   H27532398  15.235  27.001  30.588
    1STR   C27632399  14.972  27.014  30.506
    1STR   H27732400  14.994  27.022  30.400
    1STR   H27832401  14.865  26.996  30.516
    1STR   O27932402  15.008  27.135  30.574
    1STR   C28032403  14.944  27.255  30.527
    1STR   H28132404  14.945  27.257  30.418
    1STR   C28232405  14.799  27.258  30.578
    1STR   H28332406  14.795  27.248  30.686
    1STR   H28432407  14.738  27.179  30.535
    1STR   H28532408  14.751  27.352  30.551
    1STR   C28632409  15.023  27.378  30.578
    1STR   H28732410  15.024  27.379  30.687
    1STR   H28832411  15.127  27.367  30.546
    1STR   O28932412  14.968  27.501  30.528
    1STR   C29032413  15.035  27.622  30.567
    1STR   H29132414  15.056  27.619  30.674
    1STR   C29232415  15.167  27.635  30.489
    1STR   H29332416  15.150  27.630  30.381
    1STR   H29432417  15.238  27.557  30.515
    1STR   H29532418  15.215  27.730  30.510
    1STR   C29632419  14.942  27.742  30.539
    1STR   H29732420  14.917  27.745  30.432
    1STR   H29832421  14.848  27.726  30.592
    1STR   O29932422  15.000  27.868  30.578
    1STR   C30032423  14.919  27.984  30.556
    1STR   H30132424  14.872  27.977  30.457
    1STR   C30232425  14.810  27.992  30.664
    1STR   H30332426  14.854  27.988  30.764
    1STR   H30432427  14.738  27.910  30.656
    1STR   H30532428  14.754  28.085  30.656
    1STR   C30632429  15.006  28.113  30.556
    1STR   H30732430  15.045  28.132  30.656
    1STR   H30832431  15.092  28.094  30.492
    1STR   O30932432  14.933  28.228  30.508
    1STR    H1R32433  15.046  28.376  30.599
    1STR    H1S32434  15.163  28.444  30.384
    1STR    H1T32435  15.076  28.317  30.299
    1STR    H1U32436  15.194  28.276  30.424
    1STR    H1V32437  14.822  28.471  30.535
    1STR    H1W32438  14.858  28.448  30.366
    1STR    H1X32439  15.054  28.789  30.490
    1STR    H1Y32440  15.164  28.980  30.502
    1STR    H1Z32441  15.221  29.200  30.416
    1STR    H2032442  15.136  29.325  30.087
    1STR    H2132443  15.074  29.410  30.230
    1STR    H2232444  15.238  29.344  30.229
    1STR    H2332445  14.912  29.115  29.992
    1STR    H2732446  14.873  28.930  30.188
    1STR    H2832447  15.336  16.357  30.364
    1STR    H2932448  15.330  16.125  30.416
    1STR    H2A32449  15.082  15.884  30.306
    1STR    H2B32450  15.202  15.927  30.426
    1STR    H2C32451  15.255  15.866  30.271
    1STR   BCK132452  14.907  15.902  44.964
    1STR    O0332453  14.802  15.912  44.902
    1STR    N0432454  14.992  16.004  44.983
    1STR    C0532455  15.002  16.117  44.900
    1STR    C0632456  14.980  16.252  44.944
    1STR    C0732457  14.996  16.363  44.856
    1STR    N0832458  14.979  16.498  44.899
    1STR    C0932459  14.961  16.609  44.824
    1STR    O0A32460  14.942  16.608  44.703
    1STR    O0B32461  14.963  16.725  44.897
    1STR    C0C32462  14.945  16.852  44.829
    1STR    C0D32463  14.795  16.874  44.802
    1STR    C0E32464  15.004  16.973  44.906
    1STR    O0F32465  14.984  17.094  44.831
    1STR    C0G32466  15.034  17.215  44.889
    1STR    C0H32467  15.186  17.224  44.868
    1STR    C0I32468  14.964  17.337  44.822
    1STR    O0J32469  15.006  17.459  44.883
    1STR    C0K32470  15.324  28.340  44.807
    1STR    C0M32471  15.172  28.320  44.819
    1STR    C0N32472  15.362  28.472  44.879
    1STR    O0O32473  15.314  28.583  44.801
    1STR    C0P32474  15.257  28.695  44.854
    1STR    O0Q32475  15.230  28.713  44.972
    1STR    N0R32476  15.243  28.783  44.755
    1STR    C0S32477  15.203  28.917  44.742
    1STR    C0T32478  15.271  28.986  44.641
    1STR    C0U32479  15.240  29.119  44.611
    1STR    C0V32480  15.139  29.188  44.680
    1STR    C0W32481  15.125  29.333  44.642
    1STR    C0X32482  15.062  29.122  44.780
    1STR    N0Y32483  14.959  29.183  44.858
    1STR   BCK232484  14.870  29.286  44.856
    1STR    O1032485  14.804  29.306  44.957
    1STR    C1332486  15.099  28.986  44.812
    1STR    C1432487  15.037  16.335  44.723
    1STR    C1532488  15.061  16.204  44.680
    1STR    C1632489  15.046  16.096  44.767
    1STR    C1732490  15.083  15.957  44.717
    1STR    H1B32491  15.068  15.988  45.047
    1STR    H1C32492  14.949  16.268  45.046
    1STR    H1D32493  14.980  16.517  44.997
    1STR    H1E32494  14.997  16.848  44.733
    1STR    H1F32495  14.738  16.880  44.895
    1STR    H1G32496  14.779  16.967  44.747
    1STR    H1H32497  14.753  16.793  44.742
    1STR    H1I32498  15.111  16.956  44.923
    1STR    H1J32499  14.958  16.982  45.005
    1STR    H1K32500  15.011  17.218  44.995
    1STR    H1M32501  15.212  17.218  44.762
    1STR    H1N32502  15.239  17.144  44.920
    1STR    H1O32503  15.225  17.318  44.906
    1STR    H1P32504  14.985  17.338  44.715
    1STR    H1Q32505  14.856  17.325  44.832
    1STR   C01032506  14.953  17.580  44.827
    1STR   H01132507  14.957  17.576  44.718
    1STR   C01232508  14.807  17.599  44.873
    1STR   H01332509  14.800  17.599  44.981
    1STR   H01432510  14.741  17.521  44.834
    1STR   H01532511  14.768  17.694  44.837
    1STR   C01632512  15.041  17.699  44.873
    1STR   H01732513  15.039  17.705  44.982
    1STR   H01832514  15.144  17.680  44.843
    1STR   O01932515  14.994  17.821  44.815
    1STR   C02032516  15.066  17.939  44.854
    1STR   H02132517  15.085  17.937  44.962
    1STR   C02232518  15.199  17.947  44.778
    1STR   H02332519  15.183  17.945  44.670
    1STR   H02432520  15.266  17.865  44.804
    1STR   H02532521  15.251  18.040  44.801
    1STR   C02632522  14.978  18.062  44.825
    1STR   H02732523  14.957  18.069  44.718
    1STR   H02832524  14.882  18.051  44.875
    1STR   O02932525  15.044  18.181  44.870
    1STR   C03032526  14.975  18.304  44.844
    1STR   H03132527  14.934  18.303  44.743
    1STR   C03232528  14.861  18.322  44.946
    1STR   H03332529  14.899  18.318  45.048
    1STR   H03432530  14.784  18.246  44.936
    1STR   H03532531  14.812  18.419  44.933
    1STR   C03632532  15.076  18.419  44.854
    1STR   H03732533  15.119  18.423  44.954
    1STR   H03832534  15.159  18.399  44.785
    1STR   O03932535  15.013  18.543  44.821
    1STR   C04032536  15.096  18.659  44.830
    1STR   H04132537  15.156  18.655  44.921
    1STR   C04232538  15.187  18.668  44.707
    1STR   H04332539  15.129  18.667  44.614
    1STR   H04432540  15.258  18.585  44.702
    1STR   H04532541  15.245  18.760  44.708
    1STR   C04632542  15.003  18.782  44.839
    1STR   H04732543  14.942  18.790  44.749
    1STR   H04832544  14.935  18.769  44.923
    1STR   O04932545  15.082  18.900  44.857
    1STR   C05032546  15.008  19.022  44.864
    1STR   H05132547  14.931  19.023  44.787
    1STR   C05232548  14.945  19.038  45.003
    1STR   H05332549  15.021  19.032  45.081
    1STR   H05432550  14.870  18.961  45.023
    1STR   H05532551  14.896  19.134  45.012
    1STR   C05632552  15.106  19.137  44.833
    1STR   H05732553  15.185  19.140  44.909
    1STR   H05832554  15.155  19.118  44.738
    1STR   O05932555  15.035  19.260  44.830
    1STR   C06032556  15.115  19.376  44.806
    1STR   H06132557  15.207  19.371  44.865
    1STR   C06232558  15.149  19.387  44.657
    1STR   H06332559  15.059  19.387  44.596
    1STR   H06432560  15.212  19.305  44.623
    1STR   H06532561  15.204  19.479  44.636
    1STR   C06632562  15.035  19.498  44.854
    1STR   H06732563  14.943  19.508  44.796
    1STR   H06832564  15.006  19.483  44.958
    1STR   O06932565  15.115  19.616  44.841
    1STR   C07032566  15.051  19.737  44.879
    1STR   H07132567  14.949  19.740  44.839
    1STR   C07232568  15.049  19.750  45.032
    1STR   H07332569  15.149  19.744  45.073
    1STR   H07432570  14.987  19.674  45.079
    1STR   H07532571  15.007  19.847  45.062
    1STR   C07632572  15.129  19.853  44.814
    1STR   H07732573  15.231  19.854  44.852
    1STR   H07832574  15.135  19.835  44.706
    1STR   O07932575  15.063  19.976  44.840
    1STR   C08032576  15.128  20.092  44.789
    1STR   H08132577  15.235  20.086  44.806
    1STR   C08232578  15.099  20.105  44.638
    1STR   H08332579  14.992  20.106  44.618
    1STR   H08432580  15.143  20.024  44.581
    1STR   H08532581  15.141  20.198  44.599
    1STR   C08632582  15.074  20.213  44.867
    1STR   H08732583  14.966  20.223  44.850
    1STR   H08832584  15.088  20.196  44.973
    1STR   O08932585  15.143  20.331  44.825
    1STR   C09032586  15.099  20.452  44.887
    1STR   H09132587  14.990  20.454  44.892
    1STR   C09232588  15.159  20.462  45.028
    1STR   H09332589  15.267  20.455  45.026
    1STR   H09432590  15.121  20.385  45.095
    1STR   H09532591  15.133  20.558  45.074
    1STR   C09632592  15.145  20.568  44.798
    1STR   H09732593  15.254  20.569  44.792
    1STR   H09832594  15.108  20.552  44.696
    1STR   O09932595  15.096  20.691  44.850
    1STR   C10032596  15.135  20.807  44.779
    1STR   H10132597  15.241  20.802  44.752
    1STR   C10232598  15.049  20.823  44.653
    1STR   H10332599  14.943  20.824  44.677
    1STR   H10432600  15.066  20.742  44.581
    1STR   H10532601  15.072  20.916  44.601
    1STR   C10632602  15.118  20.927  44.874
    1STR   H10732603  15.013  20.937  44.902
    1STR   H10832604  15.174  20.908  44.965
    1STR   O10932605  15.164  21.046  44.810
    1STR   C11032606  15.150  21.165  44.886
    1STR   H11132607  15.052  21.168  44.934
    1STR   C11232608  15.261  21.174  44.992
    1STR   H11332609  15.360  21.166  44.946
    1STR   H11432610  15.253  21.095  45.067
    1STR   H11532611  15.256  21.269  45.045
    1STR   C11632612  15.157  21.283  44.788
    1STR   H11732613  15.255  21.285  44.739
    1STR   H11832614  15.082  21.269  44.710
    1STR   O11932615  15.134  21.405  44.858
    1STR   C12032616  15.142  21.523  44.779
    1STR   H12132617  15.228  21.518  44.712
    1STR   C12232618  15.013  21.540  44.697
    1STR   H12332619  14.925  21.541  44.762
    1STR   H12432620  14.999  21.461  44.624
    1STR   H12532621  15.014  21.635  44.642
    1STR   C12632622  15.164  21.641  44.875
    1STR   H12732623  15.079  21.651  44.942
    1STR   H12832624  15.252  21.621  44.936
    1STR   O12932625  15.182  21.761  44.799
    1STR   C13032626  15.200  21.879  44.877
    1STR   H13132627  15.129  21.880  44.960
    1STR   C13232628  15.344  21.886  44.930
    1STR   H13332629  15.416  21.879  44.848
    1STR   H13432630  15.366  21.805  45.000
    1STR   H13532631  15.362  21.980  44.982
    1STR   C13632632  15.168  21.998  44.785
    1STR   H13732633  15.238  22.001  44.701
    1STR   H13832634  15.068  21.985  44.744
    1STR   O13932635  15.175  22.119  44.861
    1STR   C14032636  15.151  22.238  44.787
    1STR   H14132637  15.203  22.234  44.691
    1STR   C14232638  15.000  22.257  44.764
    1STR   H14332639  14.946  22.256  44.859
    1STR   H14432640  14.958  22.179  44.701
    1STR   H14532641  14.980  22.352  44.715
    1STR   C14632642  15.211  22.355  44.868
    1STR   H14732643  15.160  22.363  44.964
    1STR   H14832644  15.316  22.334  44.889
    1STR   O14932645  15.198  22.476  44.793
    1STR   C15032646  15.245  22.593  44.859
    1STR   H15132647  15.214  22.593  44.964
    1STR   C15232648  15.399  22.599  44.850
    1STR   H15332649  15.432  22.594  44.747
    1STR   H15432650  15.447  22.518  44.905
    1STR   H15532651  15.436  22.692  44.893
    1STR   C15632652  15.180  22.713  44.790
    1STR   H15732653  15.211  22.718  44.685
    1STR   H15832654  15.072  22.701  44.791
    1STR   O15932655  15.218  22.833  44.858
    1STR   C16032656  15.167  22.953  44.802
    1STR   H16132657  15.176  22.951  44.693
    1STR   C16232658  15.020  22.972  44.841
    1STR   H16332659  15.008  22.970  44.950
    1STR   H16432660  14.955  22.895  44.799
    1STR   H16532661  14.982  23.068  44.806
    1STR   C16632662  15.254  23.069  44.854
    1STR   H16732663  15.246  23.075  44.963
    1STR   H16832664  15.358  23.047  44.831
    1STR   O16932665  15.213  23.191  44.793
    1STR   C17032666  15.284  23.307  44.836
    1STR   H17132667  15.297  23.305  44.944
    1STR   C17232668  15.421  23.313  44.766
    1STR   H17332669  15.410  23.310  44.658
    1STR   H17432670  15.486  23.231  44.795
    1STR   H17532671  15.472  23.406  44.792
    1STR   C17632672  15.197  23.429  44.800
    1STR   H17732673  15.183  23.435  44.692
    1STR   H17832674  15.098  23.416  44.845
    1STR   O17932675  15.259  23.547  44.850
    1STR   C18032676  15.191  23.668  44.821
    1STR   H18132677  15.156  23.668  44.717
    1STR   C18232678  15.072  23.686  44.916
    1STR   H18332679  15.104  23.682  45.020
    1STR   H18432680  14.995  23.609  44.902
    1STR   H18532681  15.023  23.782  44.900
    1STR   C18632682  15.292  23.783  44.836
    1STR   H18732683  15.328  23.787  44.938
    1STR   H18832684  15.378  23.762  44.772
    1STR   O18932685  15.231  23.906  44.798
    1STR   C19032686  15.313  24.021  44.811
    1STR   H19132687  15.368  24.017  44.905
    1STR   C19232688  15.411  24.029  44.692
    1STR   H19332689  15.358  24.028  44.597
    1STR   H19432690  15.482  23.946  44.692
    1STR   H19532691  15.469  24.121  44.697
    1STR   C19632692  15.220  24.143  44.815
    1STR   H19732693  15.165  24.151  44.721
    1STR   H19832694  15.147  24.130  44.895
    1STR   O19932695  15.298  24.261  44.837
    1STR   C20032696  15.224  24.383  44.840
    1STR   H20132697  15.150  24.384  44.759
    1STR   C20232698  15.153  24.398  44.976
    1STR   H20332699  15.225  24.393  45.058
    1STR   H20432700  15.077  24.322  44.992
    1STR   H20532701  15.103  24.495  44.982
    1STR   C20632702  15.323  24.497  44.814
    1STR   H20732703  15.397  24.500  44.894
    1STR   H20832704  15.377  24.478  44.722
    1STR   O20932705  15.252  24.621  44.806
    1STR   C21032706  15.334  24.736  44.787
    1STR   H21132707  15.422  24.731  44.851
    1STR   C21232708  15.376  24.746  44.640
    1STR   H21332709  15.289  24.746  44.574
    1STR   H21432710  15.441  24.664  44.610
    1STR   H21532711  15.431  24.838  44.621
    1STR   C21632712  15.251  24.858  44.830
    1STR   H21732713  15.162  24.867  44.767
    1STR   H21832714  15.216  24.843  44.932
    1STR   O21932715  15.331  24.976  44.821
    1STR   C22032716  15.265  25.097  44.855
    1STR   H22132717  15.165  25.099  44.811
    1STR   C22232718  15.255  25.110  45.008
    1STR   H22332719  15.353  25.103  45.055
    1STR   H22432720  15.191  25.034  45.052
    1STR   H22532721  15.212  25.207  45.036
    1STR   C22632722  15.347  25.212  44.794
    1STR   H22732723  15.447  25.214  44.838
    1STR   H22832724  15.358  25.195  44.687
    1STR   O22932725  15.279  25.336  44.817
    1STR   C23032726  15.347  25.452  44.769
    1STR   H23132727  15.453  25.446  44.792
    1STR   C23232728  15.327  25.464  44.617
    1STR   H23332729  15.221  25.465  44.591
    1STR   H23432730  15.374  25.382  44.562
    1STR   H23532731  15.370  25.557  44.580
    1STR   C23632732  15.289  25.574  44.843
    1STR   H23732733  15.182  25.583  44.821
    1STR   H23832734  15.298  25.557  44.950
    1STR   O23932735  15.359  25.692  44.805
    1STR   C24032736  15.313  25.813  44.864
    1STR   H24132737  15.204  25.815  44.863
    1STR   C24232738  15.365  25.823  45.009
    1STR   H24332739  15.473  25.815  45.012
    1STR   H24432740  15.323  25.745  45.073
    1STR   H24532741  15.337  25.918  45.053
    1STR   C24632742  15.364  25.929  44.778
    1STR   H24732743  15.473  25.930  44.777
    1STR   H24832744  15.331  25.914  44.675
    1STR   O24932745  15.312  26.053  44.828
    1STR   C25032746  15.355  26.170  44.758
    1STR   H25132747  15.462  26.164  44.737
    1STR   C25232748  15.276  26.183  44.627
    1STR   H25332749  15.169  26.184  44.646
    1STR   H25432750  15.298  26.103  44.557
    1STR   H25532751  15.301  26.277  44.577
    1STR   C25632752  15.332  26.291  44.851
    1STR   H25732753  15.225  26.300  44.873
    1STR   H25832754  15.383  26.273  44.945
    1STR   O25932755  15.381  26.410  44.789
    1STR   C26032756  15.363  26.530  44.864
    1STR   H26132757  15.263  26.533  44.907
    1STR   C26232758  15.468  26.537  44.977
    1STR   H26332759  15.569  26.528  44.937
    1STR   H26432760  15.454  26.458  45.051
    1STR   H26532761  15.461  26.632  45.030
    1STR   C26632762  15.377  26.649  44.768
    1STR   H26732763  15.477  26.650  44.724
    1STR   H26832764  15.306  26.636  44.686
    1STR   O26932765  15.352  26.772  44.836
    1STR   C27032766  15.362  26.891  44.757
    1STR   H27132767  15.452  26.885  44.694
    1STR   C27232768  15.237  26.905  44.669
    1STR   H27332769  15.146  26.904  44.729
    1STR   H27432770  15.229  26.826  44.595
    1STR   H27532771  15.240  26.999  44.614
    1STR   C27632772  15.378  27.011  44.852
    1STR   H27732773  15.290  27.020  44.916
    1STR   H27832774  15.463  26.993  44.917
    1STR   O27932775  15.398  27.132  44.778
    1STR   C28032776  15.414  27.252  44.856
    1STR   H28132777  15.339  27.254  44.935
    1STR   C28232778  15.555  27.255  44.916
    1STR   H28332779  15.631  27.245  44.839
    1STR   H28432780  15.571  27.175  44.989
    1STR   H28532781  15.572  27.349  44.968
    1STR   C28632782  15.389  27.374  44.764
    1STR   H28732783  15.462  27.375  44.683
    1STR   H28832784  15.291  27.363  44.718
    1STR   O28932785  15.396  27.497  44.839
    1STR   C29032786  15.374  27.618  44.766
    1STR   H29132787  15.431  27.615  44.673
    1STR   C29232788  15.224  27.632  44.734
    1STR   H29332789  15.164  27.627  44.825
    1STR   H29432790  15.188  27.554  44.667
    1STR   H29532791  15.203  27.727  44.686
    1STR   C29632792  15.424  27.738  44.849
    1STR   H29732793  15.371  27.741  44.944
    1STR   H29832794  15.529  27.721  44.873
    1STR   O29932795  15.409  27.862  44.779
    1STR   C30032796  15.450  27.981  44.849
    1STR   H30132797  15.415  27.976  44.952
    1STR   C30232798  15.603  27.991  44.845
    1STR   H30332799  15.640  27.986  44.742
    1STR   H30432800  15.651  27.910  44.901
    1STR   H30532801  15.637  28.085  44.888
    1STR   C30632802  15.383  28.104  44.782
    1STR   H30732803  15.424  28.119  44.683
    1STR   H30832804  15.278  28.078  44.768
    1STR   O30932805  15.393  28.225  44.861
    1STR    H1R32806  15.352  28.350  44.702
    1STR    H1S32807  15.119  28.410  44.788
    1STR    H1T32808  15.144  28.299  44.922
    1STR    H1U32809  15.135  28.239  44.756
    1STR    H1V32810  15.471  28.481  44.885
    1STR    H1W32811  15.325  28.475  44.981
    1STR    H1X32812  15.278  28.741  44.671
    1STR    H1Y32813  15.351  28.938  44.586
    1STR    H1Z32814  15.298  29.169  44.535
    1STR    H2032815  15.044  29.344  44.570
    1STR    H2132816  15.107  29.395  44.730
    1STR    H2232817  15.215  29.372  44.594
    1STR    H2332818  14.944  29.136  44.945
    1STR    H2732819  15.046  28.932  44.890
    1STR    H2832820  15.054  16.413  44.651
    1STR    H2932821  15.093  16.188  44.578
    1STR    H2A32822  15.147  15.906  44.790
    1STR    H2B32823  15.137  15.961  44.623
    1STR    H2C32824  14.993  15.897  44.703
    1STR   BCK132825  14.905  30.935  60.124
    1STR    O0332826  14.953  30.873   0.058
    1STR    N0432827  14.875  31.068  60.127
    1STR    C0532828  14.864  31.158   0.077
    1STR    C0632829  14.905  31.295   0.065
    1STR    C0732830  14.884  31.392   0.169
    1STR    N0832831  14.919  31.529   0.154
    1STR    C0932832  14.876  31.637   0.225
    1STR    O0A32833  14.792  31.632   0.314
    1STR    O0B32834  14.934  31.756   0.186
    1STR    C0C32835  14.905  31.879   0.258
    1STR    C0D32836  14.995  31.889   0.383
    1STR    C0E32837  14.918  32.007   0.171
    1STR    O0F32838  14.885  32.126   0.245
    1STR    C0G32839  14.887  32.250   0.173
    1STR    C0H32840  14.761  32.262   0.087
    1STR    C0I32841  14.896  32.371   0.271
    1STR    O0J32842  14.904  32.495   0.198
    1STR    C0K32843  14.575  43.374   0.013
    1STR    C0M32844  14.701  43.378   0.101
    1STR    C0N32845  14.573  43.495  60.076
    1STR    O0O32846  14.555  43.617  60.148
    1STR    C0P32847  14.611  43.732  60.105
    1STR    O0Q32848  14.685  43.743  60.008
    1STR    N0R32849  14.577  43.832   0.028
    1STR    C0S32850  14.619  43.966   0.036
    1STR    C0T32851  14.608  44.027   0.162
    1STR    C0U32852  14.657  44.157   0.183
    1STR    C0V32853  14.717  44.230   0.078
    1STR    C0W32854  14.790  44.358   0.114
    1STR    C0X32855  14.719  44.176  60.107
    1STR    N0Y32856  14.779  44.241  59.998
    1STR   BCK232857  14.758  44.357  59.933
    1STR    O1032858  14.823  44.382  59.832
    1STR    C1332859  14.674  44.042  60.089
    1STR    C1432860  14.827  31.345   0.289
    1STR    C1532861  14.785  31.212   0.302
    1STR    C1632862  14.799  31.120   0.197
    1STR    C1732863  14.734  30.984   0.218
    1STR    H1B32864  14.854  31.105  60.036
    1STR    H1C32865  14.951  31.328  60.133
    1STR    H1D32866  14.984  31.555   0.082
    1STR    H1E32867  14.801  31.876   0.292
    1STR    H1F32868  15.100  31.894   0.355
    1STR    H1G32869  14.971  31.978   0.441
    1STR    H1H32870  14.982  31.803   0.449
    1STR    H1I32871  14.852  31.997   0.085
    1STR    H1J32872  15.020  32.015   0.132
    1STR    H1K32873  14.976  32.254   0.110
    1STR    H1M32874  14.671  32.255   0.148
    1STR    H1N32875  14.755  32.185   0.010
    1STR    H1O32876  14.758  32.358   0.035
    1STR    H1P32877  14.808  32.372   0.336
    1STR    H1Q32878  14.983  32.359   0.336
    1STR   C01032879  14.906  32.616   0.276
    1STR   H01132880  14.829  32.611   0.353
    1STR   C01232881  15.044  32.635   0.340
    1STR   H01332882  15.123  32.635   0.265
    1STR   H01432883  15.067  32.557   0.413
    1STR   H01532884  15.049  32.730   0.393
    1STR   C01632885  14.872  32.735   0.183
    1STR   H01732886  14.946  32.741   0.103
    1STR   H01832887  14.776  32.716   0.135
    1STR   O01932888  14.868  32.858   0.256
    1STR   C02032889  14.842  32.976   0.179
    1STR   H02132890  14.901  32.974   0.087
    1STR   C02232891  14.693  32.984   0.145
    1STR   H02332892  14.632  32.982   0.235
    1STR   H02432893  14.660  32.903   0.080
    1STR   H02532894  14.670  33.077   0.092
    1STR   C02632895  14.887  33.100   0.259
    1STR   H02732896  14.830  33.106   0.352
    1STR   H02832897  14.992  33.089   0.287
    1STR   O02932898  14.868  33.219   0.182
    1STR   C03032899  14.902  33.342   0.248
    1STR   H03132900  14.863  33.342   0.350
    1STR   C03232901  15.054  33.360   0.249
    1STR   H03332902  15.096  33.357   0.148
    1STR   H03432903  15.105  33.284   0.309
    1STR   H03532904  15.081  33.457   0.292
    1STR   C03632905  14.833  33.458   0.172
    1STR   H03732906  14.870  33.462   0.069
    1STR   H03832907  14.726  33.438   0.167
    1STR   O03932908  14.858  33.582   0.239
    1STR   C04032909  14.803  33.698   0.176
    1STR   H04132910  14.821  33.694   0.069
    1STR   C04232911  14.652  33.707   0.205
    1STR   H04332912  14.633  33.706   0.312
    1STR   H04432913  14.597  33.624   0.160
    1STR   H04532914  14.611  33.799   0.165
    1STR   C04632915  14.878  33.821   0.232
    1STR   H04732916  14.862  33.829   0.339
    1STR   H04832917  14.985  33.808   0.216
    1STR   O04932918  14.832  33.939   0.166
    1STR   C05032919  14.890  34.061   0.211
    1STR   H05132920  14.895  34.062   0.320
    1STR   C05232921  15.031  34.077   0.151
    1STR   H05332922  15.028  34.072   0.042
    1STR   H05432923  15.100  34.001   0.187
    1STR   H05532924  15.073  34.174   0.178
    1STR   C05632925  14.797  34.176   0.167
    1STR   H05732926  14.791  34.179   0.058
    1STR   H05832927  14.697  34.157   0.205
    1STR   O05932928  14.847  34.300   0.217
    1STR   C06032929  14.773  34.416   0.180
    1STR   H06132930  14.745  34.410   0.075
    1STR   C06232931  14.646  34.426   0.267
    1STR   H06332932  14.672  34.427   0.373
    1STR   H06432933  14.577  34.344   0.250
    1STR   H06532934  14.593  34.519   0.246
    1STR   C06632935  14.864  34.538   0.199
    1STR   H06732936  14.893  34.547   0.304
    1STR   H06832937  14.956  34.523   0.142
    1STR   O06932938  14.796  34.655   0.155
    1STR   C07032939  14.869  34.777   0.171
    1STR   H07132940  14.918  34.779   0.268
    1STR   C07232941  14.974  34.790   0.059
    1STR   H07332942  14.928  34.783  60.121
    1STR   H07432943  15.051  34.714   0.066
    1STR   H07532944  15.024  34.887   0.065
    1STR   C07632945  14.767  34.892   0.166
    1STR   H07732946  14.718  34.894   0.069
    1STR   H07832947  14.690  34.875   0.241
    1STR   O07932948  14.834  35.016   0.191
    1STR   C08032949  14.752  35.132   0.185
    1STR   H08132950  14.684  35.126   0.099
    1STR   C08232951  14.671  35.145   0.315
    1STR   H08332952  14.736  35.146   0.402
    1STR   H08432953  14.600  35.064   0.328
    1STR   H08532954  14.614  35.238   0.316
    1STR   C08632955  14.844  35.253   0.164
    1STR   H08732956  14.912  35.263   0.249
    1STR   H08832957  14.905  35.236   0.075
    1STR   O08932958  14.765  35.371   0.148
    1STR   C09032959  14.839  35.491   0.132
    1STR   H09132960  14.923  35.494   0.202
    1STR   C09232961  14.891  35.502  60.148
    1STR   H09332962  14.809  35.495  60.076
    1STR   H09432963  14.963  35.424  60.124
    1STR   H09532964  14.940  35.598  60.131
    1STR   C09632965  14.745  35.608   0.166
    1STR   H09732966  14.660  35.609   0.097
    1STR   H09832967  14.704  35.592   0.266
    1STR   O09932968  14.817  35.731   0.161
    1STR   C10032969  14.740  35.847   0.187
    1STR   H10132970  14.644  35.842   0.136
    1STR   C10232971  14.718  35.863   0.339
    1STR   H10332972  14.813  35.864   0.392
    1STR   H10432973  14.657  35.782   0.380
    1STR   H10532974  14.666  35.956   0.361
    1STR   C10632975  14.817  35.967   0.129
    1STR   H10732976  14.913  35.977   0.179
    1STR   H10832977  14.837  35.949   0.024
    1STR   O10932978  14.739  36.086   0.144
    1STR   C11032979  14.801  36.205   0.098
    1STR   H11132980  14.906  36.208   0.129
    1STR   C11232981  14.790  36.214  60.105
    1STR   H11332982  14.687  36.206  60.072
    1STR   H11432983  14.847  36.135  60.055
    1STR   H11532984  14.830  36.309  60.069
    1STR   C11632985  14.729  36.323   0.166
    1STR   H11732986  14.624  36.325   0.136
    1STR   H11832987  14.732  36.309   0.274
    1STR   O11932988  14.794  36.445   0.130
    1STR   C12032989  14.734  36.563   0.183
    1STR   H12132990  14.626  36.558   0.174
    1STR   C12232991  14.775  36.580   0.330
    1STR   H12332992  14.883  36.581   0.341
    1STR   H12432993  14.735  36.501   0.393
    1STR   H12532994  14.737  36.675   0.370
    1STR   C12632995  14.783  36.681   0.097
    1STR   H12732996  14.891  36.691   0.105
    1STR   H12832997  14.759  36.661  60.153
    1STR   O12932998  14.718  36.801   0.140
    1STR   C13032999  14.758  36.919   0.071
    1STR   H13133000  14.866  36.920   0.058
    1STR   C13233001  14.687  36.926  60.095
    1STR   H13333002  14.579  36.919  60.106
    1STR   H13433003  14.719  36.845  60.028
    1STR   H13533004  14.710  37.020  60.045
    1STR   C13633005  14.719  37.038   0.160
    1STR   H13733006  14.611  37.041   0.175
    1STR   H13833007  14.765  37.025   0.259
    1STR   O13933008  14.765  37.159   0.100
    1STR   C14033009  14.733  37.278   0.170
    1STR   H14133010  14.630  37.274   0.206
    1STR   C14233011  14.829  37.297   0.289
    1STR   H14333012  14.933  37.296   0.256
    1STR   H14433013  14.817  37.219   0.364
    1STR   H14533014  14.811  37.392   0.339
    1STR   C14633015  14.744  37.395   0.071
    1STR   H14733016  14.846  37.403   0.034
    1STR   H14833017  14.680  37.374  60.144
    1STR   O14933018  14.703  37.516   0.134
    1STR   C15033019  14.712  37.633   0.054
    1STR   H15133020  14.806  37.633  60.158
    1STR   C15233021  14.593  37.639  60.117
    1STR   H15333022  14.498  37.634   0.011
    1STR   H15433023  14.594  37.558  60.044
    1STR   H15533024  14.594  37.732  60.060
    1STR   C15633025  14.714  37.753   0.149
    1STR   H15733026  14.621  37.758   0.205
    1STR   H15833027  14.795  37.741   0.221
    1STR   O15933028  14.732  37.873   0.073
    1STR   C16033029  14.732  37.993   0.149
    1STR   H16133030  14.651  37.991   0.223
    1STR   C16233031  14.867  38.012   0.219
    1STR   H16333032  14.949  38.010   0.147
    1STR   H16433033  14.886  37.935   0.294
    1STR   H16533034  14.871  38.108   0.271
    1STR   C16633035  14.702  38.109   0.052
    1STR   H16733036  14.782  38.115  60.137
    1STR   H16833037  14.610  38.087  60.158
    1STR   O16933038  14.691  38.231   0.124
    1STR   C17033039  14.668  38.347   0.045
    1STR   H17133040  14.732  38.345  60.116
    1STR   C17233041  14.520  38.353   0.004
    1STR   H17333042  14.455  38.350   0.091
    1STR   H17433043  14.492  38.271  60.098
    1STR   H17533044  14.500  38.446  60.110
    1STR   C17633045  14.708  38.468   0.130
    1STR   H17733046  14.646  38.474   0.219
    1STR   H17833047  14.811  38.456   0.164
    1STR   O17933048  14.696  38.587   0.051
    1STR   C18033049  14.727  38.708   0.119
    1STR   H18133050  14.682  38.707   0.219
    1STR   C18233051  14.879  38.726   0.129
    1STR   H18333052  14.926  38.722   0.031
    1STR   H18433053  14.926  38.649   0.191
    1STR   H18533054  14.904  38.822   0.173
    1STR   C18633055  14.662  38.822   0.040
    1STR   H18733056  14.705  38.827  60.099
    1STR   H18833057  14.556  38.802   0.028
    1STR   O18933058  14.682  38.945   0.109
    1STR   C19033059  14.630  39.061   0.044
    1STR   H19133060  14.653  39.057  60.097
    1STR   C19233061  14.478  39.069   0.065
    1STR   H19333062  14.452  39.067   0.171
    1STR   H19433063  14.425  38.986   0.017
    1STR   H19533064  14.438  39.161   0.022
    1STR   C19633065  14.701  39.183   0.103
    1STR   H19733066  14.679  39.191   0.210
    1STR   H19833067  14.809  39.170   0.094
    1STR   O19933068  14.659  39.301   0.034
    1STR   C20033069  14.715  39.422   0.083
    1STR   H20133070  14.715  39.423   0.192
    1STR   C20233071  14.859  39.438   0.030
    1STR   H20333072  14.862  39.433  60.081
    1STR   H20433073  14.926  39.362   0.069
    1STR   H20533074  14.900  39.535   0.059
    1STR   C20633075  14.625  39.537   0.034
    1STR   H20733076  14.624  39.540  60.085
    1STR   H20833077  14.522  39.517   0.067
    1STR   O20933078  14.671  39.660   0.088
    1STR   C21033079  14.598  39.776   0.047
    1STR   H21133080  14.577  39.771  60.100
    1STR   C21233081  14.468  39.786   0.127
    1STR   H21333082  14.487  39.786   0.234
    1STR   H21433083  14.400  39.703   0.106
    1STR   H21533084  14.415  39.878   0.103
    1STR   C21633085  14.689  39.898   0.071
    1STR   H21733086  14.711  39.907   0.178
    1STR   H21833087  14.783  39.883   0.020
    1STR   O21933088  14.624  40.015   0.023
    1STR   C22033089  14.695  40.137   0.044
    1STR   H22133090  14.739  40.139   0.144
    1STR   C22233091  14.806  40.150  60.098
    1STR   H22333092  14.765  40.143  59.997
    1STR   H22433093  14.882  40.073  60.108
    1STR   H22533094  14.856  40.246  60.107
    1STR   C22633095  14.594  40.252   0.033
    1STR   H22733096  14.549  40.254  60.094
    1STR   H22833097  14.513  40.234   0.104
    1STR   O22933098  14.659  40.375   0.062
    1STR   C23033099  14.577  40.491   0.052
    1STR   H23133100  14.514  40.485  60.123
    1STR   C23233101  14.489  40.503   0.178
    1STR   H23333102  14.549  40.505   0.268
    1STR   H23433103  14.417  40.422   0.186
    1STR   H23533104  14.431  40.596   0.175
    1STR   C23633105  14.670  40.612   0.036
    1STR   H23733106  14.733  40.622   0.125
    1STR   H23833107  14.736  40.596  60.111
    1STR   O23933108  14.592  40.730   0.017
    1STR   C24033109  14.666  40.851   0.004
    1STR   H24133110  14.746  40.854   0.079
    1STR   C24233111  14.725  40.862  60.023
    1STR   H24333112  14.647  40.854  59.947
    1STR   H24433113  14.799  40.784  60.003
    1STR   H24533114  14.775  40.957  60.009
    1STR   C24633115  14.570  40.968   0.034
    1STR   H24733116  14.489  40.969  60.120
    1STR   H24833117  14.524  40.952   0.131
    1STR   O24933118  14.642  41.091   0.032
    1STR   C25033119  14.563  41.208   0.054
    1STR   H25133120  14.470  41.202  60.158
    1STR   C25233121  14.533  41.222   0.204
    1STR   H25333122  14.625  41.223   0.263
    1STR   H25433123  14.470  41.142   0.241
    1STR   H25533124  14.480  41.315   0.224
    1STR   C25633125  14.643  41.328   0.001
    1STR   H25733126  14.737  41.338   0.057
    1STR   H25833127  14.670  41.310  60.057
    1STR   O25933128  14.565  41.447   0.013
    1STR   C26033129  14.629  41.567  60.130
    1STR   H26133130  14.732  41.570   0.006
    1STR   C26233131  14.627  41.574  59.976
    1STR   H26333132  14.526  41.566  59.938
    1STR   H26433133  14.687  41.496  59.930
    1STR   H26533134  14.668  41.669  59.942
    1STR   C26633135  14.553  41.685   0.033
    1STR   H26733136  14.450  41.686  60.157
    1STR   H26833137  14.550  41.672   0.141
    1STR   O26933138  14.619  41.808  60.160
    1STR   C27033139  14.557  41.926   0.050
    1STR   H27133140  14.449  41.921   0.036
    1STR   C27233141  14.589  41.942   0.200
    1STR   H27333142  14.697  41.942   0.217
    1STR   H27433143  14.546  41.862   0.260
    1STR   H27533144  14.550  42.036   0.238
    1STR   C27633145  14.610  42.046  60.129
    1STR   H27733146  14.718  42.055  60.142
    1STR   H27833147  14.592  42.027  60.023
    1STR   O27933148  14.544  42.166   0.010
    1STR   C28033149  14.586  42.285  60.102
    1STR   H28133150  14.695  42.287  60.094
    1STR   C28233151  14.523  42.290  59.962
    1STR   H28333152  14.414  42.282  59.968
    1STR   H28433153  14.559  42.211  59.898
    1STR   H28533154  14.546  42.385  59.913
    1STR   C28633155  14.543  42.406   0.028
    1STR   H28733156  14.434  42.408   0.038
    1STR   H28833157  14.583  42.394   0.128
    1STR   O28933158  14.589  42.528  60.129
    1STR   C29033159  14.554  42.648   0.039
    1STR   H29133160  14.450  42.645   0.069
    1STR   C29233161  14.644  42.664   0.162
    1STR   H29333162  14.750  42.662   0.135
    1STR   H29433163  14.627  42.586   0.236
    1STR   H29533164  14.625  42.759   0.212
    1STR   C29633165  14.572  42.767  60.101
    1STR   H29733166  14.676  42.773  60.069
    1STR   H29833167  14.512  42.748  60.012
    1STR   O29933168  14.532  42.890   0.003
    1STR   C30033169  14.544  43.007  60.081
    1STR   H30133170  14.640  43.005  60.029
    1STR   C30233171  14.429  43.012  59.980
    1STR   H30333172  14.332  43.007  60.030
    1STR   H30433173  14.434  42.931  59.908
    1STR   H30533174  14.432  43.105  59.923
    1STR   C30633175  14.544  43.132   0.013
    1STR   H30733176  14.447  43.140   0.063
    1STR   H30833177  14.619  43.117   0.090
    1STR   O30933178  14.572  43.251  60.098
    1STR    H1R33179  14.486  43.379   0.076
    1STR    H1S33180  14.710  43.475   0.151
    1STR    H1T33181  14.791  43.364   0.040
    1STR    H1U33182  14.701  43.302   0.178
    1STR    H1V33183  14.491  43.485  60.005
    1STR    H1W33184  14.665  43.496  60.017
    1STR    H1X33185  14.516  43.799   0.100
    1STR    H1Y33186  14.566  43.974   0.246
    1STR    H1Z33187  14.654  44.199   0.282
    1STR    H2033188  14.897  44.338   0.119
    1STR    H2133189  14.775  44.438   0.043
    1STR    H2233190  14.759  44.396   0.212
    1STR    H2333191  14.849  44.187  59.950
    1STR    H2733192  14.681  43.996  59.991
    1STR    H2833193  14.813  31.409   0.374
    1STR    H2933194  14.737  31.182   0.395
    1STR    H2A33195  14.694  30.945   0.125
    1STR    H2B33196  14.651  30.991   0.288
    1STR    H2C33197  14.807  30.914   0.259
    1STR   BCK133198  15.044  30.945  14.896
    1STR    O0333199  15.138  30.882  14.849
    1STR    N0433200  15.052  31.069  14.949
    1STR    C0533201  15.161  31.158  14.966
    1STR    C0633202  15.140  31.299  14.951
    1STR    C0733203  15.244  31.396  14.966
    1STR    N0833204  15.218  31.535  14.956
    1STR    C0933205  15.304  31.639  14.942
    1STR    O0A33206  15.425  31.627  14.926
    1STR    O0B33207  15.241  31.761  14.947
    1STR    C0C33208  15.316  31.882  14.925
    1STR    C0D33209  15.337  31.902  14.774
    1STR    C0E33210  15.248  32.007  14.988
    1STR    O0F33211  15.323  32.127  14.960
    1STR    C0G33212  15.271  32.250  15.014
    1STR    C0H33213  15.305  32.259  15.163
    1STR    C0I33214  15.331  32.371  14.937
    1STR    O0J33215  15.275  32.494  14.986
    1STR    C0K33216  15.350  43.398  15.293
    1STR    C0M33217  15.339  43.375  15.142
    1STR    C0N33218  15.262  43.521  15.333
    1STR    O0O33219  15.307  43.642  15.269
    1STR    C0P33220  15.221  43.741  15.227
    1STR    O0Q33221  15.099  43.735  15.226
    1STR    N0R33222  15.293  43.848  15.190
    1STR    C0S33223  15.269  43.978  15.140
    1STR    C0T33224  15.379  44.064  15.153
    1STR    C0U33225  15.379  44.192  15.096
    1STR    C0V33226  15.268  44.239  15.024
    1STR    C0W33227  15.285  44.371  14.950
    1STR    C0X33228  15.149  44.160  15.016
    1STR    N0Y33229  15.040  44.207  14.939
    1STR   BCK233230  14.982  44.330  14.938
    1STR    O1033231  14.997  44.415  15.025
    1STR    C1333232  15.152  44.028  15.073
    1STR    C1433233  15.373  31.347  14.995
    1STR    C1533234  15.396  31.210  15.013
    1STR    C1633235  15.292  31.116  15.004
    1STR    C1733236  15.327  30.973  15.043
    1STR    H1B33237  14.963  31.104  14.978
    1STR    H1C33238  15.041  31.334  14.927
    1STR    H1D33239  15.123  31.566  14.960
    1STR    H1E33240  15.414  31.872  14.973
    1STR    H1F33241  15.242  31.913  14.721
    1STR    H1G33242  15.397  31.992  14.754
    1STR    H1H33243  15.391  31.818  14.730
    1STR    H1I33244  15.239  31.992  15.095
    1STR    H1J33245  15.147  32.018  14.949
    1STR    H1K33246  15.163  32.253  15.000
    1STR    H1M33247  15.413  32.254  15.179
    1STR    H1N33248  15.258  32.180  15.222
    1STR    H1O33249  15.271  32.354  15.205
    1STR    H1P33250  15.440  32.373  14.949
    1STR    H1Q33251  15.311  32.360  14.831
    1STR   C01033252  15.325  32.616  14.928
    1STR   H01133253  15.434  32.612  14.922
    1STR   C01233254  15.266  32.634  14.787
    1STR   H01333255  15.157  32.634  14.789
    1STR   H01433256  15.299  32.557  14.718
    1STR   H01533257  15.298  32.730  14.744
    1STR   C01633258  15.287  32.735  15.019
    1STR   H01733259  15.179  32.741  15.028
    1STR   H01833260  15.326  32.716  15.119
    1STR   O01933261  15.339  32.858  14.967
    1STR   C02033262  15.306  32.976  15.042
    1STR   H02133263  15.201  32.974  15.070
    1STR   C02233264  15.394  32.984  15.168
    1STR   H02333265  15.500  32.982  15.142
    1STR   H02433266  15.375  32.902  15.237
    1STR   H02533267  15.375  33.077  15.222
    1STR   C02633268  15.328  33.100  14.952
    1STR   H02733269  15.433  33.106  14.922
    1STR   H02833270  15.269  33.088  14.861
    1STR   O02933271  15.290  33.219  15.022
    1STR   C03033272  15.309  33.341  14.951
    1STR   H03133273  15.406  33.341  14.901
    1STR   C03233274  15.197  33.360  14.847
    1STR   H03333275  15.099  33.356  14.893
    1STR   H03433276  15.201  33.284  14.769
    1STR   H03533277  15.207  33.457  14.797
    1STR   C03633278  15.309  33.457  15.053
    1STR   H03733279  15.212  33.461  15.104
    1STR   H03833280  15.384  33.438  15.129
    1STR   O03933281  15.336  33.581  14.987
    1STR   C04033282  15.334  33.697  15.070
    1STR   H04133283  15.248  33.693  15.138
    1STR   C04233284  15.464  33.706  15.150
    1STR   H04333285  15.551  33.705  15.084
    1STR   H04433286  15.475  33.624  15.221
    1STR   H04533287  15.468  33.798  15.208
    1STR   C04633288  15.316  33.821  14.979
    1STR   H04733289  15.400  33.828  14.910
    1STR   H04833290  15.226  33.808  14.918
    1STR   O04933291  15.306  33.939  15.059
    1STR   C05033292  15.293  34.061  14.986
    1STR   H05133293  15.362  34.062  14.902
    1STR   C05233294  15.149  34.077  14.936
    1STR   H05333295  15.077  34.071  15.018
    1STR   H05433296  15.122  34.001  14.863
    1STR   H05533297  15.135  34.173  14.887
    1STR   C05633298  15.332  34.176  15.081
    1STR   H05733299  15.263  34.179  15.166
    1STR   H05833300  15.431  34.157  15.121
    1STR   O05933301  15.329  34.300  15.010
    1STR   C06033302  15.359  34.415  15.088
    1STR   H06133303  15.308  34.410  15.184
    1STR   C06233304  15.511  34.426  15.109
    1STR   H06333305  15.564  34.427  15.013
    1STR   H06433306  15.550  34.344  15.168
    1STR   H06533307  15.536  34.518  15.161
    1STR   C06633308  15.304  34.538  15.012
    1STR   H06733309  15.354  34.547  14.915
    1STR   H06833310  15.198  34.523  14.992
    1STR   O06933311  15.324  34.655  15.090
    1STR   C07033312  15.282  34.777  15.030
    1STR   H07133313  15.312  34.779  14.925
    1STR   C07233314  15.129  34.790  15.041
    1STR   H07333315  15.096  34.783  15.145
    1STR   H07433316  15.076  34.714  14.984
    1STR   H07533317  15.096  34.887  15.002
    1STR   C07633318  15.353  34.892  15.102
    1STR   H07733319  15.324  34.894  15.207
    1STR   H07833320  15.461  34.875  15.098
    1STR   O07933321  15.321  35.016  15.038
    1STR   C08033322  15.378  35.132  15.098
    1STR   H08133323  15.369  35.126  15.207
    1STR   C08233324  15.525  35.145  15.057
    1STR   H08333325  15.536  35.146  14.949
    1STR   H08433326  15.586  35.064  15.096
    1STR   H08533327  15.568  35.238  15.096
    1STR   C08633328  15.295  35.253  15.052
    1STR   H08733329  15.302  35.263  14.943
    1STR   H08833330  15.190  35.236  15.076
    1STR   O08933331  15.343  35.371  15.117
    1STR   C09033332  15.277  35.491  15.079
    1STR   H09133333  15.263  35.494  14.970
    1STR   C09233334  15.142  35.502  15.150
    1STR   H09333335  15.154  35.495  15.258
    1STR   H09433336  15.072  35.424  15.118
    1STR   H09533337  15.094  35.598  15.129
    1STR   C09633338  15.370  35.608  15.117
    1STR   H09733339  15.386  35.609  15.225
    1STR   H09833340  15.468  35.592  15.071
    1STR   O09933341  15.313  35.731  15.072
    1STR   C10033342  15.388  35.847  15.105
    1STR   H10133343  15.424  35.842  15.208
    1STR   C10233344  15.506  35.863  15.008
    1STR   H10333345  15.472  35.864  14.905
    1STR   H10433346  15.579  35.782  15.019
    1STR   H10533347  15.559  35.956  15.027
    1STR   C10633348  15.292  35.967  15.096
    1STR   H10733349  15.255  35.977  14.994
    1STR   H10833350  15.206  35.948  15.160
    1STR   O10933351  15.360  36.086  15.137
    1STR   C11033352  15.283  36.205  15.129
    1STR   H11133353  15.226  36.208  15.036
    1STR   C11233354  15.187  36.214  15.249
    1STR   H11333355  15.241  36.206  15.343
    1STR   H11433356  15.112  36.135  15.248
    1STR   H11533357  15.133  36.309  15.249
    1STR   C11633358  15.381  36.323  15.128
    1STR   H11733359  15.439  36.325  15.221
    1STR   H11833360  15.452  36.309  15.046
    1STR   O11933361  15.309  36.445  15.111
    1STR   C12033362  15.389  36.563  15.112
    1STR   H12133363  15.463  36.558  15.191
    1STR   C12233364  15.459  36.580  14.976
    1STR   H12333365  15.386  36.581  14.894
    1STR   H12433366  15.531  36.501  14.956
    1STR   H12533367  15.513  36.675  14.972
    1STR   C12633368  15.295  36.681  15.142
    1STR   H12733369  15.220  36.691  15.063
    1STR   H12833370  15.242  36.661  15.235
    1STR   O12933371  15.372  36.801  15.154
    1STR   C13033372  15.297  36.919  15.178
    1STR   H13133373  15.207  36.920  15.115
    1STR   C13233374  15.257  36.926  15.326
    1STR   H13333375  15.344  36.919  15.391
    1STR   H13433376  15.188  36.846  15.354
    1STR   H13533377  15.206  37.020  15.348
    1STR   C13633378  15.385  37.038  15.138
    1STR   H13733379  15.474  37.041  15.200
    1STR   H13833380  15.417  37.025  15.035
    1STR   O13933381  15.310  37.159  15.152
    1STR   C14033382  15.382  37.278  15.122
    1STR   H14133383  15.482  37.274  15.165
    1STR   C14233384  15.391  37.297  14.969
    1STR   H14333385  15.292  37.296  14.924
    1STR   H14433386  15.450  37.219  14.922
    1STR   H14533387  15.438  37.392  14.945
    1STR   C14633388  15.306  37.395  15.188
    1STR   H14733389  15.206  37.403  15.146
    1STR   H14833390  15.295  37.374  15.294
    1STR   O14933391  15.379  37.516  15.169
    1STR   C15033392  15.318  37.633  15.222
    1STR   H15133393  15.211  37.633  15.200
    1STR   C15233394  15.340  37.639  15.374
    1STR   H15333395  15.446  37.634  15.398
    1STR   H15433396  15.290  37.558  15.426
    1STR   H15533397  15.301  37.732  15.415
    1STR   C15633398  15.381  37.754  15.151
    1STR   H15733399  15.488  37.758  15.172
    1STR   H15833400  15.370  37.741  15.043
    1STR   O15933401  15.316  37.873  15.194
    1STR   C16033402  15.368  37.993  15.139
    1STR   H16133403  15.477  37.991  15.138
    1STR   C16233404  15.315  38.012  14.995
    1STR   H16333405  15.206  38.010  14.993
    1STR   H16433406  15.352  37.935  14.928
    1STR   H16533407  15.347  38.108  14.955
    1STR   C16633408  15.324  38.109  15.230
    1STR   H16733409  15.215  38.115  15.231
    1STR   H16833410  15.356  38.087  15.332
    1STR   O16933411  15.381  38.231  15.184
    1STR   C17033412  15.345  38.347  15.258
    1STR   H17133413  15.238  38.345  15.280
    1STR   C17233414  15.426  38.353  15.388
    1STR   H17333415  15.533  38.350  15.368
    1STR   H17433416  15.402  38.271  15.456
    1STR   H17533417  15.405  38.446  15.442
    1STR   C17633418  15.372  38.469  15.168
    1STR   H17733419  15.479  38.474  15.145
    1STR   H17833420  15.319  38.456  15.074
    1STR   O17933421  15.328  38.587  15.235
    1STR   C18033422  15.352  38.708  15.164
    1STR   H18133423  15.452  38.707  15.120
    1STR   C18233424  15.246  38.726  15.054
    1STR   H18333425  15.145  38.722  15.095
    1STR   H18433426  15.254  38.649  14.976
    1STR   H18533427  15.258  38.822  15.004
    1STR   C18633428  15.346  38.823  15.266
    1STR   H18733429  15.246  38.827  15.311
    1STR   H18833430  15.416  38.802  15.347
    1STR   O18933431  15.378  38.946  15.202
    1STR   C19033432  15.372  39.061  15.285
    1STR   H19133433  15.283  39.057  15.348
    1STR   C19233434  15.498  39.069  15.372
    1STR   H19333435  15.589  39.068  15.311
    1STR   H19433436  15.505  38.987  15.443
    1STR   H19533437  15.499  39.161  15.430
    1STR   C19633438  15.360  39.183  15.193
    1STR   H19733439  15.448  39.191  15.129
    1STR   H19833440  15.274  39.170  15.127
    1STR   O19933441  15.344  39.301  15.272
    1STR   C20033442  15.335  39.423  15.198
    1STR   H20133443  15.409  39.424  15.118
    1STR   C20233444  15.194  39.438  15.140
    1STR   H20333445  15.118  39.433  15.218
    1STR   H20433446  15.171  39.362  15.066
    1STR   H20533447  15.183  39.535  15.090
    1STR   C20633448  15.369  39.537  15.295
    1STR   H20733449  15.296  39.540  15.376
    1STR   H20833450  15.466  39.518  15.340
    1STR   O20933451  15.371  39.661  15.224
    1STR   C21033452  15.397  39.776  15.303
    1STR   H21133453  15.341  39.771  15.397
    1STR   C21233454  15.548  39.786  15.333
    1STR   H21333455  15.606  39.786  15.241
    1STR   H21433456  15.583  39.704  15.395
    1STR   H21533457  15.570  39.878  15.386
    1STR   C21633458  15.347  39.898  15.225
    1STR   H21733459  15.403  39.907  15.131
    1STR   H21833460  15.243  39.884  15.199
    1STR   O21933461  15.363  40.016  15.304
    1STR   C22033462  15.323  40.138  15.241
    1STR   H22133463  15.359  40.140  15.138
    1STR   C22233464  15.170  40.151  15.244
    1STR   H22333465  15.132  40.143  15.346
    1STR   H22433466  15.121  40.074  15.184
    1STR   H22533467  15.139  40.247  15.203
    1STR   C22633468  15.391  40.253  15.317
    1STR   H22733469  15.357  40.255  15.420
    1STR   H22833470  15.499  40.235  15.319
    1STR   O22933471  15.362  40.377  15.252
    1STR   C23033472  15.417  40.493  15.315
    1STR   H23133473  15.403  40.487  15.423
    1STR   C23233474  15.566  40.505  15.281
    1STR   H23333475  15.583  40.505  15.174
    1STR   H23433476  15.625  40.423  15.324
    1STR   H23533477  15.607  40.597  15.322
    1STR   C23633478  15.338  40.615  15.263
    1STR   H23733479  15.350  40.624  15.155
    1STR   H23833480  15.232  40.598  15.282
    1STR   O23933481  15.382  40.733  15.330
    1STR   C24033482  15.319  40.854  15.289
    1STR   H24133483  15.310  40.857  15.180
    1STR   C24233484  15.180  40.863  15.354
    1STR   H24333485  15.186  40.855  15.462
    1STR   H24433486  15.112  40.786  15.318
    1STR   H24533487  15.133  40.959  15.330
    1STR   C24633488  15.409  40.971  15.332
    1STR   H24733489  15.419  40.972  15.441
    1STR   H24833490  15.509  40.955  15.291
    1STR   O24933491  15.354  41.095  15.286
    1STR   C25033492  15.428  41.212  15.322
    1STR   H25133493  15.458  41.206  15.427
    1STR   C25233494  15.551  41.225  15.232
    1STR   H25333495  15.523  41.225  15.126
    1STR   H25433496  15.623  41.144  15.247
    1STR   H25533497  15.604  41.318  15.252
    1STR   C25633498  15.334  41.333  15.307
    1STR   H25733499  15.302  41.343  15.203
    1STR   H25833500  15.244  41.315  15.367
    1STR   O25933501  15.400  41.453  15.350
    1STR   C26033502  15.323  41.573  15.340
    1STR   H26133503  15.272  41.576  15.243
    1STR   C26233504  15.221  41.579  15.454
    1STR   H26333505  15.270  41.570  15.551
    1STR   H26433506  15.146  41.500  15.447
    1STR   H26533507  15.167  41.674  15.453
    1STR   C26633508  15.420  41.693  15.345
    1STR   H26733509  15.473  41.693  15.441
    1STR   H26833510  15.495  41.680  15.267
    1STR   O26933511  15.350  41.817  15.327
    1STR   C27033512  15.430  41.935  15.330
    1STR   H27133513  15.500  41.930  15.413
    1STR   C27233514  15.507  41.949  15.198
    1STR   H27333515  15.439  41.947  15.112
    1STR   H27433516  15.580  41.869  15.184
    1STR   H27533517  15.562  42.043  15.194
    1STR   C27633518  15.337  42.057  15.353
    1STR   H27733519  15.266  42.065  15.271
    1STR   H27833520  15.280  42.039  15.444
    1STR   O27933521  15.413  42.179  15.365
    1STR   C28033522  15.336  42.299  15.389
    1STR   H28133523  15.250  42.301  15.322
    1STR   C28233524  15.289  42.301  15.535
    1STR   H28333525  15.373  42.291  15.604
    1STR   H28433526  15.218  42.221  15.557
    1STR   H28533527  15.238  42.395  15.557
    1STR   C28633528  15.424  42.423  15.357
    1STR   H28733529  15.512  42.424  15.422
    1STR   H28833530  15.462  42.412  15.255
    1STR   O28933531  15.351  42.546  15.371
    1STR   C29033532  15.421  42.667  15.341
    1STR   H29133533  15.519  42.665  15.390
    1STR   C29233534  15.440  42.679  15.189
    1STR   H29333535  15.345  42.673  15.137
    1STR   H29433536  15.505  42.601  15.149
    1STR   H29533537  15.486  42.775  15.163
    1STR   C29633538  15.342  42.789  15.397
    1STR   H29733539  15.243  42.790  15.352
    1STR   H29833540  15.328  42.774  15.504
    1STR   O29933541  15.408  42.915  15.372
    1STR   C30033542  15.341  43.033  15.420
    1STR   H30133543  15.235  43.026  15.397
    1STR   C30233544  15.361  43.043  15.572
    1STR   H30333545  15.467  43.039  15.598
    1STR   H30433546  15.311  42.963  15.625
    1STR   H30533547  15.321  43.137  15.610
    1STR   C30633548  15.395  43.160  15.347
    1STR   H30733549  15.497  43.181  15.380
    1STR   H30833550  15.402  43.134  15.241
    1STR   O30933551  15.312  43.277  15.364
    1STR    H1R33552  15.454  43.421  15.319
    1STR    H1S33553  15.359  43.467  15.087
    1STR    H1T33554  15.238  43.343  15.115
    1STR    H1U33555  15.410  43.302  15.104
    1STR    H1V33556  15.268  43.536  15.441
    1STR    H1W33557  15.157  43.501  15.310
    1STR    H1X33558  15.390  43.826  15.206
    1STR    H1Y33559  15.469  44.032  15.204
    1STR    H1Z33560  15.467  44.253  15.104
    1STR    H2033561  15.235  44.368  14.854
    1STR    H2133562  15.244  44.453  15.009
    1STR    H2233563  15.390  44.392  14.931
    1STR    H2333564  15.001  44.143  14.872
    1STR    H2733565  15.066  43.963  15.064
    1STR    H2833566  15.458  31.413  15.007
    1STR    H2933567  15.496  31.178  15.039
    1STR    H2A33568  15.242  30.923  15.089
    1STR    H2B33569  15.408  30.972  15.116
    1STR    H2C33570  15.360  30.917  14.956
    1STR   BCK133571  14.899  30.931  29.987
    1STR    O0333572  14.801  30.916  30.059
    1STR    N0433573  14.943  31.051  29.945
    1STR    C0533574  14.859  31.161  29.919
    1STR    C0633575  14.885  31.294  29.968
    1STR    C0733576  14.802  31.405  29.931
    1STR    N0833577  14.830  31.538  29.974
    1STR    C0933578  14.766  31.654  29.945
    1STR    O0A33579  14.664  31.661  29.877
    1STR    O0B33580  14.824  31.766  29.998
    1STR    C0C33581  14.760  31.894  29.978
    1STR    C0D33582  14.647  31.911  30.081
    1STR    C0E33583  14.857  32.015  29.982
    1STR    O0F33584  14.783  32.135  29.952
    1STR    C0G33585  14.857  32.258  29.946
    1STR    C0H33586  14.931  32.266  29.811
    1STR    C0I33587  14.760  32.378  29.961
    1STR    O0J33588  14.833  32.501  29.963
    1STR    C0K33589  14.984  43.383  29.622
    1STR    C0M33590  14.904  43.388  29.753
    1STR    C0N33591  15.081  43.504  29.612
    1STR    O0O33592  15.013  43.624  29.571
    1STR    C0P33593  14.998  43.730  29.654
    1STR    O0Q33594  15.037  43.737  29.770
    1STR    N0R33595  14.927  43.825  29.592
    1STR    C0S33596  14.862  43.937  29.644
    1STR    C0T33597  14.722  43.940  29.631
    1STR    C0U33598  14.647  44.044  29.687
    1STR    C0V33599  14.710  44.152  29.752
    1STR    C0W33600  14.621  44.247  29.832
    1STR    C0X33601  14.852  44.160  29.753
    1STR    N0Y33602  14.917  44.269  29.813
    1STR   BCK233603  14.906  44.401  29.791
    1STR    O1033604  14.958  44.480  29.869
    1STR    C1333605  14.927  44.049  29.704
    1STR    C1433606  14.692  31.377  29.847
    1STR    C1533607  14.668  31.249  29.796
    1STR    C1633608  14.752  31.142  29.828
    1STR    C1733609  14.727  31.010  29.757
    1STR    H1B33610  15.035  31.053  29.904
    1STR    H1C33611  14.969  31.309  30.034
    1STR    H1D33612  14.910  31.553  30.034
    1STR    H1E33613  14.715  31.896  29.878
    1STR    H1F33614  14.685  31.914  30.183
    1STR    H1G33615  14.592  32.004  30.064
    1STR    H1H33616  14.575  31.830  30.074
    1STR    H1I33617  14.935  32.000  29.908
    1STR    H1J33618  14.904  32.023  30.079
    1STR    H1K33619  14.928  32.262  30.028
    1STR    H1M33620  14.861  32.259  29.728
    1STR    H1N33621  15.005  32.187  29.800
    1STR    H1O33622  14.983  32.361  29.802
    1STR    H1P33623  14.688  32.378  29.879
    1STR    H1Q33624  14.703  32.366  30.053
    1STR   C01033625  14.755  32.621  29.971
    1STR   H01133626  14.671  32.616  29.901
    1STR   C01233627  14.702  32.640  30.114
    1STR   H01333628  14.784  32.640  30.187
    1STR   H01433629  14.632  32.562  30.143
    1STR   H01533630  14.650  32.735  30.124
    1STR   C01633631  14.844  32.740  29.930
    1STR   H01733632  14.930  32.747  29.997
    1STR   H01833633  14.884  32.721  29.830
    1STR   O01933634  14.770  32.862  29.931
    1STR   C02033635  14.845  32.980  29.898
    1STR   H02133636  14.942  32.978  29.948
    1STR   C02233637  14.865  32.988  29.746
    1STR   H02333638  14.770  32.985  29.693
    1STR   H02433639  14.927  32.906  29.708
    1STR   H02533640  14.916  33.081  29.719
    1STR   C02633641  14.768  33.103  29.950
    1STR   H02733642  14.671  33.109  29.901
    1STR   H02833643  14.750  33.091  30.057
    1STR   O02933644  14.844  33.222  29.925
    1STR   C03033645  14.781  33.344  29.965
    1STR   H03133646  14.676  33.344  29.935
    1STR   C03233647  14.793  33.362  30.117
    1STR   H03333648  14.897  33.358  30.149
    1STR   H03433649  14.738  33.286  30.172
    1STR   H03533650  14.753  33.459  30.147
    1STR   C03633651  14.851  33.460  29.890
    1STR   H03733652  14.956  33.464  29.917
    1STR   H03833653  14.847  33.440  29.782
    1STR   O03933654  14.786  33.583  29.920
    1STR   C04033655  14.843  33.699  29.859
    1STR   H04133656  14.952  33.695  29.867
    1STR   C04233657  14.801  33.708  29.712
    1STR   H04333658  14.693  33.707  29.702
    1STR   H04433659  14.841  33.625  29.653
    1STR   H04533660  14.838  33.800  29.667
    1STR   C04633661  14.795  33.822  29.938
    1STR   H04733662  14.686  33.830  29.932
    1STR   H04833663  14.820  33.809  30.044
    1STR   O04933664  14.857  33.940  29.887
    1STR   C05033665  14.817  34.062  29.949
    1STR   H05133666  14.709  34.063  29.964
    1STR   C05233667  14.889  34.078  30.084
    1STR   H05333668  14.997  34.072  30.072
    1STR   H05433669  14.860  34.002  30.156
    1STR   H05533670  14.866  34.175  30.129
    1STR   C05633671  14.853  34.177  29.853
    1STR   H05733672  14.961  34.180  29.837
    1STR   H05833673  14.806  34.158  29.756
    1STR   O05933674  14.807  34.301  29.907
    1STR   C06033675  14.837  34.416  29.829
    1STR   H06133676  14.940  34.411  29.792
    1STR   C06233677  14.739  34.427  29.711
    1STR   H06333678  14.636  34.427  29.746
    1STR   H06433679  14.750  34.345  29.641
    1STR   H06533680  14.756  34.519  29.656
    1STR   C06633681  14.826  34.538  29.922
    1STR   H06733682  14.724  34.548  29.960
    1STR   H06833683  14.891  34.523  30.008
    1STR   O06933684  14.865  34.656  29.851
    1STR   C07033685  14.855  34.777  29.925
    1STR   H07133686  14.762  34.780  29.982
    1STR   C07233687  14.975  34.791  30.019
    1STR   H07333688  15.069  34.784  29.965
    1STR   H07433689  14.976  34.714  30.097
    1STR   H07533690  14.974  34.887  30.070
    1STR   C07633691  14.851  34.893  29.823
    1STR   H07733692  14.943  34.894  29.765
    1STR   H07833693  14.769  34.875  29.753
    1STR   O07933694  14.832  35.016  29.892
    1STR   C08033695  14.830  35.132  29.809
    1STR   H08133696  14.910  35.126  29.734
    1STR   C08233697  14.694  35.145  29.740
    1STR   H08333698  14.613  35.147  29.813
    1STR   H08433699  14.675  35.064  29.670
    1STR   H08533700  14.688  35.238  29.683
    1STR   C08633701  14.860  35.253  29.899
    1STR   H08733702  14.781  35.263  29.974
    1STR   H08833703  14.953  35.236  29.952
    1STR   O08933704  14.868  35.371  29.819
    1STR   C09033705  14.891  35.492  29.891
    1STR   H09133706  14.828  35.494  29.981
    1STR   C09233707  15.039  35.502  29.930
    1STR   H09333708  15.104  35.495  29.842
    1STR   H09433709  15.069  35.425  30.000
    1STR   H09533710  15.060  35.598  29.978
    1STR   C09633711  14.848  35.608  29.800
    1STR   H09733712  14.910  35.609  29.710
    1STR   H09833713  14.745  35.592  29.768
    1STR   O09933714  14.860  35.731  29.872
    1STR   C10033715  14.827  35.848  29.797
    1STR   H10133716  14.870  35.842  29.697
    1STR   C10233717  14.675  35.863  29.788
    1STR   H10333718  14.630  35.864  29.888
    1STR   H10433719  14.628  35.782  29.732
    1STR   H10533720  14.648  35.956  29.739
    1STR   C10633721  14.892  35.967  29.869
    1STR   H10733722  14.850  35.977  29.969
    1STR   H10833723  14.999  35.949  29.880
    1STR   O10933724  14.870  36.086  29.793
    1STR   C11033725  14.921  36.205  29.850
    1STR   H11133726  14.900  36.208  29.957
    1STR   C11233727  15.073  36.214  29.827
    1STR   H11333728  15.097  36.206  29.721
    1STR   H11433729  15.127  36.135  29.879
    1STR   H11533730  15.112  36.309  29.863
    1STR   C11633731  14.848  36.323  29.785
    1STR   H11733732  14.868  36.325  29.678
    1STR   H11833733  14.740  36.309  29.797
    1STR   O11933734  14.889  36.445  29.846
    1STR   C12033735  14.831  36.563  29.792
    1STR   H12133736  14.830  36.558  29.683
    1STR   C12233737  14.688  36.580  29.845
    1STR   H12333738  14.686  36.581  29.954
    1STR   H12433739  14.621  36.501  29.811
    1STR   H12533740  14.645  36.675  29.811
    1STR   C12633741  14.921  36.681  29.832
    1STR   H12733742  14.923  36.691  29.941
    1STR   H12833743  15.023  36.661  29.800
    1STR   O12933744  14.872  36.801  29.772
    1STR   C13033745  14.944  36.919  29.805
    1STR   H13133746  14.967  36.920  29.912
    1STR   C13233747  15.074  36.926  29.723
    1STR   H13333748  15.053  36.919  29.616
    1STR   H13433749  15.143  36.845  29.748
    1STR   H13533750  15.126  37.020  29.741
    1STR   C13633751  14.852  37.038  29.775
    1STR   H13733752  14.828  37.041  29.669
    1STR   H13833753  14.758  37.025  29.829
    1STR   O13933754  14.917  37.159  29.815
    1STR   C14033755  14.843  37.278  29.789
    1STR   H14133756  14.799  37.274  29.689
    1STR   C14233757  14.734  37.297  29.895
    1STR   H14333758  14.776  37.296  29.996
    1STR   H14433759  14.658  37.219  29.890
    1STR   H14533760  14.682  37.392  29.881
    1STR   C14633761  14.944  37.395  29.791
    1STR   H14733762  14.989  37.403  29.890
    1STR   H14833763  15.024  37.374  29.721
    1STR   O14933764  14.877  37.516  29.756
    1STR   C15033765  14.958  37.633  29.758
    1STR   H15133766  15.022  37.633  29.847
    1STR   C15233767  15.044  37.639  29.631
    1STR   H15333768  14.982  37.634  29.541
    1STR   H15433769  15.117  37.558  29.626
    1STR   H15533770  15.100  37.732  29.627
    1STR   C15633771  14.864  37.753  29.768
    1STR   H15733772  14.799  37.758  29.680
    1STR   H15833773  14.799  37.741  29.855
    1STR   O15933774  14.940  37.873  29.780
    1STR   C16033775  14.865  37.993  29.786
    1STR   H16133776  14.784  37.991  29.712
    1STR   C16233777  14.807  38.012  29.927
    1STR   H16333778  14.886  38.010  30.002
    1STR   H16433779  14.734  37.935  29.952
    1STR   H16533780  14.756  38.108  29.936
    1STR   C16633781  14.959  38.109  29.748
    1STR   H16733782  15.041  38.115  29.821
    1STR   H16833783  15.004  38.087  29.651
    1STR   O16933784  14.886  38.231  29.744
    1STR   C17033785  14.963  38.347  29.714
    1STR   H17133786  15.057  38.345  29.769
    1STR   C17233787  14.991  38.353  29.563
    1STR   H17333788  14.898  38.350  29.505
    1STR   H17433789  15.054  38.271  29.529
    1STR   H17533790  15.042  38.446  29.537
    1STR   C17633791  14.882  38.468  29.761
    1STR   H17733792  14.788  38.474  29.706
    1STR   H17833793  14.857  38.456  29.866
    1STR   O17933794  14.959  38.587  29.742
    1STR   C18033795  14.894  38.708  29.778
    1STR   H18133796  14.791  38.707  29.743
    1STR   C18233797  14.897  38.726  29.931
    1STR   H18333798  15.000  38.722  29.969
    1STR   H18433799  14.840  38.649  29.983
    1STR   H18533800  14.855  38.822  29.960
    1STR   C18633801  14.968  38.823  29.707
    1STR   H18733802  15.071  38.827  29.741
    1STR   H18833803  14.970  38.802  29.600
    1STR   O18933804  14.900  38.946  29.733
    1STR   C19033805  14.961  39.061  29.675
    1STR   H19133806  15.069  39.057  29.689
    1STR   C19233807  14.927  39.069  29.525
    1STR   H19333808  14.819  39.068  29.510
    1STR   H19433809  14.970  38.986  29.469
    1STR   H19533810  14.965  39.161  29.482
    1STR   C19633811  14.908  39.183  29.751
    1STR   H19733812  14.799  39.191  29.739
    1STR   H19833813  14.927  39.170  29.858
    1STR   O19933814  14.973  39.301  29.704
    1STR   C20033815  14.929  39.422  29.764
    1STR   H20133816  14.820  39.423  29.773
    1STR   C20233817  14.994  39.438  29.902
    1STR   H20333818  15.103  39.433  29.896
    1STR   H20433819  14.961  39.362  29.972
    1STR   H20533820  14.969  39.535  29.946
    1STR   C20633821  14.970  39.537  29.670
    1STR   H20733822  15.078  39.540  29.659
    1STR   H20833823  14.928  39.517  29.570
    1STR   O20933824  14.920  39.660  29.721
    1STR   C21033825  14.954  39.776  29.644
    1STR   H21133826  15.059  39.771  29.613
    1STR   C21233827  14.863  39.786  29.521
    1STR   H21333828  14.758  39.786  29.550
    1STR   H21433829  14.879  39.703  29.451
    1STR   H21533830  14.883  39.878  29.466
    1STR   C21633831  14.938  39.898  29.736
    1STR   H21733832  14.834  39.907  29.768
    1STR   H21833833  14.998  39.883  29.826
    1STR   O21933834  14.980  40.015  29.667
    1STR   C22033835  14.966  40.137  29.740
    1STR   H22133836  14.870  40.139  29.792
    1STR   C22233837  15.081  40.150  29.842
    1STR   H22333838  15.178  40.143  29.792
    1STR   H22433839  15.078  40.073  29.919
    1STR   H22533840  15.077  40.246  29.892
    1STR   C22633841  14.968  40.252  29.639
    1STR   H22733842  15.063  40.254  29.586
    1STR   H22833843  14.890  40.234  29.564
    1STR   O22933844  14.945  40.376  29.706
    1STR   C23033845  14.948  40.491  29.623
    1STR   H23133846  15.031  40.486  29.553
    1STR   C23233847  14.815  40.504  29.547
    1STR   H23333848  14.730  40.505  29.615
    1STR   H23433849  14.800  40.422  29.476
    1STR   H23533850  14.812  40.596  29.489
    1STR   C23633851  14.971  40.613  29.714
    1STR   H23733852  14.889  40.623  29.785
    1STR   H23833853  15.062  40.596  29.772
    1STR   O23933854  14.984  40.731  29.635
    1STR   C24033855  15.003  40.852  29.708
    1STR   H24133856  14.936  40.855  29.794
    1STR   C24233857  15.149  40.862  29.755
    1STR   H24333858  15.218  40.854  29.671
    1STR   H24433859  15.175  40.784  29.827
    1STR   H24533860  15.167  40.958  29.803
    1STR   C24633861  14.965  40.969  29.615
    1STR   H24733862  15.032  40.970  29.528
    1STR   H24833863  14.864  40.953  29.578
    1STR   O24933864  14.974  41.092  29.686
    1STR   C25033865  14.945  41.209  29.610
    1STR   H25133866  14.993  41.203  29.512
    1STR   C25233867  14.792  41.223  29.593
    1STR   H25333868  14.742  41.223  29.689
    1STR   H25433869  14.750  41.142  29.533
    1STR   H25533870  14.768  41.316  29.542
    1STR   C25633871  15.004  41.329  29.685
    1STR   H25733872  14.957  41.339  29.783
    1STR   H25833873  15.110  41.311  29.702
    1STR   O25933874  14.985  41.448  29.608
    1STR   C26033875  15.034  41.568  29.668
    1STR   H26133876  15.007  41.571  29.774
    1STR   C26233877  15.187  41.575  29.653
    1STR   H26333878  15.216  41.567  29.548
    1STR   H26433879  15.238  41.497  29.709
    1STR   H26533880  15.225  41.670  29.691
    1STR   C26633881  14.965  41.687  29.598
    1STR   H26733882  14.991  41.688  29.492
    1STR   H26833883  14.857  41.674  29.605
    1STR   O26933884  15.004  41.810  29.660
    1STR   C27033885  14.948  41.928  29.603
    1STR   H27133886  14.952  41.923  29.494
    1STR   C27233887  14.802  41.943  29.649
    1STR   H27333888  14.794  41.943  29.757
    1STR   H27433889  14.738  41.864  29.610
    1STR   H27533890  14.760  42.038  29.613
    1STR   C27633891  15.033  42.049  29.648
    1STR   H27733892  15.030  42.057  29.757
    1STR   H27833893  15.137  42.030  29.621
    1STR   O27933894  14.986  42.169  29.587
    1STR   C28033895  15.057  42.288  29.623
    1STR   H28133896  15.075  42.290  29.730
    1STR   C28233897  15.191  42.293  29.547
    1STR   H28333898  15.176  42.284  29.440
    1STR   H28433899  15.259  42.213  29.578
    1STR   H28533900  15.243  42.387  29.566
    1STR   C28633901  14.969  42.410  29.587
    1STR   H28733902  14.950  42.412  29.479
    1STR   H28833903  14.873  42.399  29.636
    1STR   O28933904  15.032  42.533  29.627
    1STR   C29033905  14.960  42.653  29.600
    1STR   H29133906  14.921  42.650  29.498
    1STR   C29233907  14.844  42.668  29.700
    1STR   H29333908  14.880  42.664  29.802
    1STR   H29433909  14.769  42.590  29.688
    1STR   H29533910  14.793  42.763  29.686
    1STR   C29633911  15.057  42.773  29.609
    1STR   H29733912  15.100  42.777  29.710
    1STR   H29833913  15.140  42.755  29.541
    1STR   O29933914  14.992  42.897  29.577
    1STR   C30033915  15.074  43.015  29.584
    1STR   H30133916  15.135  43.012  29.674
    1STR   C30233917  15.165  43.020  29.460
    1STR   H30333918  15.106  43.014  29.368
    1STR   H30433919  15.238  42.940  29.458
    1STR   H30533920  15.221  43.114  29.457
    1STR   C30633921  14.983  43.140  29.592
    1STR   H30733922  14.924  43.148  29.501
    1STR   H30833923  14.912  43.124  29.674
    1STR   O30933924  15.059  43.260  29.615
    1STR    H1R33925  14.916  43.387  29.536
    1STR    H1S33926  14.856  43.485  29.765
    1STR    H1T33927  14.970  43.374  29.839
    1STR    H1U33928  14.826  43.312  29.758
    1STR    H1V33929  15.156  43.483  29.535
    1STR    H1W33930  15.136  43.518  29.705
    1STR    H1X33931  14.905  43.799  29.497
    1STR    H1Y33932  14.670  43.858  29.583
    1STR    H1Z33933  14.539  44.040  29.683
    1STR    H2033934  14.611  44.208  29.934
    1STR    H2133935  14.660  44.347  29.842
    1STR    H2233936  14.522  44.254  29.789
    1STR    H2333937  14.983  44.248  29.886
    1STR    H2733938  15.035  44.049  29.712
    1STR    H2833939  14.622  31.452  29.815
    1STR    H2933940  14.584  31.235  29.729
    1STR    H2A33941  14.821  30.967  29.723
    1STR    H2B33942  14.664  31.023  29.670
    1STR    H2C33943  14.678  30.940  29.825
    1STR   BCK133944  14.982  30.940  45.110
    1STR    O0333945  15.070  30.871  45.161
    1STR    N0433946  14.959  31.070  45.141
    1STR    C0533947  15.015  31.156  45.240
    1STR    C0633948  15.034  31.296  45.214
    1STR    C0733949  15.084  31.389  45.311
    1STR    N0833950  15.096  31.528  45.284
    1STR    C0933951  15.123  31.632  45.367
    1STR    O0A33952  15.143  31.621  45.487
    1STR    O0B33953  15.126  31.755  45.303
    1STR    C0C33954  15.162  31.875  45.377
    1STR    C0D33955  15.316  31.886  45.386
    1STR    C0E33956  15.102  32.005  45.316
    1STR    O0F33957  15.140  32.122  45.390
    1STR    C0G33958  15.085  32.248  45.346
    1STR    C0H33959  14.939  32.259  45.395
    1STR    C0I33960  15.168  32.368  45.400
    1STR    O0J33961  15.115  32.492  45.349
    1STR    C0K33962  14.773  43.390  45.475
    1STR    C0M33963  14.922  43.388  45.438
    1STR    C0N33964  14.702  43.508  45.402
    1STR    O0O33965  14.752  43.636  45.443
    1STR    C0P33966  14.756  43.741  45.357
    1STR    O0Q33967  14.726  43.736  45.238
    1STR    N0R33968  14.798  43.852  45.420
    1STR    C0S33969  14.828  43.982  45.376
    1STR    C0T33970  14.886  44.068  45.471
    1STR    C0U33971  14.930  44.197  45.434
    1STR    C0V33972  14.917  44.244  45.302
    1STR    C0W33973  14.987  44.374  45.268
    1STR    C0X33974  14.850  44.164  45.205
    1STR    N0Y33975  14.838  44.200  45.069
    1STR   BCK233976  14.805  44.308  44.995
    1STR    O1033977  14.803  44.296  44.873
    1STR    C1333978  14.809  44.033  45.244
    1STR    C1433979  15.120  31.335  45.436
    1STR    C1533980  15.100  31.200  45.466
    1STR    C1633981  15.045  31.111  45.372
    1STR    C1733982  15.014  30.972  45.423
    1STR    H1B33983  14.891  31.112  45.080
    1STR    H1C33984  15.008  31.333  45.116
    1STR    H1D33985  15.081  31.560  45.189
    1STR    H1E33986  15.123  31.867  45.479
    1STR    H1F33987  15.361  31.895  45.287
    1STR    H1G33988  15.345  31.973  45.444
    1STR    H1H33989  15.359  31.798  45.435
    1STR    H1I33990  14.993  31.995  45.316
    1STR    H1J33991  15.133  32.015  45.212
    1STR    H1K33992  15.088  32.252  45.237
    1STR    H1M33993  14.933  32.252  45.503
    1STR    H1N33994  14.875  32.182  45.352
    1STR    H1O33995  14.896  32.355  45.366
    1STR    H1P33996  15.166  32.369  45.509
    1STR    H1Q33997  15.272  32.357  45.369
    1STR   C01033998  15.177  32.613  45.395
    1STR   H01133999  15.192  32.609  45.503
    1STR   C01234000  15.312  32.632  45.324
    1STR   H01334001  15.301  32.632  45.216
    1STR   H01434002  15.384  32.555  45.350
    1STR   H01534003  15.357  32.728  45.352
    1STR   C01634004  15.083  32.733  45.365
    1STR   H01734005  15.064  32.739  45.258
    1STR   H01834006  14.987  32.715  45.413
    1STR   O01934007  15.139  32.856  45.412
    1STR   C02034008  15.062  32.974  45.386
    1STR   H02134009  15.025  32.972  45.283
    1STR   C02234010  14.944  32.983  45.484
    1STR   H02334011  14.978  32.981  45.587
    1STR   H02434012  14.873  32.901  45.470
    1STR   H02534013  14.888  33.076  45.469
    1STR   C02634014  15.153  33.099  45.399
    1STR   H02734015  15.192  33.105  45.501
    1STR   H02834016  15.238  33.088  45.332
    1STR   O02934017  15.080  33.218  45.367
    1STR   C03034018  15.152  33.341  45.380
    1STR   H03134019  15.210  33.340  45.473
    1STR   C03234020  15.246  33.359  45.260
    1STR   H03334021  15.191  33.356  45.166
    1STR   H03434022  15.324  33.283  45.256
    1STR   H03534023  15.296  33.456  45.265
    1STR   C03634024  15.051  33.457  45.389
    1STR   H03734025  14.991  33.461  45.297
    1STR   H03834026  14.982  33.437  45.471
    1STR   O03934027  15.119  33.581  45.410
    1STR   C04034028  15.036  33.697  45.415
    1STR   H04134029  14.961  33.693  45.336
    1STR   C04234030  14.967  33.706  45.552
    1STR   H04334031  15.040  33.705  45.633
    1STR   H04434032  14.898  33.624  45.569
    1STR   H04534033  14.910  33.798  45.561
    1STR   C04634034  15.125  33.820  45.390
    1STR   H04734035  15.201  33.828  45.468
    1STR   H04834036  15.177  33.807  45.295
    1STR   O04934037  15.044  33.938  45.386
    1STR   C05034038  15.115  34.061  45.367
    1STR   H05134039  15.205  34.062  45.429
    1STR   C05234040  15.153  34.077  45.219
    1STR   H05334041  15.065  34.071  45.155
    1STR   H05434042  15.224  34.000  45.186
    1STR   H05534043  15.201  34.173  45.202
    1STR   C05634044  15.025  34.176  45.414
    1STR   H05734045  14.934  34.179  45.354
    1STR   H05834046  14.994  34.157  45.517
    1STR   O05934047  15.095  34.299  45.405
    1STR   C06034048  15.020  34.415  45.442
    1STR   H06134049  14.920  34.410  45.400
    1STR   C06234050  15.013  34.426  45.595
    1STR   H06334051  15.112  34.427  45.639
    1STR   H06434052  14.956  34.344  45.639
    1STR   H06534053  14.963  34.518  45.625
    1STR   C06634054  15.091  34.538  45.381
    1STR   H06734055  15.192  34.547  45.422
    1STR   H06834056  15.101  34.523  45.273
    1STR   O06934057  15.015  34.655  45.407
    1STR   C07034058  15.072  34.777  45.360
    1STR   H07134059  15.179  34.779  45.381
    1STR   C07234060  15.047  34.790  45.208
    1STR   H07334061  14.941  34.783  45.185
    1STR   H07434062  15.099  34.714  45.151
    1STR   H07534063  15.083  34.887  45.172
    1STR   C07634064  15.006  34.892  45.437
    1STR   H07734065  14.899  34.894  45.418
    1STR   H07834066  15.019  34.875  45.544
    1STR   O07934067  15.066  35.016  45.399
    1STR   C08034068  15.011  35.132  45.461
    1STR   H08134069  14.902  35.126  45.463
    1STR   C08234070  15.065  35.145  45.605
    1STR   H08334071  15.174  35.146  45.606
    1STR   H08434072  15.032  35.063  45.669
    1STR   H08534073  15.031  35.238  45.651
    1STR   C08634074  15.051  35.253  45.375
    1STR   H08734075  15.160  35.263  45.373
    1STR   H08834076  15.018  35.236  45.273
    1STR   O08934077  14.990  35.371  45.428
    1STR   C09034078  15.022  35.491  45.360
    1STR   H09134079  15.129  35.494  45.336
    1STR   C09234080  14.939  35.502  45.231
    1STR   H09334081  14.833  35.495  45.252
    1STR   H09434082  14.965  35.424  45.159
    1STR   H09534083  14.957  35.598  45.182
    1STR   C09634084  14.992  35.608  45.456
    1STR   H09734085  14.886  35.609  45.480
    1STR   H09834086  15.047  35.592  45.549
    1STR   O09934087  15.032  35.731  45.395
    1STR   C10034088  15.006  35.847  45.472
    1STR   H10134089  14.906  35.842  45.517
    1STR   C10234090  15.112  35.863  45.582
    1STR   H10334091  15.213  35.864  45.539
    1STR   H10434092  15.108  35.782  45.655
    1STR   H10534093  15.098  35.956  45.636
    1STR   C10634094  15.006  35.967  45.376
    1STR   H10734095  15.105  35.977  45.330
    1STR   H10834096  14.935  35.949  45.295
    1STR   O10934097  14.971  36.086  45.447
    1STR   C11034098  14.972  36.205  45.369
    1STR   H11134099  15.061  36.208  45.305
    1STR   C11234100  14.844  36.214  45.284
    1STR   H11334101  14.755  36.207  45.347
    1STR   H11434102  14.839  36.135  45.210
    1STR   H11534103  14.840  36.309  45.231
    1STR   C11634104  14.982  36.323  45.467
    1STR   H11734105  14.895  36.325  45.533
    1STR   H11834106  15.070  36.309  45.531
    1STR   O11934107  14.993  36.445  45.394
    1STR   C12034108  14.999  36.563  45.474
    1STR   H12134109  14.926  36.558  45.555
    1STR   C12234110  15.141  36.580  45.531
    1STR   H12334111  15.215  36.581  45.452
    1STR   H12434112  15.167  36.501  45.601
    1STR   H12534113  15.149  36.675  45.585
    1STR   C12634114  14.961  36.681  45.383
    1STR   H12734115  15.033  36.691  45.302
    1STR   H12834116  14.864  36.661  45.338
    1STR   O12934117  14.956  36.801  45.461
    1STR   C13034118  14.925  36.919  45.388
    1STR   H13134119  14.980  36.920  45.293
    1STR   C13234120  14.774  36.926  45.361
    1STR   H13334121  14.717  36.919  45.454
    1STR   H13434122  14.740  36.845  45.295
    1STR   H13534123  14.747  37.020  45.312
    1STR   C13634124  14.972  37.038  45.472
    1STR   H13734125  14.918  37.041  45.567
    1STR   H13834126  15.078  37.025  45.496
    1STR   O13934127  14.952  37.159  45.399
    1STR   C14034128  14.988  37.278  45.467
    1STR   H14134129  14.954  37.274  45.571
    1STR   C14234130  15.141  37.297  45.463
    1STR   H14334131  15.178  37.296  45.361
    1STR   H14434132  15.193  37.219  45.518
    1STR   H14534133  15.169  37.392  45.508
    1STR   C14634134  14.916  37.395  45.398
    1STR   H14734135  14.949  37.403  45.294
    1STR   H14834136  14.809  37.374  45.396
    1STR   O14934137  14.942  37.516  45.469
    1STR   C15034138  14.883  37.633  45.413
    1STR   H15134139  14.896  37.633  45.304
    1STR   C15234140  14.734  37.639  45.448
    1STR   H15334141  14.719  37.634  45.556
    1STR   H15434142  14.677  37.558  45.403
    1STR   H15534143  14.690  37.732  45.413
    1STR   C15634144  14.959  37.753  45.469
    1STR   H15734145  14.948  37.758  45.578
    1STR   H15834146  15.066  37.741  45.449
    1STR   O15934147  14.911  37.873  45.409
    1STR   C16034148  14.971  37.993  45.456
    1STR   H16134149  14.980  37.991  45.564
    1STR   C16234150  15.109  38.012  45.390
    1STR   H16334151  15.101  38.010  45.282
    1STR   H16434152  15.179  37.935  45.421
    1STR   H16534153  15.152  38.108  45.419
    1STR   C16634154  14.876  38.109  45.419
    1STR   H16734155  14.865  38.115  45.311
    1STR   H16834156  14.777  38.087  45.460
    1STR   O16934157  14.926  38.231  45.473
    1STR   C17034158  14.849  38.346  45.442
    1STR   H17134159  14.818  38.345  45.338
    1STR   C17234160  14.726  38.353  45.535
    1STR   H17334161  14.756  38.350  45.639
    1STR   H17434162  14.657  38.271  45.517
    1STR   H17534163  14.671  38.446  45.518
    1STR   C17634164  14.941  38.468  45.462
    1STR   H17734165  14.973  38.474  45.566
    1STR   H17834166  15.031  38.456  45.401
    1STR   O17934167  14.871  38.587  45.424
    1STR   C18034168  14.944  38.708  45.441
    1STR   H18134169  14.996  38.707  45.537
    1STR   C18234170  15.044  38.726  45.326
    1STR   H18334171  14.994  38.722  45.229
    1STR   H18434172  15.122  38.649  45.327
    1STR   H18534173  15.095  38.822  45.334
    1STR   C18634174  14.841  38.823  45.444
    1STR   H18734175  14.788  38.827  45.349
    1STR   H18834176  14.767  38.802  45.521
    1STR   O18934177  14.908  38.946  45.471
    1STR   C19034178  14.825  39.061  45.472
    1STR   H19134179  14.754  39.057  45.389
    1STR   C19234180  14.749  39.069  45.606
    1STR   H19334181  14.818  39.068  45.690
    1STR   H19434182  14.679  38.986  45.618
    1STR   H19534183  14.691  39.161  45.612
    1STR   C19634184  14.916  39.183  45.452
    1STR   H19734185  14.987  39.191  45.534
    1STR   H19834186  14.974  39.170  45.361
    1STR   O19934187  14.835  39.301  45.443
    1STR   C20034188  14.908  39.422  45.428
    1STR   H20134189  14.994  39.424  45.495
    1STR   C20234190  14.954  39.438  45.282
    1STR   H20334191  14.869  39.433  45.214
    1STR   H20434192  15.026  39.362  45.253
    1STR   H20534193  15.002  39.535  45.267
    1STR   C20634194  14.814  39.537  45.470
    1STR   H20734195  14.727  39.540  45.404
    1STR   H20834196  14.778  39.518  45.571
    1STR   O20934197  14.886  39.660  45.466
    1STR   C21034198  14.809  39.776  45.499
    1STR   H21134199  14.711  39.771  45.451
    1STR   C21234200  14.793  39.786  45.652
    1STR   H21334201  14.890  39.786  45.701
    1STR   H21434202  14.734  39.703  45.692
    1STR   H21534203  14.742  39.878  45.679
    1STR   C21634204  14.883  39.898  45.442
    1STR   H21734205  14.981  39.907  45.489
    1STR   H21834206  14.899  39.883  45.336
    1STR   O21934207  14.805  40.015  45.465
    1STR   C22034208  14.865  40.137  45.420
    1STR   H22134209  14.971  40.139  45.447
    1STR   C22234210  14.848  40.150  45.268
    1STR   H22334211  14.743  40.143  45.239
    1STR   H22434212  14.903  40.073  45.213
    1STR   H22534213  14.886  40.246  45.233
    1STR   C22634214  14.795  40.252  45.494
    1STR   H22734215  14.689  40.254  45.469
    1STR   H22834216  14.802  40.235  45.601
    1STR   O22934217  14.857  40.376  45.459
    1STR   C23034218  14.799  40.492  45.519
    1STR   H23134219  14.690  40.486  45.515
    1STR   C23234220  14.845  40.504  45.665
    1STR   H23334221  14.954  40.505  45.672
    1STR   H23434222  14.808  40.422  45.727
    1STR   H23534223  14.809  40.597  45.710
    1STR   C23634224  14.844  40.613  45.436
    1STR   H23734225  14.952  40.623  45.439
    1STR   H23834226  14.816  40.597  45.332
    1STR   O23934227  14.781  40.731  45.486
    1STR   C24034228  14.816  40.852  45.419
    1STR   H24134229  14.924  40.855  45.401
    1STR   C24234230  14.740  40.862  45.286
    1STR   H24334231  14.632  40.855  45.302
    1STR   H24434232  14.769  40.785  45.216
    1STR   H24534233  14.759  40.958  45.238
    1STR   C24634234  14.781  40.969  45.513
    1STR   H24734235  14.673  40.970  45.533
    1STR   H24834236  14.830  40.954  45.609
    1STR   O24934237  14.823  41.093  45.455
    1STR   C25034238  14.793  41.210  45.531
    1STR   H25134239  14.691  41.204  45.571
    1STR   C25234240  14.894  41.223  45.646
    1STR   H25334241  14.996  41.224  45.609
    1STR   H25434242  14.885  41.143  45.719
    1STR   H25534243  14.878  41.317  45.700
    1STR   C25634244  14.800  41.331  45.436
    1STR   H25734245  14.900  41.340  45.395
    1STR   H25834246  14.733  41.313  45.352
    1STR   O25934247  14.762  41.450  45.505
    1STR   C26034248  14.766  41.570  45.428
    1STR   H26134249  14.857  41.573  45.368
    1STR   C26234250  14.643  41.577  45.336
    1STR   H26334251  14.551  41.568  45.393
    1STR   H26434252  14.643  41.498  45.261
    1STR   H26534253  14.640  41.672  45.283
    1STR   C26634254  14.770  41.689  45.526
    1STR   H26734255  14.679  41.690  45.587
    1STR   H26834256  14.854  41.676  45.594
    1STR   O26934257  14.782  41.812  45.454
    1STR   C27034258  14.786  41.931  45.534
    1STR   H27134259  14.709  41.926  45.611
    1STR   C27234260  14.924  41.945  45.599
    1STR   H27334261  15.003  41.944  45.524
    1STR   H27434262  14.945  41.866  45.670
    1STR   H27534263  14.932  42.039  45.653
    1STR   C27634264  14.754  42.052  45.443
    1STR   H27734265  14.829  42.060  45.365
    1STR   H27834266  14.659  42.033  45.393
    1STR   O27934267  14.747  42.173  45.520
    1STR   C28034268  14.718  42.292  45.446
    1STR   H28134269  14.778  42.294  45.354
    1STR   C28234270  14.569  42.296  45.411
    1STR   H28334271  14.507  42.286  45.500
    1STR   H28434272  14.541  42.216  45.342
    1STR   H28534273  14.543  42.390  45.362
    1STR   C28634274  14.759  42.414  45.532
    1STR   H28734275  14.701  42.416  45.624
    1STR   H28834276  14.863  42.403  45.560
    1STR   O28934277  14.740  42.537  45.459
    1STR   C29034278  14.775  42.658  45.529
    1STR   H29134279  14.735  42.655  45.630
    1STR   C29234280  14.928  42.671  45.533
    1STR   H29334281  14.971  42.667  45.433
    1STR   H29434282  14.975  42.593  45.593
    1STR   H29534283  14.957  42.767  45.578
    1STR   C29634284  14.710  42.778  45.455
    1STR   H29734285  14.747  42.782  45.353
    1STR   H29834286  14.603  42.760  45.450
    1STR   O29934287  14.737  42.903  45.522
    1STR   C30034288  14.679  43.020  45.461
    1STR   H30134289  14.694  43.015  45.353
    1STR   C30234290  14.529  43.025  45.493
    1STR   H30334291  14.511  43.020  45.601
    1STR   H30434292  14.474  42.943  45.446
    1STR   H30534293  14.485  43.118  45.457
    1STR   C30634294  14.751  43.148  45.512
    1STR   H30734295  14.732  43.161  45.619
    1STR   H30834296  14.859  43.131  45.502
    1STR   O30934297  14.711  43.265  45.439
    1STR    H1R34298  14.761  43.405  45.583
    1STR    H1S34299  14.968  43.485  45.457
    1STR    H1T34300  14.935  43.365  45.333
    1STR    H1U34301  14.979  43.316  45.496
    1STR    H1V34302  14.595  43.506  45.423
    1STR    H1W34303  14.711  43.495  45.294
    1STR    H1X34304  14.813  43.832  45.517
    1STR    H1Y34305  14.901  44.036  45.573
    1STR    H1Z34306  14.979  44.258  45.509
    1STR    H2034307  15.031  44.369  45.168
    1STR    H2134308  14.918  44.458  45.273
    1STR    H2234309  15.068  44.395  45.338
    1STR    H2334310  14.853  44.123  45.006
    1STR    H2734311  14.763  43.969  45.170
    1STR    H2834312  15.163  31.396  45.515
    1STR    H2934313  15.126  31.165  45.565
    1STR    H2A34314  14.926  30.930  45.375
    1STR    H2B34315  14.995  30.973  45.531
    1STR    H2C34316  15.100  30.906  45.407
    1STR   BCK134317  14.961  45.984  59.987
    1STR    O0334318  14.902  45.990  59.880
    1STR    N0434319  15.032  46.086  60.040
    1STR    C0534320  15.090  46.194  59.970
    1STR    C0634321  15.056  46.331  59.992
    1STR    C0734322  15.124  46.438  59.925
    1STR    N0834323  15.094  46.575  59.948
    1STR    C0934324  15.126  46.684  59.875
    1STR    O0A34325  15.181  46.679  59.765
    1STR    O0B34326  15.091  46.803  59.934
    1STR    C0C34327  15.116  46.928  59.865
    1STR    C0D34328  15.006  46.950  59.759
    1STR    C0E34329  15.125  47.050  59.961
    1STR    O0F34330  15.149  47.171  59.886
    1STR    C0G34331  15.159  47.293  59.960
    1STR    C0H34332  15.298  47.302  60.025
    1STR    C0I34333  15.136  47.414  59.867
    1STR    O0J34334  15.139  47.537  59.941
    1STR    C0K34335  15.437  58.430  60.045
    1STR    C0M34336  15.305  58.405  59.972
    1STR    C0N34337  15.424  58.563  60.126
    1STR    O0O34338  15.411  58.675  60.037
    1STR    C0P34339  15.329  58.782  60.061
    1STR    O0Q34340  15.250  58.793  60.154
    1STR    N0R34341  15.353  58.876  59.968
    1STR    C0S34342  15.309  59.007  59.942
    1STR    C0T34343  15.403  59.087  59.877
    1STR    C0U34344  15.373  59.219  59.840
    1STR    C0V34345  15.247  59.276  59.867
    1STR    C0W34346  15.233  59.422  59.831
    1STR    C0X34347  15.146  59.198  59.931
    1STR    N0Y34348  15.019  59.248  59.970
    1STR   BCK234349  14.927  59.344  59.941
    1STR    O1034350  14.832  59.355  60.018
    1STR    C1334351  15.181  59.064  59.970
    1STR    C1434352  15.230  46.402  59.838
    1STR    C1534353  15.266  46.268  59.817
    1STR    C1634354  15.198  46.164  59.884
    1STR    C1734355  15.248  46.022  59.865
    1STR    H1B34356  15.064  46.072  60.134
    1STR    H1C34357  14.976  46.354  60.060
    1STR    H1D34358  15.040  46.598  60.030
    1STR    H1E34359  15.212  46.921  59.814
    1STR    H1F34360  14.908  46.958  59.805
    1STR    H1G34361  15.025  47.042  59.703
    1STR    H1H34362  15.004  46.868  59.687
    1STR    H1I34363  15.206  47.034  60.032
    1STR    H1J34364  15.033  47.060  60.018
    1STR    H1K34365  15.082  47.296  60.038
    1STR    H1M34366  15.377  47.297  59.950
    1STR    H1N34367  15.316  47.222  60.097
    1STR    H1O34368  15.310  47.396  60.078
    1STR    H1P34369  15.212  47.416  59.788
    1STR    H1Q34370  15.039  47.403  59.817
    1STR   C01034371  15.124  47.658  59.866
    1STR   H01134372  15.186  47.654  59.776
    1STR   C01234373  14.977  47.677  59.826
    1STR   H01334374  14.912  47.677  59.914
    1STR   H01434375  14.942  47.600  59.758
    1STR   H01534376  14.962  47.773  59.775
    1STR   C01634377  15.173  47.777  59.952
    1STR   H01734378  15.114  47.784  60.043
    1STR   H01834379  15.276  47.758  59.982
    1STR   O01934380  15.165  47.900  59.879
    1STR   C02034381  15.204  48.018  59.950
    1STR   H02134382  15.162  48.016  60.051
    1STR   C02234383  15.357  48.026  59.957
    1STR   H02334384  15.401  48.024  59.857
    1STR   H02434385  15.400  47.944  60.015
    1STR   H02534386  15.389  48.119  60.005
    1STR   C02634387  15.146  48.142  59.878
    1STR   H02734388  15.186  48.148  59.777
    1STR   H02834389  15.038  48.130  59.869
    1STR   O02934390  15.177  48.260  59.951
    1STR   C03034391  15.133  48.383  59.892
    1STR   H03134392  15.153  48.383  59.785
    1STR   C03234393  14.982  48.401  59.918
    1STR   H03334394  14.959  48.398  60.024
    1STR   H03434395  14.922  48.325  59.868
    1STR   H03534396  14.948  48.498  59.880
    1STR   C03634397  15.214  48.499  59.955
    1STR   H03734398  15.195  48.503  60.062
    1STR   H03834399  15.320  48.479  59.941
    1STR   O03934400  15.178  48.622  59.893
    1STR   C04034401  15.243  48.738  59.945
    1STR   H04134402  15.244  48.735  60.054
    1STR   C04234403  15.386  48.747  59.890
    1STR   H04334404  15.386  48.746  59.781
    1STR   H04434405  15.448  48.665  59.925
    1STR   H04534406  15.434  48.839  59.922
    1STR   C04634407  15.160  48.861  59.904
    1STR   H04734408  15.156  48.869  59.795
    1STR   H04834409  15.057  48.848  59.938
    1STR   O04934410  15.216  48.979  59.961
    1STR   C05034411  15.151  49.101  59.927
    1STR   H05134412  15.127  49.103  59.820
    1STR   C05234413  15.023  49.117  60.010
    1STR   H05334414  15.045  49.112  60.117
    1STR   H05434415  14.949  49.041  59.987
    1STR   H05534416  14.976  49.214  59.991
    1STR   C05634417  15.250  49.216  59.954
    1STR   H05734418  15.276  49.219  60.060
    1STR   H05834419  15.342  49.198  59.899
    1STR   O05934420  15.192  49.340  59.912
    1STR   C06034421  15.272  49.456  59.936
    1STR   H06134422  15.317  49.451  60.035
    1STR   C06234423  15.381  49.466  59.828
    1STR   H06334424  15.337  49.467  59.728
    1STR   H06434425  15.452  49.384  59.833
    1STR   H06534426  15.438  49.559  59.840
    1STR   C06634427  15.179  49.578  59.933
    1STR   H06734428  15.132  49.587  59.835
    1STR   H06834429  15.098  49.563  60.005
    1STR   O06934430  15.253  49.696  59.965
    1STR   C07034431  15.179  49.817  59.962
    1STR   H07134432  15.114  49.820  59.874
    1STR   C07234433  15.095  49.830  60.090
    1STR   H07334434  15.157  49.824   0.019
    1STR   H07434435  15.018  49.754  60.097
    1STR   H07534436  15.044  49.927  60.093
    1STR   C07634437  15.279  49.933  59.949
    1STR   H07734438  15.345  49.934  60.036
    1STR   H07834439  15.342  49.915  59.862
    1STR   O07934440  15.209  50.056  59.936
    1STR   C08034441  15.292  50.172  59.928
    1STR   H08134442  15.373  50.166  60.000
    1STR   C08234443  15.349  50.185  59.785
    1STR   H08334444  15.269  50.186  59.711
    1STR   H08434445  15.417  50.104  59.761
    1STR   H08534446  15.405  50.278  59.775
    1STR   C08634447  15.204  50.293  59.964
    1STR   H08734448  15.123  50.303  59.893
    1STR   H08834449  15.159  50.276  60.062
    1STR   O08934450  15.285  50.411  59.966
    1STR   C09034451  15.215  50.532  59.995
    1STR   H09134452  15.120  50.534  59.940
    1STR   C09234453  15.189  50.542  60.146
    1STR   H09334454  15.282  50.535   0.043
    1STR   H09434455  15.122  50.465   0.022
    1STR   H09534456  15.143  50.638   0.011
    1STR   C09634457  15.302  50.648  59.945
    1STR   H09734458  15.397  50.649  59.998
    1STR   H09834459  15.325  50.632  59.839
    1STR   O09934460  15.232  50.771  59.963
    1STR   C10034461  15.303  50.887  59.923
    1STR   H10134462  15.407  50.882  59.957
    1STR   C10234463  15.299  50.903  59.771
    1STR   H10334464  15.196  50.904  59.734
    1STR   H10434465  15.351  50.822  59.719
    1STR   H10534466  15.346  50.996  59.740
    1STR   C10634467  15.237  51.007  59.994
    1STR   H10734468  15.134  51.017  59.961
    1STR   H10834469  15.235  50.989  60.101
    1STR   O10934470  15.311  51.126  59.965
    1STR   C11034471  15.258  51.245  60.022
    1STR   H11134472  15.150  51.248  60.010
    1STR   C11234473  15.295  51.254   0.011
    1STR   H11334474  15.403  51.247   0.025
    1STR   H11434475  15.249  51.175   0.069
    1STR   H11534476  15.263  51.349   0.053
    1STR   C11634477  15.317  51.363  59.943
    1STR   H11734478  15.426  51.365  59.953
    1STR   H11834479  15.296  51.349  59.837
    1STR   O11934480  15.260  51.485  59.989
    1STR   C12034481  15.309  51.603  59.927
    1STR   H12134482  15.418  51.598  59.916
    1STR   C12234483  15.244  51.620  59.789
    1STR   H12334484  15.135  51.621  59.796
    1STR   H12434485  15.272  51.541  59.719
    1STR   H12534486  15.274  51.715  59.743
    1STR   C12634487  15.276  51.721  60.019
    1STR   H12734488  15.168  51.731  60.031
    1STR   H12834489  15.317  51.701  60.118
    1STR   O12934490  15.332  51.841  59.966
    1STR   C13034491  15.305  51.959  60.041
    1STR   H13134492  15.201  51.960  60.073
    1STR   C13234493  15.399  51.965   0.003
    1STR   H13334494  15.503  51.959  60.133
    1STR   H13434495  15.379  51.885   0.074
    1STR   H13534496  15.385  52.060   0.056
    1STR   C13634497  15.328  52.078  59.947
    1STR   H13734498  15.431  52.081  59.913
    1STR   H13834499  15.266  52.065  59.858
    1STR   O13934500  15.293  52.199  60.014
    1STR   C14034501  15.313  52.318  59.939
    1STR   H14134502  15.408  52.314  59.886
    1STR   C14234503  15.197  52.337  59.839
    1STR   H14334504  15.101  52.336  59.890
    1STR   H14434505  15.196  52.259  59.763
    1STR   H14534506  15.207  52.432  59.786
    1STR   C14634507  15.319  52.435  60.039
    1STR   H14734508  15.225  52.443  60.093
    1STR   H14834509  15.397  52.414  60.113
    1STR   O14934510  15.348  52.556  59.969
    1STR   C15034511  15.353  52.673  60.050
    1STR   H15134512  15.271  52.673  60.121
    1STR   C15234513  15.488  52.679  60.125
    1STR   H15334514  15.571  52.674  60.055
    1STR   H15434515  15.499  52.598   0.037
    1STR   H15534516  15.496  52.772   0.021
    1STR   C15634517  15.335  52.793  59.957
    1STR   H15734518  15.417  52.798  59.885
    1STR   H15834519  15.243  52.781  59.900
    1STR   O15934520  15.330  52.913  60.034
    1STR   C16034521  15.318  53.033  59.959
    1STR   H16134522  15.384  53.031  59.873
    1STR   C16234523  15.172  53.052  59.914
    1STR   H16334524  15.104  53.050  59.999
    1STR   H16434525  15.141  52.975  59.844
    1STR   H16534526  15.159  53.148  59.864
    1STR   C16634527  15.363  53.149  60.050
    1STR   H16734528  15.298  53.155  60.138
    1STR   H16834529  15.464  53.127  60.087
    1STR   O16934530  15.362  53.271  59.977
    1STR   C17034531  15.398  53.387  60.051
    1STR   H17134532  15.351  53.385  60.149
    1STR   C17234533  15.551  53.393  60.066
    1STR   H17334534  15.600  53.390  59.968
    1STR   H17434535  15.590  53.311  60.125
    1STR   H17534536  15.581  53.486  60.115
    1STR   C17634537  15.344  53.509  59.974
    1STR   H17734538  15.390  53.514  59.876
    1STR   H17834539  15.237  53.496  59.959
    1STR   O17934540  15.370  53.627  60.050
    1STR   C18034541  15.328  53.748  59.988
    1STR   H18134542  15.354  53.747  59.882
    1STR   C18234543  15.176  53.766  60.005
    1STR   H18334544  15.148  53.762  60.110
    1STR   H18434545  15.119  53.689  59.952
    1STR   H18534546  15.144  53.862  59.966
    1STR   C18634547  15.405  53.863  60.055
    1STR   H18734548  15.381  53.867   0.001
    1STR   H18834549  15.512  53.842  60.048
    1STR   O18934550  15.374  53.986  59.990
    1STR   C19034551  15.437  54.101  60.046
    1STR   H19134552  15.432  54.097  60.155
    1STR   C19234553  15.583  54.109  59.998
    1STR   H19334554  15.589  54.108  59.889
    1STR   H19434555  15.643  54.026  60.036
    1STR   H19534556  15.629  54.201  60.033
    1STR   C19634557  15.356  54.223  59.999
    1STR   H19734558  15.359  54.231  59.890
    1STR   H19834559  15.252  54.210  60.027
    1STR   O19934560  15.409  54.341  60.060
    1STR   C20034561  15.345  54.463  60.022
    1STR   H20134562  15.327  54.464  59.914
    1STR   C20234563  15.213  54.478  60.099
    1STR   H20334564  15.229  54.473   0.046
    1STR   H20434565  15.140  54.402  60.071
    1STR   H20534566  15.167  54.575  60.077
    1STR   C20634567  15.443  54.577  60.054
    1STR   H20734568  15.463  54.580   0.001
    1STR   H20834569  15.538  54.558  60.005
    1STR   O20934570  15.387  54.701  60.009
    1STR   C21034571  15.467  54.816  60.037
    1STR   H21134572  15.507  54.811  60.138
    1STR   C21234573  15.581  54.826  59.935
    1STR   H21334574  15.544  54.826  59.833
    1STR   H21434575  15.652  54.744  59.945
    1STR   H21534576  15.638  54.918  59.950
    1STR   C21634577  15.374  54.938  60.028
    1STR   H21734578  15.333  54.947  59.928
    1STR   H21834579  15.289  54.923  60.096
    1STR   O21934580  15.446  55.056  60.064
    1STR   C22034581  15.372  55.177  60.057
    1STR   H22134582  15.312  55.180  59.966
    1STR   C22234583  15.281  55.190   0.021
    1STR   H22334584  15.339  55.183   0.113
    1STR   H22434585  15.204  55.114   0.023
    1STR   H22534586  15.230  55.287   0.021
    1STR   C22634587  15.473  55.293  60.050
    1STR   H22734588  15.535  55.295  60.140
    1STR   H22834589  15.541  55.275  59.966
    1STR   O22934590  15.404  55.416  60.033
    1STR   C23034591  15.487  55.532  60.028
    1STR   H23134592  15.565  55.527  60.105
    1STR   C23234593  15.552  55.544  59.889
    1STR   H23334594  15.476  55.545  59.811
    1STR   H23434595  15.621  55.463  59.868
    1STR   H23534596  15.608  55.637  59.881
    1STR   C23634597  15.398  55.654  60.059
    1STR   H23734598  15.320  55.664  59.984
    1STR   H23834599  15.348  55.638  60.155
    1STR   O23934600  15.479  55.772  60.065
    1STR   C24034601  15.407  55.893  60.090
    1STR   H24134602  15.316  55.896  60.031
    1STR   C24234603  15.374  55.903   0.080
    1STR   H24334604  15.464  55.895   0.141
    1STR   H24434605  15.304  55.825   0.112
    1STR   H24534606  15.327  55.999   0.103
    1STR   C24634607  15.497  56.010  60.045
    1STR   H24734608  15.589  56.011  60.103
    1STR   H24834609  15.525  55.995  59.941
    1STR   O24934610  15.427  56.134  60.060
    1STR   C25034611  15.500  56.251  60.024
    1STR   H25134612  15.602  56.245  60.063
    1STR   C25234613  15.503  56.264  59.871
    1STR   H25334614  15.403  56.265  59.829
    1STR   H25434615  15.559  56.184  59.823
    1STR   H25534616  15.551  56.358  59.841
    1STR   C25634617  15.431  56.372  60.089
    1STR   H25734618  15.329  56.382  60.051
    1STR   H25834619  15.423  56.355   0.036
    1STR   O25934620  15.505  56.492  60.063
    1STR   C26034621  15.450  56.612  60.118
    1STR   H26134622  15.342  56.615  60.100
    1STR   C26234623  15.479  56.618   0.109
    1STR   H26334624  15.585  56.609   0.129
    1STR   H26434625  15.428  56.540   0.164
    1STR   H26534626  15.445  56.713   0.150
    1STR   C26634627  15.513  56.732  60.044
    1STR   H26734628  15.621  56.732  60.060
    1STR   H26834629  15.497  56.719  59.937
    1STR   O26934630  15.456  56.855  60.088
    1STR   C27034631  15.507  56.974  60.027
    1STR   H27134632  15.616  56.969  60.022
    1STR   C27234633  15.449  56.988  59.885
    1STR   H27334634  15.340  56.986  59.887
    1STR   H27434635  15.482  56.908  59.819
    1STR   H27534636  15.480  57.082  59.840
    1STR   C27634637  15.469  57.096  60.115
    1STR   H27734638  15.361  57.104  60.122
    1STR   H27834639  15.506  57.077   0.056
    1STR   O27934640  15.525  57.217  60.063
    1STR   C28034641  15.497  57.337  60.137
    1STR   H28134642  15.391  57.339   0.005
    1STR   C28234643  15.584  57.339   0.104
    1STR   H28334644  15.690  57.329   0.080
    1STR   H28434645  15.558  57.259   0.174
    1STR   H28534646  15.571  57.433   0.158
    1STR   C28634647  15.525  57.460  60.048
    1STR   H28734648  15.630  57.461  60.019
    1STR   H28834649  15.467  57.450  59.957
    1STR   O28934650  15.491  57.583  60.115
    1STR   C29034651  15.511  57.704  60.041
    1STR   H29134652  15.610  57.702  59.993
    1STR   C29234653  15.402  57.717  59.933
    1STR   H29334654  15.303  57.711  59.977
    1STR   H29434655  15.409  57.639  59.857
    1STR   H29534656  15.410  57.813  59.881
    1STR   C29634657  15.508  57.826  60.137
    1STR   H29734658  15.412  57.829   0.029
    1STR   H29834659  15.584  57.811   0.054
    1STR   O29934660  15.531  57.951  60.069
    1STR   C30034661  15.527  58.070  60.149
    1STR   H30134662  15.443  58.065   0.058
    1STR   C30234663  15.659  58.081   0.068
    1STR   H30334664  15.745  58.075   0.002
    1STR   H30434665  15.669  58.001   0.142
    1STR   H30534666  15.664  58.175   0.122
    1STR   C30634667  15.506  58.194  60.057
    1STR   H30734668  15.595  58.211  59.996
    1STR   H30834669  15.427  58.167  59.987
    1STR   O30934670  15.470  58.316  60.127
    1STR    H1R34671  15.518  58.444  59.972
    1STR    H1S34672  15.273  58.494  59.918
    1STR    H1T34673  15.226  58.381  60.043
    1STR    H1U34674  15.311  58.325  59.899
    1STR    H1V34675  15.514  58.578   0.026
    1STR    H1W34676  15.341  58.558   0.037
    1STR    H1X34677  15.427  58.842  59.909
    1STR    H1Y34678  15.502  59.050  59.855
    1STR    H1Z34679  15.450  59.278  59.793
    1STR    H2034680  15.181  59.430  59.735
    1STR    H2134681  15.179  59.476  59.909
    1STR    H2234682  15.329  59.471  59.820
    1STR    H2334683  14.979  59.195  60.046
    1STR    H2734684  15.108  59.002  60.021
    1STR    H2834685  15.288  46.476  59.785
    1STR    H2934686  15.348  46.246  59.751
    1STR    H2A34687  15.262  45.974  59.962
    1STR    H2B34688  15.343  46.019  59.812
    1STR    H2C34689  15.175  45.964  59.808
    1STR   BCK134690  14.893  45.971  14.972
    1STR    O0334691  14.895  45.919  15.083
    1STR    N0434692  14.876  46.103  14.950
    1STR    C0534693  14.816  46.200  15.034
    1STR    C0634694  14.866  46.335  15.042
    1STR    C0734695  14.798  46.438  15.116
    1STR    N0834696  14.842  46.573  15.118
    1STR    C0934697  14.770  46.685  15.147
    1STR    O0A34698  14.650  46.685  15.171
    1STR    O0B34699  14.845  46.800  15.147
    1STR    C0C34700  14.785  46.925  15.190
    1STR    C0D34701  14.796  46.936  15.343
    1STR    C0E34702  14.846  47.050  15.121
    1STR    O0F34703  14.778  47.170  15.165
    1STR    C0G34704  14.819  47.294  15.104
    1STR    C0H34705  14.758  47.304  14.963
    1STR    C0I34706  14.773  47.414  15.191
    1STR    O0J34707  14.820  47.537  15.134
    1STR    C0K34708  14.638  58.409  14.801
    1STR    C0M34709  14.699  58.416  14.942
    1STR    C0N34710  14.683  58.530  14.717
    1STR    O0O34711  14.619  58.649  14.764
    1STR    C0P34712  14.684  58.767  14.772
    1STR    O0Q34713  14.801  58.787  14.741
    1STR    N0R34714  14.601  58.857  14.824
    1STR    C0S34715  14.621  58.989  14.866
    1STR    C0T34716  14.540  59.032  14.973
    1STR    C0U34717  14.556  59.159  15.030
    1STR    C0V34718  14.651  59.249  14.978
    1STR    C0W34719  14.677  59.378  15.054
    1STR    C0X34720  14.727  59.214  14.864
    1STR    N0Y34721  14.823  59.303  14.815
    1STR   BCK234722  14.809  59.426  14.762
    1STR    O1034723  14.907  59.499  14.749
    1STR    C1334724  14.714  59.082  14.811
    1STR    C1434725  14.683  46.399  15.188
    1STR    C1534726  14.632  46.269  15.180
    1STR    C1634727  14.694  46.171  15.101
    1STR    C1734728  14.621  46.039  15.086
    1STR    H1B34729  14.900  46.132  14.857
    1STR    H1C34730  14.956  46.360  14.988
    1STR    H1D34731  14.937  46.593  15.095
    1STR    H1E34732  14.679  46.925  15.164
    1STR    H1F34733  14.900  46.940  15.376
    1STR    H1G34734  14.747  47.027  15.379
    1STR    H1H34735  14.747  46.852  15.393
    1STR    H1I34736  14.836  47.039  15.013
    1STR    H1J34737  14.952  47.058  15.144
    1STR    H1K34738  14.928  47.297  15.098
    1STR    H1M34739  14.650  47.297  14.967
    1STR    H1N34740  14.795  47.226  14.897
    1STR    H1O34741  14.784  47.400  14.918
    1STR    H1P34742  14.665  47.415  15.199
    1STR    H1Q34743  14.812  47.402  15.292
    1STR   C01034744  14.780  47.658  15.200
    1STR   H01134745  14.673  47.654  15.225
    1STR   C01234746  14.862  47.677  15.329
    1STR   H01334747  14.968  47.677  15.308
    1STR   H01434748  14.842  47.600  15.403
    1STR   H01534749  14.837  47.773  15.376
    1STR   C01634750  14.801  47.777  15.104
    1STR   H01734751  14.907  47.784  15.076
    1STR   H01834752  14.746  47.758  15.012
    1STR   O01934753  14.758  47.900  15.164
    1STR   C02034754  14.777  48.018  15.084
    1STR   H02134755  14.876  48.016  15.038
    1STR   C02234756  14.669  48.026  14.976
    1STR   H02334757  14.569  48.024  15.019
    1STR   H02434758  14.676  47.944  14.904
    1STR   H02534759  14.678  48.119  14.919
    1STR   C02634760  14.771  48.142  15.177
    1STR   H02734761  14.674  48.148  15.225
    1STR   H02834762  14.845  48.130  15.256
    1STR   O02934763  14.798  48.261  15.102
    1STR   C03034764  14.791  48.383  15.175
    1STR   H03134765  14.703  48.383  15.240
    1STR   C03234766  14.919  48.401  15.258
    1STR   H03334767  15.008  48.398  15.195
    1STR   H03434768  14.929  48.325  15.335
    1STR   H03534769  14.918  48.498  15.308
    1STR   C03634770  14.773  48.499  15.074
    1STR   H03734771  14.859  48.503  15.007
    1STR   H03834772  14.686  48.479  15.012
    1STR   O03934773  14.758  48.622  15.144
    1STR   C04034774  14.745  48.738  15.062
    1STR   H04134775  14.818  48.735  14.980
    1STR   C04234776  14.603  48.747  15.005
    1STR   H04334777  14.529  48.746  15.085
    1STR   H04434778  14.580  48.665  14.938
    1STR   H04534779  14.589  48.839  14.949
    1STR   C04634780  14.778  48.861  15.148
    1STR   H04734781  14.707  48.869  15.231
    1STR   H04834782  14.877  48.848  15.192
    1STR   O04934783  14.775  48.979  15.068
    1STR   C05034784  14.800  49.102  15.137
    1STR   H05134785  14.746  49.103  15.232
    1STR   C05234786  14.951  49.117  15.162
    1STR   H05334787  15.007  49.112  15.069
    1STR   H05434788  14.990  49.041  15.229
    1STR   H05534789  14.973  49.214  15.208
    1STR   C05634790  14.746  49.217  15.050
    1STR   H05734791  14.798  49.219  14.955
    1STR   H05834792  14.641  49.198  15.028
    1STR   O05934793  14.761  49.340  15.120
    1STR   C06034794  14.717  49.456  15.049
    1STR   H06134795  14.751  49.451  14.945
    1STR   C06234796  14.564  49.467  15.054
    1STR   H06334797  14.529  49.467  15.157
    1STR   H06434798  14.515  49.385  15.002
    1STR   H06534799  14.530  49.559  15.007
    1STR   C06634800  14.784  49.578  15.114
    1STR   H06734801  14.752  49.587  15.217
    1STR   H06834802  14.892  49.563  15.115
    1STR   O06934803  14.751  49.696  15.040
    1STR   C07034804  14.804  49.817  15.092
    1STR   H07134805  14.793  49.820  15.201
    1STR   C07234806  14.952  49.830  15.054
    1STR   H07334807  14.966  49.824  14.946
    1STR   H07434808  15.014  49.754  15.101
    1STR   H07534809  14.992  49.927  15.086
    1STR   C07634810  14.721  49.933  15.034
    1STR   H07734811  14.731  49.934  14.925
    1STR   H07834812  14.616  49.915  15.056
    1STR   O07934813  14.764  50.056  15.090
    1STR   C08034814  14.697  50.172  15.041
    1STR   H08134815  14.686  50.166  14.933
    1STR   C08234816  14.559  50.185  15.108
    1STR   H08334817  14.568  50.186  15.216
    1STR   H08434818  14.493  50.104  15.080
    1STR   H08534819  14.511  50.278  15.077
    1STR   C08634820  14.787  50.293  15.073
    1STR   H08734821  14.799  50.303  15.181
    1STR   H08834822  14.886  50.276  15.031
    1STR   O08934823  14.728  50.411  15.018
    1STR   C09034824  14.799  50.532  15.044
    1STR   H09134825  14.832  50.534  15.148
    1STR   C09234826  14.921  50.542  14.950
    1STR   H09334827  14.890  50.535  14.845
    1STR   H09434828  14.995  50.465  14.969
    1STR   H09534829  14.971  50.638  14.963
    1STR   C09634830  14.701  50.648  15.022
    1STR   H09734831  14.667  50.649  14.918
    1STR   H09834832  14.613  50.632  15.085
    1STR   O09934833  14.765  50.771  15.056
    1STR   C10034834  14.686  50.888  15.036
    1STR   H10134835  14.633  50.882  14.941
    1STR   C10234836  14.586  50.903  15.152
    1STR   H10334837  14.637  50.904  15.249
    1STR   H10434838  14.513  50.823  15.154
    1STR   H10534839  14.531  50.996  15.143
    1STR   C10634840  14.782  51.007  15.029
    1STR   H10734841  14.836  51.017  15.123
    1STR   H10834842  14.856  50.989  14.951
    1STR   O10934843  14.708  51.126  15.000
    1STR   C11034844  14.786  51.245  14.994
    1STR   H11134845  14.858  51.248  15.077
    1STR   C11234846  14.859  51.254  14.860
    1STR   H11334847  14.789  51.246  14.776
    1STR   H11434848  14.933  51.175  14.848
    1STR   H11534849  14.912  51.349  14.850
    1STR   C11634850  14.689  51.363  15.013
    1STR   H11734851  14.616  51.365  14.932
    1STR   H11834852  14.633  51.349  15.105
    1STR   O11934853  14.763  51.485  15.017
    1STR   C12034854  14.684  51.603  15.030
    1STR   H12134855  14.597  51.598  14.965
    1STR   C12234856  14.639  51.620  15.176
    1STR   H12334857  14.725  51.621  15.244
    1STR   H12434858  14.572  51.541  15.208
    1STR   H12534859  14.586  51.715  15.189
    1STR   C12634860  14.771  51.721  14.984
    1STR   H12734861  14.858  51.731  15.048
    1STR   H12834862  14.807  51.701  14.883
    1STR   O12934863  14.693  51.841  14.986
    1STR   C13034864  14.763  51.959  14.949
    1STR   H13134865  14.862  51.960  14.995
    1STR   C13234866  14.777  51.966  14.796
    1STR   H13334867  14.680  51.959  14.747
    1STR   H13434868  14.839  51.886  14.756
    1STR   H13534869  14.823  52.060  14.765
    1STR   C13634870  14.684  52.078  15.004
    1STR   H13734871  14.585  52.081  14.958
    1STR   H13834872  14.669  52.065  15.111
    1STR   O13934873  14.755  52.199  14.977
    1STR   C14034874  14.689  52.318  15.019
    1STR   H14134875  14.583  52.314  14.994
    1STR   C14234876  14.707  52.337  15.171
    1STR   H14334877  14.812  52.336  15.198
    1STR   H14434878  14.657  52.259  15.228
    1STR   H14534879  14.665  52.432  15.203
    1STR   C14634880  14.752  52.435  14.941
    1STR   H14734881  14.858  52.443  14.965
    1STR   H14834882  14.745  52.414  14.834
    1STR   O14934883  14.684  52.556  14.973
    1STR   C15034884  14.735  52.673  14.909
    1STR   H15134885  14.844  52.673  14.913
    1STR   C15234886  14.686  52.679  14.764
    1STR   H15334887  14.577  52.674  14.758
    1STR   H15434888  14.726  52.598  14.703
    1STR   H15534889  14.717  52.772  14.717
    1STR   C15634890  14.685  52.793  14.990
    1STR   H15734891  14.576  52.798  14.988
    1STR   H15834892  14.714  52.781  15.094
    1STR   O15934893  14.741  52.913  14.937
    1STR   C16034894  14.700  53.033  15.000
    1STR   H16134895  14.592  53.031  15.019
    1STR   C16234896  14.776  53.052  15.132
    1STR   H16334897  14.884  53.050  15.115
    1STR   H16434898  14.752  52.975  15.205
    1STR   H16534899  14.752  53.148  15.178
    1STR   C16634900  14.727  53.149  14.902
    1STR   H16734901  14.834  53.155  14.882
    1STR   H16834902  14.678  53.127  14.808
    1STR   O16934903  14.679  53.271  14.958
    1STR   C17034904  14.702  53.387  14.878
    1STR   H17134905  14.804  53.385  14.838
    1STR   C17234906  14.600  53.393  14.764
    1STR   H17334907  14.498  53.390  14.803
    1STR   H17434908  14.611  53.311  14.693
    1STR   H17534909  14.611  53.486  14.708
    1STR   C17634910  14.691  53.508  14.971
    1STR   H17734911  14.590  53.514  15.013
    1STR   H17834912  14.759  53.496  15.055
    1STR   O17934913  14.723  53.627  14.899
    1STR   C18034914  14.712  53.748  14.972
    1STR   H18134915  14.621  53.747  15.033
    1STR   C18234916  14.835  53.766  15.063
    1STR   H18334917  14.927  53.762  15.004
    1STR   H18434918  14.841  53.689  15.140
    1STR   H18534919  14.832  53.862  15.113
    1STR   C18634920  14.700  53.863  14.870
    1STR   H18734921  14.790  53.867  14.809
    1STR   H18834922  14.616  53.842  14.803
    1STR   O18934923  14.679  53.985  14.940
    1STR   C19034924  14.671  54.101  14.856
    1STR   H19134925  14.747  54.097  14.779
    1STR   C19234926  14.531  54.109  14.792
    1STR   H19334927  14.453  54.108  14.868
    1STR   H19434928  14.512  54.026  14.724
    1STR   H19534929  14.520  54.201  14.735
    1STR   C19634930  14.699  54.223  14.945
    1STR   H19734931  14.623  54.231  15.023
    1STR   H19834932  14.795  54.210  14.995
    1STR   O19934933  14.700  54.341  14.864
    1STR   C20034934  14.722  54.462  14.935
    1STR   H20134935  14.663  54.463  15.027
    1STR   C20234936  14.871  54.478  14.968
    1STR   H20334937  14.932  54.473  14.878
    1STR   H20434938  14.906  54.402  15.037
    1STR   H20534939  14.890  54.575  15.015
    1STR   C20634940  14.672  54.577  14.846
    1STR   H20734941  14.729  54.580  14.753
    1STR   H20834942  14.568  54.557  14.818
    1STR   O20934943  14.682  54.700  14.916
    1STR   C21034944  14.642  54.816  14.843
    1STR   H21134945  14.681  54.811  14.741
    1STR   C21234946  14.489  54.826  14.840
    1STR   H21334947  14.448  54.826  14.941
    1STR   H21434948  14.443  54.743  14.785
    1STR   H21534949  14.457  54.918  14.791
    1STR   C21634950  14.705  54.938  14.912
    1STR   H21734951  14.667  54.947  15.013
    1STR   H21834952  14.813  54.923  14.919
    1STR   O21934953  14.676  55.055  14.836
    1STR   C22034954  14.726  55.176  14.891
    1STR   H22134955  14.709  55.179  14.999
    1STR   C22234956  14.876  55.190  14.862
    1STR   H22334957  14.896  55.183  14.755
    1STR   H22434958  14.935  55.113  14.912
    1STR   H22534959  14.914  55.286  14.896
    1STR   C22634960  14.646  55.292  14.828
    1STR   H22734961  14.662  55.293  14.721
    1STR   H22834962  14.539  55.274  14.845
    1STR   O22934963  14.685  55.415  14.888
    1STR   C23034964  14.621  55.531  14.835
    1STR   H23134965  14.616  55.525  14.726
    1STR   C23234966  14.480  55.543  14.894
    1STR   H23334967  14.482  55.544  15.003
    1STR   H23434968  14.415  55.462  14.863
    1STR   H23534969  14.432  55.636  14.861
    1STR   C23634970  14.708  55.652  14.872
    1STR   H23734971  14.714  55.662  14.980
    1STR   H23834972  14.809  55.635  14.835
    1STR   O23934973  14.653  55.770  14.813
    1STR   C24034974  14.722  55.891  14.843
    1STR   H24134975  14.750  55.894  14.949
    1STR   C24234976  14.848  55.901  14.756
    1STR   H24334977  14.823  55.894  14.650
    1STR   H24434978  14.921  55.824  14.779
    1STR   H24534979  14.898  55.997  14.771
    1STR   C24634980  14.625  56.007  14.816
    1STR   H24734981  14.597  56.008  14.711
    1STR   H24834982  14.534  55.991  14.874
    1STR   O24934983  14.687  56.130  14.853
    1STR   C25034984  14.609  56.247  14.830
    1STR   H25134985  14.561  56.241  14.732
    1STR   C25234986  14.503  56.262  14.940
    1STR   H25334987  14.549  56.263  15.039
    1STR   H25434988  14.430  56.181  14.938
    1STR   H25534989  14.448  56.355  14.929
    1STR   C25634990  14.705  56.367  14.828
    1STR   H25734991  14.754  56.377  14.925
    1STR   H25834992  14.783  56.349  14.754
    1STR   O25934993  14.632  56.486  14.796
    1STR   C26034994  14.710  56.606  14.794
    1STR   H26134995  14.777  56.609  14.880
    1STR   C26234996  14.790  56.614  14.663
    1STR   H26334997  14.725  56.606  14.576
    1STR   H26434998  14.865  56.535  14.656
    1STR   H26534999  14.843  56.709  14.657
    1STR   C26635000  14.612  56.724  14.807
    1STR   H26735001  14.544  56.725  14.722
    1STR   H26835002  14.551  56.710  14.896
    1STR   O26935003  14.685  56.847  14.814
    1STR   C27035004  14.605  56.965  14.824
    1STR   H27135005  14.522  56.959  14.753
    1STR   C27235006  14.552  56.981  14.967
    1STR   H27335007  14.634  56.981  15.039
    1STR   H27435008  14.483  56.901  14.995
    1STR   H27535009  14.498  57.075  14.978
    1STR   C27635010  14.694  57.084  14.783
    1STR   H27735011  14.778  57.093  14.852
    1STR   H27835012  14.735  57.065  14.684
    1STR   O27935013  14.616  57.204  14.782
    1STR   C28035014  14.688  57.323  14.748
    1STR   H28135015  14.784  57.325  14.799
    1STR   C28235016  14.710  57.329  14.596
    1STR   H28335017  14.615  57.321  14.542
    1STR   H28435018  14.775  57.249  14.561
    1STR   H28535019  14.756  57.423  14.567
    1STR   C28635020  14.606  57.444  14.797
    1STR   H28735021  14.509  57.446  14.747
    1STR   H28835022  14.586  57.432  14.903
    1STR   O28935023  14.677  57.566  14.773
    1STR   C29035024  14.610  57.686  14.812
    1STR   H29135025  14.505  57.682  14.781
    1STR   C29235026  14.619  57.702  14.965
    1STR   H29335027  14.722  57.700  14.998
    1STR   H29435028  14.565  57.624  15.018
    1STR   H29535029  14.576  57.797  14.996
    1STR   C29635030  14.677  57.804  14.739
    1STR   H29735031  14.782  57.810  14.768
    1STR   H29835032  14.674  57.784  14.632
    1STR   O29935033  14.609  57.927  14.769
    1STR   C30035034  14.664  58.044  14.707
    1STR   H30135035  14.773  58.042  14.714
    1STR   C30235036  14.622  58.049  14.560
    1STR   H30335037  14.513  58.043  14.550
    1STR   H30435038  14.665  57.967  14.501
    1STR   H30535039  14.654  58.142  14.513
    1STR   C30635040  14.614  58.168  14.784
    1STR   H30735041  14.506  58.175  14.776
    1STR   H30835042  14.636  58.153  14.890
    1STR   O30935043  14.677  58.287  14.737
    1STR    H1R35044  14.529  58.411  14.808
    1STR    H1S35045  14.677  58.512  14.989
    1STR    H1T35046  14.807  58.405  14.938
    1STR    H1U35047  14.660  58.338  15.009
    1STR    H1V35048  14.655  58.516  14.612
    1STR    H1W35049  14.792  58.539  14.718
    1STR    H1X35050  14.511  58.816  14.841
    1STR    H1Y35051  14.468  58.965  15.017
    1STR    H1Z35052  14.497  59.186  15.116
    1STR    H2035053  14.780  59.380  15.089
    1STR    H2135054  14.660  59.466  14.992
    1STR    H2235055  14.612  59.388  15.141
    1STR    H2335056  14.919  59.276  14.825
    1STR    H2735057  14.776  59.051  14.728
    1STR    H2835058  14.629  46.468  15.251
    1STR    H2935059  14.541  46.246  15.233
    1STR    H2A35060  14.631  45.999  14.985
    1STR    H2B35061  14.514  46.050  15.104
    1STR    H2C35062  14.659  45.966  15.157
    1STR   BCK135063  15.054  45.982  29.997
    1STR    O0335064  15.156  45.914  29.993
    1STR    N0435065  15.047  46.109  30.044
    1STR    C0535066  15.144  46.195  30.101
    1STR    C0635067  15.137  46.337  30.077
    1STR    C0735068  15.230  46.431  30.132
    1STR    N0835069  15.216  46.571  30.110
    1STR    C0935070  15.299  46.674  30.142
    1STR    O0A35071  15.410  46.660  30.192
    1STR    O0B35072  15.247  46.797  30.111
    1STR    C0C35073  15.325  46.917  30.132
    1STR    C0D35074  15.426  46.934  30.017
    1STR    C0E35075  15.238  47.045  30.147
    1STR    O0F35076  15.318  47.164  30.164
    1STR    C0G35077  15.248  47.288  30.182
    1STR    C0H35078  15.197  47.298  30.326
    1STR    C0I35079  15.340  47.409  30.149
    1STR    O0J35080  15.267  47.533  30.160
    1STR    C0K35081  15.153  58.437  30.475
    1STR    C0M35082  15.225  58.423  30.340
    1STR    C0N35083  15.050  58.554  30.466
    1STR    O0O35084  15.114  58.681  30.440
    1STR    C0P35085  15.055  58.779  30.364
    1STR    O0Q35086  14.951  58.768  30.301
    1STR    N0R35087  15.131  58.889  30.369
    1STR    C0S35088  15.129  59.018  30.312
    1STR    C0T35089  15.231  59.102  30.358
    1STR    C0U35090  15.251  59.230  30.303
    1STR    C0V35091  15.168  59.278  30.201
    1STR    C0W35092  15.209  59.409  30.135
    1STR    C0X35093  15.056  59.201  30.157
    1STR    N0Y35094  14.974  59.251  30.053
    1STR   BCK235095  14.919  59.374  30.039
    1STR    O1035096  14.912  59.457  30.129
    1STR    C1335097  15.040  59.069  30.212
    1STR    C1435098  15.333  46.379  30.213
    1STR    C1535099  15.341  46.242  30.241
    1STR    C1635100  15.246  46.151  30.191
    1STR    C1735101  15.257  46.009  30.243
    1STR    H1B35102  14.956  46.149  30.032
    1STR    H1C35103  15.058  46.374  30.013
    1STR    H1D35104  15.133  46.604  30.065
    1STR    H1E35105  15.381  46.906  30.226
    1STR    H1F35106  15.375  46.946  29.921
    1STR    H1G35107  15.489  47.022  30.033
    1STR    H1H35108  15.492  46.848  30.010
    1STR    H1I35109  15.172  47.032  30.233
    1STR    H1J35110  15.174  47.057  30.060
    1STR    H1K35111  15.164  47.292  30.113
    1STR    H1M35112  15.280  47.292  30.397
    1STR    H1N35113  15.126  47.220  30.351
    1STR    H1O35114  15.147  47.394  30.343
    1STR    H1P35115  15.426  47.410  30.217
    1STR    H1Q35116  15.380  47.398  30.048
    1STR   C01035117  15.341  47.654  30.138
    1STR   H01135118  15.436  47.650  30.192
    1STR   C01235119  15.367  47.673  29.988
    1STR   H01335120  15.274  47.673  29.932
    1STR   H01435121  15.432  47.595  29.947
    1STR   H01535122  15.417  47.768  29.969
    1STR   C01635123  15.260  47.773  30.195
    1STR   H01735124  15.164  47.779  30.145
    1STR   H01835125  15.240  47.755  30.300
    1STR   O01935126  15.332  47.897  30.179
    1STR   C02035127  15.264  48.015  30.224
    1STR   H02135128  15.160  48.012  30.192
    1STR   C02235129  15.270  48.023  30.378
    1STR   H02335130  15.373  48.021  30.413
    1STR   H02435131  15.216  47.941  30.426
    1STR   H02535132  15.225  48.116  30.413
    1STR   C02635133  15.330  48.139  30.160
    1STR   H02735134  15.435  48.145  30.191
    1STR   H02835135  15.329  48.128  30.052
    1STR   O02935136  15.260  48.258  30.199
    1STR   C03035137  15.315  48.381  30.149
    1STR   H03135138  15.424  48.380  30.160
    1STR   C03235139  15.277  48.399  30.001
    1STR   H03335140  15.169  48.396  29.988
    1STR   H03435141  15.321  48.323  29.937
    1STR   H03535142  15.311  48.496  29.965
    1STR   C03635143  15.260  48.497  30.235
    1STR   H03735144  15.151  48.501  30.227
    1STR   H03835145  15.283  48.477  30.340
    1STR   O03935146  15.318  48.621  30.194
    1STR   C04035147  15.272  48.737  30.263
    1STR   H04135148  15.163  48.733  30.274
    1STR   C04235149  15.339  48.746  30.401
    1STR   H04335150  15.447  48.745  30.392
    1STR   H04435151  15.310  48.664  30.466
    1STR   H04535152  15.311  48.838  30.451
    1STR   C04635153  15.306  48.860  30.177
    1STR   H04735154  15.414  48.868  30.164
    1STR   H04835155  15.262  48.847  30.077
    1STR   O04935156  15.254  48.978  30.238
    1STR   C05035157  15.282  49.100  30.170
    1STR   H05135158  15.386  49.102  30.137
    1STR   C05235159  15.188  49.116  30.050
    1STR   H05335160  15.083  49.111  30.081
    1STR   H05435161  15.204  49.040  29.974
    1STR   H05535162  15.203  49.213  30.002
    1STR   C05635163  15.264  49.216  30.271
    1STR   H05735164  15.161  49.219  30.306
    1STR   H05835165  15.327  49.197  30.358
    1STR   O05935166  15.300  49.339  30.210
    1STR   C06035167  15.284  49.455  30.291
    1STR   H06135168  15.189  49.450  30.346
    1STR   C06235169  15.401  49.466  30.391
    1STR   H06335170  15.496  49.467  30.339
    1STR   H06435171  15.402  49.384  30.462
    1STR   H06535172  15.394  49.558  30.448
    1STR   C06635173  15.278  49.578  30.198
    1STR   H06735174  15.372  49.587  30.143
    1STR   H06835175  15.199  49.563  30.125
    1STR   O06935176  15.253  49.695  30.275
    1STR   C07035177  15.250  49.817  30.201
    1STR   H07135178  15.331  49.819  30.129
    1STR   C07235179  15.115  49.830  30.128
    1STR   H07335180  15.032  49.823  30.198
    1STR   H07435181  15.101  49.753  30.052
    1STR   H07535182  15.107  49.927  30.078
    1STR   C07635183  15.271  49.932  30.300
    1STR   H07735184  15.190  49.934  30.373
    1STR   H07835185  15.364  49.915  30.355
    1STR   O07935186  15.278  50.056  30.229
    1STR   C08035187  15.293  50.172  30.311
    1STR   H08135188  15.228  50.166  30.398
    1STR   C08235189  15.440  50.185  30.355
    1STR   H08335190  15.507  50.186  30.269
    1STR   H08435191  15.471  50.104  30.420
    1STR   H08535192  15.455  50.278  30.410
    1STR   C08635193  15.249  50.293  30.227
    1STR   H08735194  15.313  50.303  30.139
    1STR   H08835195  15.148  50.276  30.191
    1STR   O08935196  15.255  50.411  30.307
    1STR   C09035197  15.220  50.531  30.240
    1STR   H09135198  15.266  50.534  30.141
    1STR   C09235199  15.067  50.542  30.228
    1STR   H09335200  15.019  50.535  30.325
    1STR   H09435201  15.025  50.464  30.164
    1STR   H09535202  15.038  50.638  30.184
    1STR   C09635203  15.277  50.648  30.322
    1STR   H09735204  15.232  50.649  30.421
    1STR   H09835205  15.384  50.632  30.335
    1STR   O09935206  15.253  50.771  30.254
    1STR   C10035207  15.298  50.887  30.322
    1STR   H10135208  15.274  50.882  30.428
    1STR   C10235209  15.450  50.903  30.304
    1STR   H10335210  15.477  50.904  30.198
    1STR   H10435211  15.506  50.822  30.352
    1STR   H10535212  15.485  50.996  30.348
    1STR   C10635213  15.223  51.007  30.262
    1STR   H10735214  15.246  51.017  30.156
    1STR   H10835215  15.115  50.988  30.269
    1STR   O10935216  15.258  51.126  30.333
    1STR   C11035217  15.197  51.245  30.285
    1STR   H11135218  15.199  51.248  30.176
    1STR   C11235219  15.052  51.254  30.335
    1STR   H11335220  15.047  51.247  30.444
    1STR   H11435221  14.989  51.175  30.294
    1STR   H11535222  15.006  51.349  30.306
    1STR   C11635223  15.281  51.363  30.337
    1STR   H11735224  15.279  51.365  30.446
    1STR   H11835225  15.384  51.349  30.307
    1STR   O11935226  15.229  51.485  30.284
    1STR   C12035227  15.296  51.603  30.328
    1STR   H12135228  15.316  51.598  30.435
    1STR   C12235229  15.428  51.620  30.250
    1STR   H12335230  15.410  51.621  30.143
    1STR   H12435231  15.499  51.541  30.272
    1STR   H12535232  15.476  51.715  30.277
    1STR   C12635233  15.201  51.721  30.303
    1STR   H12735234  15.180  51.731  30.196
    1STR   H12835235  15.106  51.701  30.353
    1STR   O12935236  15.259  51.841  30.354
    1STR   C13035237  15.182  51.959  30.334
    1STR   H13135238  15.141  51.960  30.233
    1STR   C13235239  15.069  51.966  30.438
    1STR   H13335240  15.108  51.960  30.539
    1STR   H13435241  14.996  51.886  30.425
    1STR   H13535242  15.015  52.060  30.429
    1STR   C13635243  15.278  52.078  30.348
    1STR   H13735244  15.320  52.081  30.448
    1STR   H13835245  15.361  52.065  30.278
    1STR   O13935246  15.208  52.199  30.319
    1STR   C14035247  15.284  52.318  30.332
    1STR   H14135248  15.346  52.314  30.423
    1STR   C14235249  15.374  52.337  30.209
    1STR   H14335250  15.315  52.336  30.117
    1STR   H14435251  15.449  52.259  30.200
    1STR   H14535252  15.427  52.432  30.213
    1STR   C14635253  15.185  52.435  30.348
    1STR   H14735254  15.123  52.443  30.258
    1STR   H14835255  15.118  52.414  30.431
    1STR   O14935256  15.257  52.556  30.371
    1STR   C15035257  15.177  52.673  30.383
    1STR   H15135258  15.099  52.673  30.306
    1STR   C15235259  15.114  52.679  30.523
    1STR   H15335260  15.191  52.674  30.600
    1STR   H15435261  15.044  52.598  30.540
    1STR   H15535262  15.059  52.772  30.536
    1STR   C15635263  15.268  52.794  30.357
    1STR   H15735264  15.347  52.798  30.432
    1STR   H15835265  15.317  52.781  30.260
    1STR   O15935266  15.190  52.913  30.358
    1STR   C16035267  15.264  53.033  30.339
    1STR   H16135268  15.356  53.031  30.397
    1STR   C16235269  15.296  53.052  30.190
    1STR   H16335270  15.205  53.050  30.130
    1STR   H16435271  15.363  52.975  30.152
    1STR   H16535272  15.345  53.148  30.173
    1STR   C16635273  15.177  53.149  30.393
    1STR   H16735274  15.085  53.155  30.335
    1STR   H16835275  15.150  53.127  30.496
    1STR   O16935276  15.251  53.271  30.384
    1STR   C17035277  15.180  53.387  30.427
    1STR   H17135278  15.078  53.385  30.389
    1STR   C17235279  15.178  53.393  30.581
    1STR   H17335280  15.280  53.390  30.621
    1STR   H17435281  15.122  53.311  30.625
    1STR   H17535282  15.132  53.486  30.615
    1STR   C17635283  15.251  53.508  30.366
    1STR   H17735284  15.354  53.514  30.404
    1STR   H17835285  15.258  53.496  30.258
    1STR   O17935286  15.179  53.627  30.399
    1STR   C18035287  15.236  53.748  30.352
    1STR   H18135288  15.344  53.748  30.368
    1STR   C18235289  15.207  53.766  30.202
    1STR   H18335290  15.099  53.762  30.182
    1STR   H18435291  15.255  53.689  30.141
    1STR   H18535292  15.243  53.862  30.166
    1STR   C18635293  15.176  53.863  30.435
    1STR   H18735294  15.068  53.867  30.419
    1STR   H18835295  15.192  53.842  30.540
    1STR   O18935296  15.238  53.986  30.398
    1STR   C19035297  15.189  54.101  30.465
    1STR   H19135298  15.080  54.097  30.470
    1STR   C19235299  15.248  54.109  30.606
    1STR   H19335300  15.357  54.108  30.603
    1STR   H19435301  15.216  54.026  30.670
    1STR   H19535302  15.218  54.201  30.656
    1STR   C19635303  15.228  54.223  30.381
    1STR   H19735304  15.336  54.231  30.374
    1STR   H19835305  15.190  54.210  30.279
    1STR   O19935306  15.172  54.341  30.439
    1STR   C20035307  15.204  54.463  30.372
    1STR   H20135308  15.310  54.464  30.344
    1STR   C20235309  15.116  54.478  30.247
    1STR   H20335310  15.011  54.473  30.272
    1STR   H20435311  15.137  54.402  30.172
    1STR   H20535312  15.134  54.575  30.199
    1STR   C20635313  15.181  54.577  30.472
    1STR   H20735314  15.076  54.580  30.501
    1STR   H20835315  15.239  54.558  30.562
    1STR   O20935316  15.220  54.701  30.413
    1STR   C21035317  15.200  54.816  30.494
    1STR   H21135318  15.102  54.811  30.543
    1STR   C21235319  15.311  54.826  30.599
    1STR   H21335320  15.410  54.826  30.553
    1STR   H21435321  15.308  54.744  30.671
    1STR   H21535322  15.302  54.918  30.657
    1STR   C21635323  15.200  54.938  30.401
    1STR   H21735324  15.297  54.947  30.351
    1STR   H21835325  15.126  54.923  30.323
    1STR   O21935326  15.171  55.056  30.476
    1STR   C22035327  15.171  55.177  30.402
    1STR   H22135328  15.257  55.180  30.334
    1STR   C22235329  15.041  55.190  30.322
    1STR   H22335330  14.954  55.183  30.388
    1STR   H22435331  15.031  55.114  30.245
    1STR   H22535332  15.036  55.287  30.271
    1STR   C22635333  15.188  55.293  30.502
    1STR   H22735334  15.103  55.295  30.571
    1STR   H22835335  15.277  55.275  30.562
    1STR   O22935336  15.198  55.417  30.432
    1STR   C23035337  15.210  55.532  30.514
    1STR   H23135338  15.140  55.527  30.598
    1STR   C23235339  15.354  55.544  30.566
    1STR   H23335340  15.426  55.545  30.484
    1STR   H23435341  15.381  55.463  30.633
    1STR   H23535342  15.367  55.637  30.622
    1STR   C23635343  15.171  55.654  30.428
    1STR   H23735344  15.240  55.664  30.344
    1STR   H23835345  15.072  55.638  30.387
    1STR   O23935346  15.173  55.772  30.509
    1STR   C24035347  15.141  55.893  30.440
    1STR   H24135348  15.193  55.896  30.343
    1STR   C24235349  14.989  55.903  30.419
    1STR   H24335350  14.936  55.895  30.514
    1STR   H24435351  14.952  55.826  30.353
    1STR   H24535352  14.963  55.999  30.375
    1STR   C24635353  15.194  56.010  30.525
    1STR   H24735354  15.145  56.011  30.622
    1STR   H24835355  15.300  55.995  30.544
    1STR   O24935356  15.173  56.134  30.456
    1STR   C25035357  15.216  56.251  30.526
    1STR   H25135358  15.185  56.245  30.631
    1STR   C25235359  15.369  56.265  30.517
    1STR   H25335360  15.401  56.265  30.413
    1STR   H25435361  15.420  56.184  30.568
    1STR   H25535362  15.402  56.358  30.562
    1STR   C25635363  15.145  56.373  30.463
    1STR   H25735364  15.173  56.382  30.358
    1STR   H25835365  15.037  56.355  30.465
    1STR   O25935366  15.177  56.492  30.535
    1STR   C26035367  15.118  56.612  30.485
    1STR   H26135368  15.126  56.615  30.376
    1STR   C26235369  14.970  56.618  30.527
    1STR   H26335370  14.959  56.609  30.635
    1STR   H26435371  14.911  56.540  30.480
    1STR   H26535372  14.925  56.713  30.497
    1STR   C26635373  15.197  56.732  30.541
    1STR   H26735374  15.190  56.733  30.650
    1STR   H26835375  15.302  56.719  30.516
    1STR   O26935376  15.147  56.856  30.488
    1STR   C27035377  15.213  56.974  30.534
    1STR   H27135378  15.228  56.969  30.642
    1STR   C27235379  15.349  56.988  30.463
    1STR   H27335380  15.338  56.987  30.355
    1STR   H27435381  15.418  56.909  30.491
    1STR   H27535382  15.397  57.082  30.490
    1STR   C27635383  15.122  57.096  30.504
    1STR   H27735384  15.106  57.104  30.396
    1STR   H27835385  15.025  57.078  30.549
    1STR   O27935386  15.180  57.217  30.555
    1STR   C28035387  15.103  57.337  30.534
    1STR   H28135388  15.067  57.339  30.431
    1STR   C28235389  14.984  57.340  30.631
    1STR   H28335390  15.018  57.329  30.734
    1STR   H28435391  14.912  57.260  30.611
    1STR   H28535392  14.930  57.434  30.623
    1STR   C28635393  15.195  57.460  30.554
    1STR   H28735394  15.233  57.462  30.656
    1STR   H28835395  15.281  57.450  30.488
    1STR   O28935396  15.125  57.583  30.526
    1STR   C29035397  15.201  57.705  30.539
    1STR   H29135398  15.257  57.703  30.633
    1STR   C29235399  15.299  57.717  30.420
    1STR   H29335400  15.246  57.712  30.325
    1STR   H29435401  15.375  57.639  30.421
    1STR   H29535402  15.351  57.813  30.424
    1STR   C29635403  15.104  57.826  30.544
    1STR   H29735404  15.044  57.828  30.453
    1STR   H29835405  15.035  57.810  30.626
    1STR   O29935406  15.172  57.952  30.559
    1STR   C30035407  15.089  58.069  30.565
    1STR   H30135408  15.011  58.061  30.489
    1STR   C30235409  15.025  58.078  30.705
    1STR   H30335410  15.101  58.074  30.783
    1STR   H30435411  14.955  57.996  30.723
    1STR   H30535412  14.970  58.171  30.717
    1STR   C30635413  15.171  58.197  30.534
    1STR   H30735414  15.242  58.218  30.615
    1STR   H30835415  15.232  58.175  30.446
    1STR   O30935416  15.088  58.313  30.509
    1STR    H1R35417  15.226  58.461  30.553
    1STR    H1S35418  15.268  58.519  30.308
    1STR    H1T35419  15.156  58.391  30.262
    1STR    H1U35420  15.308  58.352  30.343
    1STR    H1V35421  14.997  58.563  30.561
    1STR    H1W35422  14.974  58.533  30.391
    1STR    H1X35423  15.208  58.871  30.431
    1STR    H1Y35424  15.300  59.070  30.435
    1STR    H1Z35425  15.333  59.290  30.339
    1STR    H2035426  15.188  59.407  30.028
    1STR    H2135427  15.156  59.493  30.180
    1STR    H2235428  15.316  59.426  30.146
    1STR    H2335429  14.956  59.188  29.976
    1STR    H2735430  14.960  59.006  30.177
    1STR    H2835431  15.408  46.442  30.258
    1STR    H2935432  15.420  46.208  30.306
    1STR    H2A35433  15.159  45.962  30.252
    1STR    H2B35434  15.303  46.006  30.342
    1STR    H2C35435  15.319  45.949  30.177
    1STR   BCK135436  14.884  45.978  44.993
    1STR    O0335437  14.763  45.985  44.974
    1STR    N0435438  14.966  46.085  44.987
    1STR    C0535439  14.941  46.199  44.909
    1STR    C0635440  14.934  46.332  44.961
    1STR    C0735441  14.913  46.445  44.876
    1STR    N0835442  14.911  46.578  44.926
    1STR    C0935443  14.865  46.691  44.866
    1STR    O0A35444  14.803  46.691  44.760
    1STR    O0B35445  14.894  46.806  44.934
    1STR    C0C35446  14.851  46.933  44.880
    1STR    C0D35447  14.701  46.955  44.908
    1STR    C0E35448  14.934  47.054  44.932
    1STR    O0F35449  14.889  47.175  44.869
    1STR    C0G35450  14.956  47.296  44.905
    1STR    C0H35451  15.091  47.305  44.833
    1STR    C0I35452  14.867  47.417  44.867
    1STR    O0J35453  14.927  47.540  44.909
    1STR    C0K35454  15.212  58.418  44.728
    1STR    C0M35455  15.071  58.405  44.788
    1STR    C0N35456  15.278  58.548  44.784
    1STR    O0O35457  15.218  58.662  44.720
    1STR    C0P35458  15.182  58.776  44.786
    1STR    O0Q35459  15.182  58.794  44.907
    1STR    N0R35460  15.149  58.865  44.692
    1STR    C0S35461  15.103  58.997  44.684
    1STR    C0T35462  15.118  59.052  44.556
    1STR    C0U35463  15.060  59.175  44.523
    1STR    C0V35464  14.984  59.247  44.617
    1STR    C0W35465  14.905  59.362  44.559
    1STR    C0X35466  14.976  59.202  44.752
    1STR    N0Y35467  14.898  59.266  44.852
    1STR   BCK235468  14.848  59.388  44.882
    1STR    O1035469  14.762  59.395  44.970
    1STR    C1335470  15.036  59.075  44.783
    1STR    C1435471  14.901  46.420  44.737
    1STR    C1535472  14.910  46.291  44.685
    1STR    C1635473  14.932  46.181  44.769
    1STR    C1735474  14.951  46.044  44.704
    1STR    H1B35475  15.060  46.070  45.021
    1STR    H1C35476  14.944  46.346  45.068
    1STR    H1D35477  14.949  46.596  45.017
    1STR    H1E35478  14.866  46.931  44.772
    1STR    H1F35479  14.681  46.960  45.015
    1STR    H1G35480  14.667  47.048  44.863
    1STR    H1H35481  14.641  46.875  44.865
    1STR    H1I35482  15.040  47.037  44.910
    1STR    H1J35483  14.924  47.062  45.040
    1STR    H1K35484  14.971  47.299  45.014
    1STR    H1M35485  15.079  47.299  44.725
    1STR    H1N35486  15.159  47.225  44.864
    1STR    H1O35487  15.141  47.399  44.855
    1STR    H1P35488  14.850  47.418  44.759
    1STR    H1Q35489  14.769  47.406  44.914
    1STR   C01035490  14.858  47.661  44.875
    1STR   H01135491  14.825  47.656  44.771
    1STR   C01235492  14.737  47.680  44.968
    1STR   H01335493  14.767  47.680  45.072
    1STR   H01435494  14.662  47.602  44.954
    1STR   H01535495  14.687  47.775  44.948
    1STR   C01635496  14.956  47.779  44.888
    1STR   H01735497  14.992  47.786  44.991
    1STR   H01835498  15.043  47.760  44.825
    1STR   O01935499  14.893  47.902  44.850
    1STR   C02035500  14.973  48.020  44.862
    1STR   H02135501  15.028  48.018  44.956
    1STR   C02235502  15.072  48.027  44.744
    1STR   H02335503  15.020  48.025  44.649
    1STR   H02435504  15.144  47.946  44.745
    1STR   H02535505  15.129  48.120  44.748
    1STR   C02635506  14.881  48.143  44.864
    1STR   H02735507  14.824  48.149  44.771
    1STR   H02835508  14.808  48.131  44.944
    1STR   O02935509  14.958  48.262  44.884
    1STR   C03035510  14.884  48.384  44.884
    1STR   H03135511  14.811  48.384  44.802
    1STR   C03235512  14.812  48.402  45.019
    1STR   H03335513  14.883  48.398  45.101
    1STR   H03435514  14.736  48.326  45.036
    1STR   H03535515  14.762  48.499  45.023
    1STR   C03635516  14.983  48.499  44.857
    1STR   H03735517  15.057  48.504  44.937
    1STR   H03835518  15.037  48.480  44.765
    1STR   O03935519  14.912  48.623  44.848
    1STR   C04035520  14.993  48.739  44.828
    1STR   H04135521  15.080  48.735  44.893
    1STR   C04235522  15.036  48.748  44.681
    1STR   H04335523  14.950  48.747  44.614
    1STR   H04435524  15.102  48.665  44.653
    1STR   H04535525  15.091  48.840  44.663
    1STR   C04635526  14.909  48.862  44.869
    1STR   H04735527  14.821  48.870  44.805
    1STR   H04835528  14.874  48.849  44.971
    1STR   O04935529  14.989  48.980  44.859
    1STR   C05035530  14.922  49.102  44.890
    1STR   H05135531  14.823  49.103  44.844
    1STR   C05235532  14.911  49.118  45.042
    1STR   H05335533  15.009  49.112  45.090
    1STR   H05435534  14.847  49.042  45.087
    1STR   H05535535  14.867  49.214  45.068
    1STR   C05635536  15.004  49.217  44.828
    1STR   H05735537  15.104  49.220  44.872
    1STR   H05835538  15.017  49.198  44.721
    1STR   O05935539  14.936  49.340  44.849
    1STR   C06035540  15.003  49.456  44.799
    1STR   H06135541  15.110  49.451  44.823
    1STR   C06235542  14.984  49.467  44.647
    1STR   H06335543  14.878  49.467  44.621
    1STR   H06435544  15.032  49.385  44.594
    1STR   H06535545  15.028  49.559  44.609
    1STR   C06635546  14.944  49.578  44.872
    1STR   H06735547  14.838  49.588  44.849
    1STR   H06835548  14.953  49.563  44.979
    1STR   O06935549  15.015  49.696  44.832
    1STR   C07035550  14.967  49.817  44.889
    1STR   H07135551  14.858  49.820  44.887
    1STR   C07235552  15.018  49.831  45.034
    1STR   H07335553  15.126  49.824  45.038
    1STR   H07435554  14.977  49.754  45.099
    1STR   H07535555  14.989  49.927  45.076
    1STR   C07635556  15.018  49.933  44.801
    1STR   H07735557  15.127  49.935  44.802
    1STR   H07835558  14.987  49.915  44.698
    1STR   O07935559  14.965  50.056  44.849
    1STR   C08035560  15.009  50.172  44.779
    1STR   H08135561  15.116  50.166  44.758
    1STR   C08235562  14.930  50.185  44.647
    1STR   H08335563  14.823  50.186  44.665
    1STR   H08435564  14.952  50.104  44.578
    1STR   H08535565  14.956  50.278  44.596
    1STR   C08635566  14.985  50.293  44.870
    1STR   H08735567  14.878  50.303  44.892
    1STR   H08835568  15.035  50.276  44.965
    1STR   O08935569  15.035  50.411  44.808
    1STR   C09035570  15.015  50.532  44.881
    1STR   H09135571  14.915  50.534  44.923
    1STR   C09235572  15.120  50.542  44.993
    1STR   H09335573  15.221  50.535  44.954
    1STR   H09435574  15.107  50.464  45.068
    1STR   H09535575  15.111  50.638  45.045
    1STR   C09635576  15.028  50.648  44.781
    1STR   H09735577  15.129  50.649  44.738
    1STR   H09835578  14.959  50.632  44.699
    1STR   O09935579  15.000  50.771  44.848
    1STR   C10035580  15.012  50.887  44.767
    1STR   H10135581  15.102  50.882  44.705
    1STR   C10235582  14.888  50.903  44.678
    1STR   H10335583  14.797  50.904  44.737
    1STR   H10435584  14.880  50.822  44.605
    1STR   H10535585  14.892  50.996  44.622
    1STR   C10635586  15.028  51.007  44.862
    1STR   H10735587  14.939  51.017  44.924
    1STR   H10835588  15.112  50.988  44.929
    1STR   O10935589  15.051  51.126  44.786
    1STR   C11035590  15.063  51.245  44.863
    1STR   H11135591  14.988  51.248  44.941
    1STR   C11235592  15.204  51.253  44.924
    1STR   H11335593  15.281  51.246  44.847
    1STR   H11435594  15.222  51.175  44.997
    1STR   H11535595  15.218  51.348  44.976
    1STR   C11635596  15.036  51.363  44.768
    1STR   H11735597  15.111  51.365  44.688
    1STR   H11835598  14.939  51.349  44.720
    1STR   O11935599  15.038  51.485  44.842
    1STR   C12035600  15.018  51.603  44.764
    1STR   H12135601  15.076  51.598  44.672
    1STR   C12235602  14.869  51.620  44.733
    1STR   H12335603  14.809  51.621  44.824
    1STR   H12435604  14.831  51.541  44.668
    1STR   H12535605  14.852  51.715  44.681
    1STR   C12635606  15.072  51.721  44.847
    1STR   H12735607  15.016  51.731  44.940
    1STR   H12835608  15.176  51.701  44.874
    1STR   O12935609  15.064  51.841  44.770
    1STR   C13035610  15.107  51.959  44.836
    1STR   H13135611  15.069  51.960  44.939
    1STR   C13235612  15.260  51.966  44.837
    1STR   H13335613  15.300  51.960  44.735
    1STR   H13435614  15.305  51.886  44.895
    1STR   H13535615  15.295  52.060  44.880
    1STR   C13635616  15.045  52.078  44.762
    1STR   H13735617  15.082  52.081  44.659
    1STR   H13835618  14.937  52.065  44.757
    1STR   O13935619  15.078  52.199  44.830
    1STR   C14035620  15.030  52.318  44.769
    1STR   H14135621  15.046  52.314  44.661
    1STR   C14235622  14.881  52.337  44.800
    1STR   H14335623  14.862  52.336  44.907
    1STR   H14435624  14.820  52.259  44.755
    1STR   H14535625  14.845  52.432  44.760
    1STR   C14635626  15.114  52.435  44.825
    1STR   H14735627  15.099  52.443  44.932
    1STR   H14835628  15.219  52.414  44.808
    1STR   O14935629  15.076  52.556  44.759
    1STR   C15035630  15.143  52.673  44.804
    1STR   H15135631  15.150  52.673  44.913
    1STR   C15235632  15.284  52.679  44.743
    1STR   H15335633  15.280  52.674  44.634
    1STR   H15435634  15.348  52.597  44.778
    1STR   H15535635  15.334  52.772  44.770
    1STR   C15635636  15.058  52.794  44.762
    1STR   H15735637  15.051  52.798  44.653
    1STR   H15835638  14.957  52.781  44.800
    1STR   O15935639  15.117  52.913  44.813
    1STR   C16035640  15.050  53.033  44.778
    1STR   H16135641  15.021  53.031  44.672
    1STR   C16235642  14.925  53.052  44.866
    1STR   H16335643  14.951  53.050  44.972
    1STR   H16435644  14.851  52.975  44.848
    1STR   H16535645  14.878  53.148  44.845
    1STR   C16635646  15.150  53.149  44.797
    1STR   H16735647  15.180  53.155  44.901
    1STR   H16835648  15.240  53.127  44.739
    1STR   O16935649  15.090  53.271  44.753
    1STR   C17035650  15.171  53.387  44.769
    1STR   H17135651  15.221  53.385  44.867
    1STR   C17235652  15.276  53.393  44.657
    1STR   H17335653  15.229  53.390  44.559
    1STR   H17435654  15.348  53.311  44.662
    1STR   H17535655  15.333  53.486  44.663
    1STR   C17635656  15.078  53.508  44.766
    1STR   H17735657  15.028  53.514  44.669
    1STR   H17835658  15.000  53.496  44.841
    1STR   O17935659  15.153  53.627  44.791
    1STR   C18035660  15.079  53.748  44.787
    1STR   H18135661  15.010  53.747  44.702
    1STR   C18235662  15.000  53.766  44.918
    1STR   H18335663  15.066  53.762  45.004
    1STR   H18435664  14.923  53.689  44.930
    1STR   H18535665  14.949  53.862  44.919
    1STR   C18635666  15.179  53.863  44.766
    1STR   H18735667  15.248  53.867  44.851
    1STR   H18835668  15.238  53.842  44.677
    1STR   O18935669  15.108  53.985  44.752
    1STR   C19035670  15.190  54.101  44.736
    1STR   H19135671  15.274  54.097  44.805
    1STR   C19235672  15.242  54.109  44.591
    1STR   H19335673  15.159  54.108  44.520
    1STR   H19435674  15.308  54.026  44.566
    1STR   H19535675  15.298  54.201  44.575
    1STR   C19635676  15.104  54.223  44.772
    1STR   H19735677  15.020  54.231  44.703
    1STR   H19835678  15.063  54.210  44.872
    1STR   O19935679  15.185  54.341  44.766
    1STR   C20035680  15.116  54.462  44.794
    1STR   H20135681  15.019  54.463  44.743
    1STR   C20235682  15.097  54.478  44.945
    1STR   H20335683  15.192  54.473  44.998
    1STR   H20435684  15.031  54.402  44.987
    1STR   H20535685  15.052  54.575  44.969
    1STR   C20635686  15.201  54.577  44.736
    1STR   H20735687  15.298  54.580  44.786
    1STR   H20835688  15.219  54.557  44.630
    1STR   O20935689  15.132  54.700  44.753
    1STR   C21035690  15.202  54.816  44.707
    1STR   H21135691  15.306  54.811  44.737
    1STR   C21235692  15.191  54.826  44.554
    1STR   H21335693  15.087  54.826  44.521
    1STR   H21435694  15.241  54.743  44.503
    1STR   H21535695  15.237  54.918  44.518
    1STR   C21635696  15.138  54.938  44.775
    1STR   H21735697  15.034  54.947  44.746
    1STR   H21835698  15.141  54.923  44.883
    1STR   O21935699  15.211  55.055  44.740
    1STR   C22035700  15.160  55.177  44.794
    1STR   H22135701  15.051  55.179  44.786
    1STR   C22235702  15.203  55.190  44.941
    1STR   H22335703  15.311  55.183  44.951
    1STR   H22435704  15.158  55.113  45.004
    1STR   H22535705  15.172  55.286  44.982
    1STR   C22635706  15.216  55.292  44.709
    1STR   H22735707  15.325  55.294  44.715
    1STR   H22835708  15.191  55.274  44.604
    1STR   O22935709  15.161  55.416  44.754
    1STR   C23035710  15.208  55.532  44.685
    1STR   H23135711  15.316  55.526  44.670
    1STR   C23235712  15.136  55.544  44.549
    1STR   H23335713  15.028  55.545  44.561
    1STR   H23435714  15.162  55.462  44.482
    1STR   H23535715  15.165  55.636  44.499
    1STR   C23635716  15.178  55.653  44.775
    1STR   H23735717  15.071  55.663  44.790
    1STR   H23835718  15.224  55.637  44.872
    1STR   O23935719  15.232  55.771  44.714
    1STR   C24035720  15.209  55.892  44.786
    1STR   H24135721  15.106  55.895  44.823
    1STR   C24235722  15.307  55.902  44.904
    1STR   H24335723  15.410  55.894  44.870
    1STR   H24435724  15.290  55.825  44.979
    1STR   H24535725  15.296  55.998  44.955
    1STR   C24635726  15.227  56.009  44.688
    1STR   H24735727  15.329  56.010  44.650
    1STR   H24835728  15.161  55.993  44.602
    1STR   O24935729  15.196  56.132  44.752
    1STR   C25035730  15.212  56.249  44.672
    1STR   H25135731  15.305  56.243  44.616
    1STR   C25235732  15.093  56.263  44.576
    1STR   H25335733  14.998  56.264  44.630
    1STR   H25435734  15.089  56.182  44.503
    1STR   H25535735  15.099  56.356  44.520
    1STR   C25635736  15.222  56.370  44.767
    1STR   H25735737  15.129  56.379  44.825
    1STR   H25835738  15.302  56.352  44.839
    1STR   O25935739  15.247  56.489  44.692
    1STR   C26035740  15.256  56.609  44.769
    1STR   H26135741  15.176  56.612  44.844
    1STR   C26235742  15.393  56.616  44.838
    1STR   H26335743  15.474  56.608  44.766
    1STR   H26435744  15.406  56.537  44.912
    1STR   H26535745  15.405  56.711  44.890
    1STR   C26635746  15.235  56.728  44.673
    1STR   H26735747  15.314  56.729  44.598
    1STR   H26835748  15.141  56.714  44.621
    1STR   O26935749  15.235  56.851  44.746
    1STR   C27035750  15.218  56.969  44.668
    1STR   H27135751  15.281  56.964  44.579
    1STR   C27235752  15.070  56.984  44.628
    1STR   H27335753  15.006  56.984  44.716
    1STR   H27435754  15.037  56.905  44.561
    1STR   H27535755  15.054  57.078  44.575
    1STR   C27635756  15.266  57.090  44.752
    1STR   H27735757  15.205  57.098  44.842
    1STR   H27835758  15.368  57.071  44.785
    1STR   O27935759  15.259  57.210  44.675
    1STR   C28035760  15.300  57.329  44.743
    1STR   H28135761  15.258  57.332  44.844
    1STR   C28235762  15.454  57.333  44.752
    1STR   H28335763  15.499  57.324  44.653
    1STR   H28435764  15.494  57.254  44.814
    1STR   H28535765  15.488  57.428  44.795
    1STR   C28635766  15.246  57.452  44.666
    1STR   H28735767  15.287  57.453  44.565
    1STR   H28835768  15.138  57.441  44.656
    1STR   O28935769  15.277  57.574  44.734
    1STR   C29035770  15.232  57.695  44.672
    1STR   H29135771  15.254  57.692  44.565
    1STR   C29235772  15.080  57.709  44.694
    1STR   H29335773  15.055  57.705  44.800
    1STR   H29435774  15.023  57.632  44.643
    1STR   H29535775  15.045  57.805  44.655
    1STR   C29635776  15.308  57.814  44.734
    1STR   H29735777  15.290  57.818  44.842
    1STR   H29835778  15.415  57.797  44.721
    1STR   O29935779  15.270  57.939  44.674
    1STR   C30035780  15.334  58.057  44.725
    1STR   H30135781  15.338  58.051  44.834
    1STR   C30235782  15.476  58.066  44.668
    1STR   H30335783  15.475  58.062  44.559
    1STR   H30435784  15.540  57.985  44.703
    1STR   H30535785  15.524  58.159  44.697
    1STR   C30635786  15.249  58.181  44.687
    1STR   H30735787  15.253  58.196  44.579
    1STR   H30835788  15.146  58.157  44.711
    1STR   O30935789  15.290  58.301  44.756
    1STR    H1R35790  15.205  58.429  44.620
    1STR    H1S35791  15.015  58.497  44.777
    1STR    H1T35792  15.077  58.383  44.895
    1STR    H1U35793  15.012  58.326  44.741
    1STR    H1V35794  15.384  58.549  44.759
    1STR    H1W35795  15.271  58.553  44.892
    1STR    H1X35796  15.164  58.820  44.604
    1STR    H1Y35797  15.171  58.999  44.478
    1STR    H1Z35798  15.069  59.211  44.422
    1STR    H2035799  14.809  59.373  44.610
    1STR    H2135800  14.963  59.454  44.566
    1STR    H2235801  14.883  59.346  44.454
    1STR    H2335802  14.866  59.203  44.924
    1STR    H2735803  15.027  59.033  44.883
    1STR    H2835804  14.887  46.500  44.666
    1STR    H2935805  14.901  46.277  44.578
    1STR    H2A35806  15.037  45.993  44.747
    1STR    H2B35807  14.967  46.052  44.597
    1STR    H2C35808  14.862  45.983  44.721
    1STR   BCK135809  29.969   0.862  60.144
    1STR    O0335810  30.038   0.797   0.062
    1STR    N0435811  29.939   0.993   0.001
    1STR    C0535812  29.957   1.080   0.112
    1STR    C0635813  29.989   1.219   0.092
    1STR    C0735814  29.998   1.313   0.200
    1STR    N0835815  30.025   1.451   0.179
    1STR    C0935816  30.007   1.557   0.262
    1STR    O0A35817  29.958   1.549   0.374
    1STR    O0B35818  30.047   1.677   0.208
    1STR    C0C35819  30.042   1.798   0.288
    1STR    C0D35820  30.169   1.808   0.374
    1STR    C0E35821  30.025   1.927   0.202
    1STR    O0F35822  30.019   2.046   0.284
    1STR    C0G35823  29.996   2.170   0.216
    1STR    C0H35824  29.847   2.181   0.178
    1STR    C0I35825  30.037   2.291   0.305
    1STR    O0J35826  30.020   2.414   0.233
    1STR    C0K35827  29.651  13.300   0.165
    1STR    C0M35828  29.799  13.303   0.208
    1STR    C0N35829  29.621  13.418   0.069
    1STR    O0O35830  29.631  13.544   0.137
    1STR    C0P35831  29.673  13.656   0.072
    1STR    O0Q35832  29.711  13.660  60.116
    1STR    N0R35833  29.669  13.761   0.155
    1STR    C0S35834  29.712  13.894   0.141
    1STR    C0T35835  29.731  13.966   0.260
    1STR    C0U35836  29.786  14.095   0.258
    1STR    C0V35837  29.820  14.158   0.136
    1STR    C0W35838  29.901  14.286   0.144
    1STR    C0X35839  29.791  14.093   0.013
    1STR    N0Y35840  29.827  14.145  60.048
    1STR   BCK235841  29.803  14.259  59.979
    1STR    O1035842  29.847  14.268  59.865
    1STR    C1335843  29.740  13.960   0.018
    1STR    C1435844  29.980   1.262   0.331
    1STR    C1535845  29.946   1.128   0.352
    1STR    C1635846  29.930   1.038   0.245
    1STR    C1735847  29.877   0.900   0.281
    1STR    H1B35848  29.895   1.033  60.080
    1STR    H1C35849  30.006   1.254  60.152
    1STR    H1D35850  30.062   1.479   0.090
    1STR    H1E35851  29.956   1.794   0.354
    1STR    H1F35852  30.259   1.815   0.313
    1STR    H1G35853  30.166   1.897   0.438
    1STR    H1H35854  30.179   1.722   0.440
    1STR    H1I35855  29.933   1.917   0.143
    1STR    H1J35856  30.107   1.936   0.131
    1STR    H1K35857  30.057   2.174   0.125
    1STR    H1M35858  29.784   2.175   0.266
    1STR    H1N35859  29.816   2.104   0.108
    1STR    H1O35860  29.827   2.278   0.130
    1STR    H1P35861  29.977   2.292   0.396
    1STR    H1Q35862  30.141   2.279   0.335
    1STR   C01035863  30.049   2.535   0.305
    1STR   H01135864  30.003   2.531   0.404
    1STR   C01235865  30.201   2.554   0.318
    1STR   H01335866  30.249   2.554   0.221
    1STR   H01435867  30.247   2.477   0.379
    1STR   H01535868  30.223   2.650   0.366
    1STR   C01635869  29.985   2.655   0.229
    1STR   H01735870  30.027   2.661   0.129
    1STR   H01835871  29.878   2.636   0.218
    1STR   O01935872  30.007   2.778   0.299
    1STR   C02035873  29.956   2.896   0.236
    1STR   H02135874  29.979   2.893   0.129
    1STR   C02235875  29.803   2.904   0.255
    1STR   H02335876  29.777   2.902   0.361
    1STR   H02435877  29.751   2.822   0.206
    1STR   H02535878  29.764   2.997   0.214
    1STR   C02635879  30.025   3.020   0.296
    1STR   H02735880  30.004   3.026   0.403
    1STR   H02835881  30.133   3.009   0.286
    1STR   O02935882  29.981   3.139   0.230
    1STR   C03035883  30.035   3.262   0.280
    1STR   H03135884  30.034   3.261   0.389
    1STR   C03235885  30.179   3.280   0.229
    1STR   H03335886  30.183   3.276   0.120
    1STR   H03435887  30.247   3.204   0.268
    1STR   H03535888  30.219   3.377   0.260
    1STR   C03635889  29.945   3.377   0.232
    1STR   H03735890  29.944   3.382   0.123
    1STR   H03835891  29.842   3.358   0.264
    1STR   O03935892  29.991   3.501   0.287
    1STR   C04035893  29.918   3.617   0.247
    1STR   H04135894  29.897   3.614   0.140
    1STR   C04235895  29.786   3.626   0.326
    1STR   H04335896  29.805   3.626   0.433
    1STR   H04435897  29.719   3.544   0.303
    1STR   H04535898  29.734   3.719   0.302
    1STR   C04635899  30.007   3.741   0.273
    1STR   H04735900  30.029   3.749   0.380
    1STR   H04835901  30.102   3.728   0.221
    1STR   O04935902  29.941   3.859   0.227
    1STR   C05035903  30.011   3.981   0.249
    1STR   H05135904  30.054   3.982   0.350
    1STR   C05235905  30.123   3.997   0.144
    1STR   H05335906  30.083   3.992   0.043
    1STR   H05435907  30.200   3.921   0.154
    1STR   H05535908  30.172   4.094   0.155
    1STR   C05635909  29.909   4.096   0.240
    1STR   H05735910  29.865   4.099   0.140
    1STR   H05835911  29.828   4.077   0.310
    1STR   O05935912  29.974   4.220   0.270
    1STR   C06035913  29.891   4.335   0.261
    1STR   H06135914  29.829   4.330   0.171
    1STR   C06235915  29.802   4.346   0.386
    1STR   H06335916  29.862   4.347   0.477
    1STR   H06435917  29.731   4.264   0.393
    1STR   H06535918  29.744   4.439   0.385
    1STR   C06635919  29.983   4.458   0.248
    1STR   H06735920  30.046   4.467   0.336
    1STR   H06835921  30.050   4.443   0.163
    1STR   O06935922  29.904   4.575   0.229
    1STR   C07035923  29.978   4.697   0.219
    1STR   H07135924  30.057   4.699   0.294
    1STR   C07235925  30.038   4.710   0.078
    1STR   H07335926  29.961   4.703   0.002
    1STR   H07435927  30.113   4.634   0.058
    1STR   H07535928  30.088   4.807   0.066
    1STR   C07635929  29.881   4.812   0.249
    1STR   H07735930  29.801   4.814   0.175
    1STR   H07835931  29.834   4.795   0.346
    1STR   O07935932  29.952   4.936   0.250
    1STR   C08035933  29.872   5.052   0.273
    1STR   H08135934  29.780   5.046   0.215
    1STR   C08235935  29.841   5.065   0.423
    1STR   H08335936  29.933   5.066   0.482
    1STR   H08435937  29.779   4.984   0.459
    1STR   H08535938  29.788   5.158   0.443
    1STR   C08635939  29.952   5.173   0.221
    1STR   H08735940  30.045   5.183   0.277
    1STR   H08835941  29.979   5.156   0.117
    1STR   O08935942  29.873   5.291   0.233
    1STR   C09035943  29.936   5.411   0.193
    1STR   H09135944  30.039   5.414   0.230
    1STR   C09235945  29.935   5.422   0.040
    1STR   H09335946  29.834   5.415   0.000
    1STR   H09435947  29.995   5.345  60.152
    1STR   H09535948  29.976   5.518   0.007
    1STR   C09635949  29.860   5.528   0.258
    1STR   H09735950  29.757   5.529   0.222
    1STR   H09835951  29.856   5.512   0.365
    1STR   O09935952  29.925   5.651   0.228
    1STR   C10035953  29.862   5.767   0.279
    1STR   H10135954  29.754   5.762   0.263
    1STR   C10235955  29.893   5.783   0.428
    1STR   H10335956  30.001   5.784   0.446
    1STR   H10435957  29.850   5.702   0.488
    1STR   H10535958  29.852   5.876   0.467
    1STR   C10635959  29.914   5.887   0.198
    1STR   H10735960  30.022   5.897   0.212
    1STR   H10835961  29.898   5.868   0.092
    1STR   O10935962  29.847   6.006   0.239
    1STR   C11035963  29.889   6.125   0.174
    1STR   H11135964  29.998   6.128   0.167
    1STR   C11235965  29.827   6.134   0.034
    1STR   H11335966  29.718   6.126   0.039
    1STR   H11435967  29.863   6.055  60.128
    1STR   H11535968  29.851   6.229  60.146
    1STR   C11635969  29.845   6.243   0.262
    1STR   H11735970  29.736   6.245   0.271
    1STR   H11835971  29.884   6.229   0.363
    1STR   O11935972  29.893   6.365   0.206
    1STR   C12035973  29.856   6.483   0.277
    1STR   H12135974  29.750   6.478   0.306
    1STR   C12235975  29.944   6.500   0.401
    1STR   H12335976  30.050   6.501   0.374
    1STR   H12435977  29.929   6.421   0.474
    1STR   H12535978  29.922   6.595   0.451
    1STR   C12635979  29.872   6.601   0.179
    1STR   H12735980  29.976   6.611   0.149
    1STR   H12835981  29.814   6.581   0.089
    1STR   O12935982  29.826   6.721   0.242
    1STR   C13035983  29.839   6.839   0.164
    1STR   H13135984  29.936   6.840   0.114
    1STR   C13235985  29.726   6.846   0.060
    1STR   H13335986  29.628   6.839   0.108
    1STR   H13435987  29.733   6.766  60.147
    1STR   H13535988  29.730   6.940   0.005
    1STR   C13635989  29.834   6.958   0.260
    1STR   H13735990  29.738   6.961   0.311
    1STR   H13835991  29.910   6.945   0.337
    1STR   O13935992  29.856   7.079   0.188
    1STR   C14035993  29.850   7.198   0.265
    1STR   H14135994  29.765   7.194   0.334
    1STR   C14235995  29.981   7.217   0.344
    1STR   H14335996  30.067   7.216   0.277
    1STR   H14435997  29.996   7.139   0.418
    1STR   H14535998  29.981   7.312   0.397
    1STR   C14635999  29.826   7.315   0.168
    1STR   H14736000  29.910   7.323   0.098
    1STR   H14836001  29.737   7.294   0.109
    1STR   O14936002  29.809   7.436   0.242
    1STR   C15036003  29.790   7.553   0.163
    1STR   H15136004  29.860   7.553   0.078
    1STR   C15236005  29.645   7.559   0.112
    1STR   H15336006  29.575   7.554   0.195
    1STR   H15436007  29.622   7.478   0.044
    1STR   H15536008  29.627   7.652   0.059
    1STR   C15636009  29.824   7.673   0.252
    1STR   H15736010  29.756   7.678   0.337
    1STR   H15836011  29.925   7.661   0.292
    1STR   O15936012  29.816   7.793   0.174
    1STR   C16036013  29.841   7.913   0.246
    1STR   H16136014  29.791   7.911   0.343
    1STR   C16236015  29.993   7.932   0.265
    1STR   H16336016  30.045   7.930   0.169
    1STR   H16436017  30.036   7.855   0.329
    1STR   H16536018  30.014   8.028   0.312
    1STR   C16636019  29.781   8.029   0.164
    1STR   H16736020  29.829   8.035   0.067
    1STR   H16836021  29.675   8.007   0.146
    1STR   O16936022  29.795   8.151   0.237
    1STR   C17036023  29.746   8.267   0.170
    1STR   H17136024  29.776   8.265   0.065
    1STR   C17236025  29.593   8.273   0.182
    1STR   H17336026  29.562   8.270   0.286
    1STR   H17436027  29.544   8.191   0.130
    1STR   H17536028  29.555   8.366   0.139
    1STR   C17636029  29.813   8.389   0.236
    1STR   H17736030  29.785   8.394   0.341
    1STR   H17836031  29.921   8.376   0.232
    1STR   O17936032  29.774   8.507   0.166
    1STR   C18036033  29.827   8.628   0.219
    1STR   H18136034  29.819   8.628   0.328
    1STR   C18236035  29.973   8.646   0.176
    1STR   H18336036  29.983   8.642   0.068
    1STR   H18436037  30.038   8.569   0.219
    1STR   H18536038  30.012   8.742   0.209
    1STR   C18636039  29.738   8.743   0.167
    1STR   H18736040  29.744   8.747   0.058
    1STR   H18836041  29.635   8.722   0.193
    1STR   O18936042  29.781   8.866   0.225
    1STR   C19036043  29.709   8.981   0.181
    1STR   H19136044  29.695   8.977   0.073
    1STR   C19236045  29.574   8.989   0.253
    1STR   H19336046  29.587   8.988   0.362
    1STR   H19436047  29.508   8.907   0.226
    1STR   H19536048  29.522   9.081   0.227
    1STR   C19636049  29.797   9.103   0.213
    1STR   H19736050  29.813   9.111   0.321
    1STR   H19836051  29.895   9.090   0.167
    1STR   O19936052  29.734   9.221   0.163
    1STR   C20036053  29.803   9.342   0.189
    1STR   H20136054  29.840   9.344   0.292
    1STR   C20236055  29.920   9.358   0.090
    1STR   H20336056  29.886   9.353  60.147
    1STR   H20436057  29.997   9.282   0.105
    1STR   H20536058  29.969   9.455   0.104
    1STR   C20636059  29.702   9.457   0.174
    1STR   H20736060  29.664   9.460   0.072
    1STR   H20836061  29.617   9.438   0.240
    1STR   O20936062  29.764   9.580   0.209
    1STR   C21036063  29.681   9.696   0.195
    1STR   H21136064  29.624   9.691   0.102
    1STR   C21236065  29.586   9.706   0.316
    1STR   H21336066  29.641   9.706   0.410
    1STR   H21436067  29.515   9.624   0.318
    1STR   H21536068  29.528   9.798   0.311
    1STR   C21636069  29.774   9.818   0.187
    1STR   H21736070  29.832   9.827   0.280
    1STR   H21836071  29.846   9.803   0.106
    1STR   O21936072  29.697   9.935   0.165
    1STR   C22036073  29.771  10.057   0.159
    1STR   H22136074  29.846  10.059   0.238
    1STR   C22236075  29.839  10.070   0.022
    1STR   H22336076  29.766  10.063  60.101
    1STR   H22436077  29.914   9.993   0.005
    1STR   H22536078  29.889  10.167   0.013
    1STR   C22636079  29.672  10.172   0.184
    1STR   H22736080  29.596  10.174   0.106
    1STR   H22836081  29.620  10.154   0.278
    1STR   O22936082  29.743  10.296   0.188
    1STR   C23036083  29.662  10.411   0.208
    1STR   H23136084  29.573  10.406   0.145
    1STR   C23236085  29.623  10.424   0.356
    1STR   H23336086  29.711  10.425   0.420
    1STR   H23436087  29.559  10.342   0.388
    1STR   H23536088  29.568  10.516   0.373
    1STR   C23636089  29.744  10.533   0.161
    1STR   H23736090  29.834  10.543   0.222
    1STR   H23836091  29.777  10.516   0.059
    1STR   O23936092  29.665  10.651   0.170
    1STR   C24036093  29.730  10.772   0.132
    1STR   H24136094  29.831  10.774   0.175
    1STR   C24236095  29.737  10.782  60.139
    1STR   H24336096  29.638  10.774  60.094
    1STR   H24436097  29.800  10.704  60.095
    1STR   H24536098  29.780  10.878  60.109
    1STR   C24636099  29.650  10.888   0.193
    1STR   H24736100  29.549  10.889   0.151
    1STR   H24836101  29.641  10.872   0.300
    1STR   O24936102  29.717  11.012   0.166
    1STR   C25036103  29.651  11.128   0.214
    1STR   H25136104  29.544  11.122   0.193
    1STR   C25236105  29.674  11.142   0.365
    1STR   H25336106  29.780  11.143   0.389
    1STR   H25436107  29.628  11.062   0.422
    1STR   H25536108  29.631  11.236   0.402
    1STR   C25636109  29.708  11.249   0.137
    1STR   H25736110  29.815  11.259   0.157
    1STR   H25836111  29.697  11.231   0.030
    1STR   O25936112  29.638  11.368   0.175
    1STR   C26036113  29.684  11.488   0.113
    1STR   H26136114  29.793  11.491   0.112
    1STR   C26236115  29.629  11.495  60.129
    1STR   H26336116  29.521  11.487  60.128
    1STR   H26436117  29.670  11.416  60.066
    1STR   H26536118  29.656  11.590  60.083
    1STR   C26636119  29.634  11.607   0.197
    1STR   H26736120  29.525  11.608   0.200
    1STR   H26836121  29.668  11.593   0.300
    1STR   O26936122  29.684  11.730   0.144
    1STR   C27036123  29.643  11.848   0.213
    1STR   H27136124  29.537  11.843   0.237
    1STR   C27236125  29.725  11.863   0.342
    1STR   H27336126  29.832  11.863   0.321
    1STR   H27436127  29.705  11.783   0.414
    1STR   H27536128  29.702  11.957   0.392
    1STR   C27636129  29.665  11.968   0.119
    1STR   H27736130  29.771  11.977   0.093
    1STR   H27836131  29.612  11.949   0.026
    1STR   O27936132  29.618  12.089   0.180
    1STR   C28036133  29.634  12.208   0.102
    1STR   H28136134  29.733  12.210   0.057
    1STR   C28236135  29.527  12.212  60.152
    1STR   H28336136  29.426  12.204   0.034
    1STR   H28436137  29.539  12.133  60.079
    1STR   H28536138  29.531  12.307  60.098
    1STR   C28636139  29.622  12.329   0.197
    1STR   H28736140  29.523  12.331   0.243
    1STR   H28836141  29.695  12.317   0.277
    1STR   O28936142  29.645  12.451   0.126
    1STR   C29036143  29.637  12.572   0.203
    1STR   H29136144  29.549  12.568   0.267
    1STR   C29236145  29.764  12.587   0.289
    1STR   H29336146  29.853  12.584   0.227
    1STR   H29436147  29.772  12.508   0.364
    1STR   H29536148  29.763  12.682   0.342
    1STR   C29636149  29.621  12.691   0.106
    1STR   H29736150  29.707  12.696   0.040
    1STR   H29836151  29.534  12.672   0.043
    1STR   O29936152  29.605  12.815   0.177
    1STR   C30036153  29.589  12.932   0.096
    1STR   H30136154  29.660  12.929   0.013
    1STR   C30236155  29.445  12.936   0.041
    1STR   H30336156  29.372  12.931   0.121
    1STR   H30436157  29.425  12.855  60.131
    1STR   H30536158  29.428  13.029  60.146
    1STR   C30636159  29.620  13.058   0.180
    1STR   H30736160  29.547  13.068   0.260
    1STR   H30836161  29.717  13.043   0.227
    1STR   O30936162  29.623  13.176   0.098
    1STR    H1R36163  29.587  13.309   0.252
    1STR    H1S36164  29.825  13.400   0.250
    1STR    H1T36165  29.865  13.286   0.122
    1STR    H1U36166  29.822  13.229   0.284
    1STR    H1V36167  29.520  13.410   0.030
    1STR    H1W36168  29.688  13.414  60.143
    1STR    H1X36169  29.633  13.734   0.244
    1STR    H1Y36170  29.710  13.921   0.356
    1STR    H1Z36171  29.806  14.145   0.352
    1STR    H2036172  29.999  14.270   0.099
    1STR    H2136173  29.853  14.369   0.093
    1STR    H2236174  29.917  14.318   0.247
    1STR    H2336175  29.876  14.080  59.989
    1STR    H2736176  29.724  13.906  60.086
    1STR    H2836177  29.990   1.324   0.418
    1STR    H2936178  29.928   1.095   0.454
    1STR    H2A36179  29.814   0.861   0.202
    1STR    H2B36180  29.817   0.904   0.372
    1STR    H2C36181  29.960   0.832   0.298
    1STR   BCK136182  30.057   0.860  14.859
    1STR    O0336183  30.137   0.800  14.789
    1STR    N0436184  30.075   0.983  14.912
    1STR    C0536185  30.182   1.076  14.902
    1STR    C0636186  30.153   1.216  14.898
    1STR    C0736187  30.255   1.316  14.888
    1STR    N0836188  30.225   1.454  14.890
    1STR    C0936189  30.300   1.560  14.851
    1STR    O0A36190  30.409   1.550  14.796
    1STR    O0B36191  30.241   1.680  14.878
    1STR    C0C36192  30.303   1.804  14.834
    1STR    C0D36193  30.270   1.825  14.685
    1STR    C0E36194  30.259   1.927  14.918
    1STR    O0F36195  30.320   2.048  14.867
    1STR    C0G36196  30.289   2.170  14.935
    1STR    C0H36197  30.371   2.179  15.065
    1STR    C0I36198  30.319   2.292  14.844
    1STR    O0J36199  30.282   2.415  14.908
    1STR    C0K36200  30.467  13.317  15.161
    1STR    C0M36201  30.399  13.293  15.025
    1STR    C0N36202  30.405  13.446  15.225
    1STR    O0O36203  30.432  13.563  15.145
    1STR    C0P36204  30.342  13.665  15.128
    1STR    O0Q36205  30.226  13.667  15.169
    1STR    N0R36206  30.400  13.765  15.060
    1STR    C0S36207  30.363  13.893  15.015
    1STR    C0T36208  30.471  13.976  14.982
    1STR    C0U36209  30.450  14.105  14.931
    1STR    C0V36210  30.321  14.157  14.910
    1STR    C0W36211  30.314  14.298  14.858
    1STR    C0X36212  30.206  14.078  14.942
    1STR    N0Y36213  30.071  14.122  14.935
    1STR   BCK236214  29.988  14.217  14.885
    1STR    O1036215  29.872  14.213  14.923
    1STR    C1336216  30.231  13.946  14.995
    1STR    C1436217  30.389   1.271  14.882
    1STR    C1536218  30.420   1.134  14.891
    1STR    C1636219  30.319   1.037  14.905
    1STR    C1736220  30.365   0.895  14.932
    1STR    H1B36221  29.994   1.015  14.962
    1STR    H1C36222  30.050   1.248  14.901
    1STR    H1D36223  30.135   1.483  14.925
    1STR    H1E36224  30.411   1.794  14.845
    1STR    H1F36225  30.163   1.835  14.669
    1STR    H1G36226  30.318   1.915  14.647
    1STR    H1H36227  30.306   1.742  14.625
    1STR    H1I36228  30.289   1.912  15.022
    1STR    H1J36229  30.151   1.937  14.916
    1STR    H1K36230  30.182   2.173  14.959
    1STR    H1M36231  30.478   2.174  15.043
    1STR    H1N36232  30.347   2.100  15.135
    1STR    H1O36233  30.353   2.274  15.115
    1STR    H1P36234  30.425   2.294  14.818
    1STR    H1Q36235  30.264   2.281  14.750
    1STR   C01036236  30.309   2.536  14.837
    1STR   H01136237  30.410   2.532  14.794
    1STR   C01236238  30.206   2.555  14.724
    1STR   H01336239  30.104   2.555  14.764
    1STR   H01436240  30.213   2.477  14.648
    1STR   H01536241  30.221   2.650  14.674
    1STR   C01636242  30.305   2.655  14.935
    1STR   H01736243  30.206   2.661  14.981
    1STR   H01836244  30.376   2.637  15.016
    1STR   O01936245  30.336   2.778  14.869
    1STR   C02036246  30.331   2.896  14.951
    1STR   H02136247  30.241   2.894  15.013
    1STR   C02236248  30.456   2.904  15.039
    1STR   H02336249  30.547   2.902  14.978
    1STR   H02436250  30.462   2.823  15.111
    1STR   H02536251  30.457   2.997  15.096
    1STR   C02636252  30.320   3.020  14.859
    1STR   H02736253  30.408   3.026  14.794
    1STR   H02836254  30.234   3.009  14.793
    1STR   O02936255  30.308   3.139  14.937
    1STR   C03036256  30.302   3.262  14.864
    1STR   H03136257  30.377   3.261  14.784
    1STR   C03236258  30.162   3.280  14.804
    1STR   H03336259  30.085   3.277  14.882
    1STR   H03436260  30.138   3.204  14.730
    1STR   H03536261  30.153   3.377  14.755
    1STR   C03636262  30.337   3.378  14.960
    1STR   H03736263  30.264   3.382  15.041
    1STR   H03836264  30.434   3.358  15.006
    1STR   O03936265  30.339   3.501  14.889
    1STR   C04036266  30.366   3.618  14.967
    1STR   H04136267  30.309   3.614  15.060
    1STR   C04236268  30.516   3.626  14.998
    1STR   H04336269  30.575   3.626  14.907
    1STR   H04436270  30.551   3.544  15.061
    1STR   H04536271  30.540   3.719  15.051
    1STR   C04636272  30.318   3.741  14.888
    1STR   H04736273  30.374   3.749  14.795
    1STR   H04836274  30.213   3.728  14.862
    1STR   O04936275  30.336   3.859  14.967
    1STR   C05036276  30.299   3.981  14.903
    1STR   H05136277  30.336   3.982  14.800
    1STR   C05236278  30.146   3.997  14.904
    1STR   H05336279  30.107   3.992  15.006
    1STR   H05436280  30.096   3.921  14.845
    1STR   H05536281  30.117   4.094  14.863
    1STR   C05636282  30.368   4.096  14.978
    1STR   H05736283  30.333   4.099  15.082
    1STR   H05836284  30.475   4.077  14.982
    1STR   O05936285  30.341   4.220  14.913
    1STR   C06036286  30.396   4.335  14.975
    1STR   H06136287  30.381   4.330  15.083
    1STR   C06236288  30.546   4.346  14.943
    1STR   H06336289  30.563   4.347  14.835
    1STR   H06436290  30.603   4.264  14.986
    1STR   H06536291  30.587   4.439  14.983
    1STR   C06636292  30.319   4.458  14.923
    1STR   H06736293  30.332   4.467  14.815
    1STR   H06836294  30.212   4.443  14.941
    1STR   O06936295  30.364   4.575  14.990
    1STR   C07036296  30.303   4.697  14.947
    1STR   H07136297  30.296   4.699  14.838
    1STR   C07236298  30.164   4.710  15.010
    1STR   H07336299  30.169   4.703  15.119
    1STR   H07436300  30.095   4.634  14.975
    1STR   H07536301  30.119   4.807  14.986
    1STR   C07636302  30.395   4.812  14.990
    1STR   H07736303  30.404   4.814  15.099
    1STR   H07836304  30.495   4.795  14.950
    1STR   O07936305  30.343   4.936  14.942
    1STR   C08036306  30.417   5.052  14.979
    1STR   H08136307  30.447   5.046  15.084
    1STR   C08236308  30.542   5.065  14.889
    1STR   H08336309  30.514   5.066  14.784
    1STR   H08436310  30.612   4.983  14.905
    1STR   H08536311  30.595   5.158  14.911
    1STR   C08636312  30.324   5.173  14.963
    1STR   H08736313  30.293   5.183  14.859
    1STR   H08836314  30.234   5.156  15.022
    1STR   O08936315  30.391   5.291  15.008
    1STR   C09036316  30.316   5.411  14.995
    1STR   H09136317  30.266   5.414  14.898
    1STR   C09236318  30.213   5.422  15.108
    1STR   H09336319  30.262   5.415  15.206
    1STR   H09436320  30.137   5.344  15.102
    1STR   H09536321  30.162   5.518  15.104
    1STR   C09636322  30.417   5.528  14.999
    1STR   H09736323  30.468   5.529  15.095
    1STR   H09836324  30.492   5.512  14.922
    1STR   O09936325  30.348   5.651  14.976
    1STR   C10036326  30.429   5.767  14.982
    1STR   H10136327  30.498   5.761  15.066
    1STR   C10236328  30.507   5.783  14.850
    1STR   H10336329  30.440   5.784  14.765
    1STR   H10436330  30.579   5.702  14.835
    1STR   H10536331  30.563   5.876  14.850
    1STR   C10636332  30.336   5.887  15.006
    1STR   H10736333  30.266   5.897  14.923
    1STR   H10836334  30.277   5.868  15.095
    1STR   O10936335  30.414   6.006  15.021
    1STR   C11036336  30.339   6.125  15.041
    1STR   H11136337  30.253   6.128  14.972
    1STR   C11236338  30.290   6.134  15.186
    1STR   H11336339  30.373   6.126  15.256
    1STR   H11436340  30.219   6.055  15.210
    1STR   H11536341  30.239   6.229  15.204
    1STR   C11636342  30.431   6.243  15.006
    1STR   H11736343  30.516   6.245  15.073
    1STR   H11836344  30.470   6.229  14.905
    1STR   O11936345  30.357   6.365  15.014
    1STR   C12036346  30.432   6.483  14.988
    1STR   H12136347  30.530   6.478  15.037
    1STR   C12236348  30.451   6.500  14.836
    1STR   H12336349  30.355   6.501  14.784
    1STR   H12436350  30.512   6.421  14.793
    1STR   H12536351  30.501   6.595  14.814
    1STR   C12636352  30.355   6.601  15.048
    1STR   H12736353  30.257   6.610  15.000
    1STR   H12836354  30.336   6.581  15.154
    1STR   O12936355  30.431   6.721  15.033
    1STR   C13036356  30.368   6.839  15.082
    1STR   H13136357  30.263   6.840  15.053
    1STR   C13236358  30.381   6.846  15.235
    1STR   H13336359  30.485   6.839  15.265
    1STR   H13436360  30.327   6.766  15.284
    1STR   H13536361  30.341   6.940  15.272
    1STR   C13636362  30.437   6.958  15.014
    1STR   H13736363  30.543   6.961  15.042
    1STR   H13836364  30.433   6.945  14.906
    1STR   O13936365  30.372   7.079  15.053
    1STR   C14036366  30.429   7.198  15.000
    1STR   H14136367  30.538   7.194  15.006
    1STR   C14236368  30.385   7.217  14.853
    1STR   H14336369  30.277   7.216  14.844
    1STR   H14436370  30.425   7.139  14.788
    1STR   H14536371  30.421   7.312  14.814
    1STR   C14636372  30.381   7.315  15.088
    1STR   H14736373  30.272   7.323  15.082
    1STR   H14836374  30.406   7.294  15.192
    1STR   O14936375  30.443   7.436  15.044
    1STR   C15036376  30.404   7.553  15.116
    1STR   H15136377  30.295   7.553  15.131
    1STR   C15236378  30.477   7.559  15.251
    1STR   H15336379  30.585   7.554  15.237
    1STR   H15436380  30.447   7.478  15.317
    1STR   H15536381  30.454   7.652  15.302
    1STR   C15636382  30.438   7.673  15.027
    1STR   H15736383  30.546   7.678  15.011
    1STR   H15836384  30.391   7.661  14.930
    1STR   O15936385  30.392   7.793  15.090
    1STR   C16036386  30.422   7.913  15.020
    1STR   H16136387  30.525   7.911  14.982
    1STR   C16236388  30.324   7.932  14.904
    1STR   H16336389  30.220   7.930  14.939
    1STR   H16436390  30.335   7.855  14.827
    1STR   H16536391  30.340   8.028  14.854
    1STR   C16636392  30.412   8.029  15.121
    1STR   H16736393  30.310   8.035  15.160
    1STR   H16836394  30.477   8.007  15.206
    1STR   O16936395  30.450   8.151  15.058
    1STR   C17036396  30.441   8.267  15.140
    1STR   H17136397  30.348   8.265  15.198
    1STR   C17236398  30.562   8.273  15.235
    1STR   H17336399  30.655   8.270  15.179
    1STR   H17436400  30.562   8.191  15.307
    1STR   H17536401  30.560   8.366  15.292
    1STR   C17636402  30.436   8.389  15.047
    1STR   H17736403  30.528   8.394  14.988
    1STR   H17836404  30.354   8.376  14.976
    1STR   O17936405  30.417   8.507  15.124
    1STR   C18036406  30.415   8.628  15.049
    1STR   H18136407  30.494   8.628  14.974
    1STR   C18236408  30.278   8.646  14.982
    1STR   H18336409  30.197   8.642  15.056
    1STR   H18436410  30.259   8.569  14.907
    1STR   H18536411  30.272   8.742  14.932
    1STR   C18636412  30.444   8.743  15.147
    1STR   H18736413  30.367   8.747  15.224
    1STR   H18836414  30.538   8.722  15.199
    1STR   O18936415  30.453   8.866  15.076
    1STR   C19036416  30.476   8.981  15.156
    1STR   H19136417  30.414   8.978  15.246
    1STR   C19236418  30.624   8.989  15.195
    1STR   H19336419  30.688   8.988  15.106
    1STR   H19436420  30.655   8.907  15.259
    1STR   H19536421  30.645   9.081  15.249
    1STR   C19636422  30.433   9.103  15.074
    1STR   H19736423  30.494   9.111  14.984
    1STR   H19836424  30.330   9.090  15.042
    1STR   O19936425  30.445   9.221  15.153
    1STR   C20036426  30.412   9.343  15.087
    1STR   H20136427  30.454   9.344  14.987
    1STR   C20236428  30.259   9.358  15.081
    1STR   H20336429  30.215   9.353  15.181
    1STR   H20436430  30.212   9.282  15.019
    1STR   H20536431  30.232   9.455  15.038
    1STR   C20636432  30.477   9.457  15.167
    1STR   H20736433  30.436   9.460  15.268
    1STR   H20836434  30.584   9.438  15.176
    1STR   O20936435  30.454   9.581  15.099
    1STR   C21036436  30.506   9.696  15.165
    1STR   H21136437  30.485   9.691  15.272
    1STR   C21236438  30.657   9.706  15.141
    1STR   H21336439  30.680   9.706  15.034
    1STR   H21436440  30.712   9.624  15.187
    1STR   H21536441  30.697   9.798  15.183
    1STR   C21636442  30.432   9.819  15.108
    1STR   H21736443  30.452   9.827  15.001
    1STR   H21836444  30.325   9.804  15.120
    1STR   O21936445  30.474   9.936  15.177
    1STR   C22036446  30.415  10.058  15.131
    1STR   H22136447  30.413  10.060  15.022
    1STR   C22236448  30.273  10.071  15.187
    1STR   H22336449  30.272  10.063  15.296
    1STR   H22436450  30.206   9.994  15.148
    1STR   H22536451  30.229  10.167  15.160
    1STR   C22636452  30.505  10.173  15.179
    1STR   H22736453  30.508  10.175  15.288
    1STR   H22836454  30.607  10.155  15.145
    1STR   O22936455  30.455  10.297  15.129
    1STR   C23036456  30.528  10.413  15.169
    1STR   H23136457  30.552  10.407  15.275
    1STR   C23236458  30.657  10.425  15.086
    1STR   H23336459  30.636  10.425  14.980
    1STR   H23436460  30.726  10.343  15.106
    1STR   H23536461  30.709  10.517  15.110
    1STR   C23636462  30.436  10.535  15.148
    1STR   H23736463  30.411  10.544  15.042
    1STR   H23836464  30.343  10.518  15.201
    1STR   O23936465  30.501  10.653  15.195
    1STR   C24036466  30.427  10.774  15.178
    1STR   H24136467  30.382  10.777  15.079
    1STR   C24236468  30.318  10.783  15.286
    1STR   H24336469  30.361  10.775  15.386
    1STR   H24436470  30.243  10.706  15.276
    1STR   H24536471  30.267  10.879  15.280
    1STR   C24636472  30.527  10.891  15.188
    1STR   H24736473  30.573  10.892  15.287
    1STR   H24836474  30.606  10.876  15.116
    1STR   O24936475  30.460  11.015  15.164
    1STR   C25036476  30.541  11.132  15.172
    1STR   H25136477  30.606  11.126  15.260
    1STR   C25236478  30.626  11.145  15.045
    1STR   H25336479  30.564  11.145  14.956
    1STR   H25436480  30.699  11.064  15.035
    1STR   H25536481  30.683  11.238  15.046
    1STR   C25636482  30.448  11.253  15.190
    1STR   H25736483  30.382  11.263  15.103
    1STR   H25836484  30.384  11.236  15.277
    1STR   O25936485  30.524  11.373  15.208
    1STR   C26036486  30.449  11.493  15.224
    1STR   H26136487  30.367  11.496  15.152
    1STR   C26236488  30.392  11.499  15.367
    1STR   H26336489  30.471  11.490  15.441
    1STR   H26436490  30.319  11.420  15.386
    1STR   H26536491  30.341  11.594  15.384
    1STR   C26636492  30.542  11.613  15.196
    1STR   H26736493  30.624  11.614  15.268
    1STR   H26836494  30.586  11.600  15.097
    1STR   O26936495  30.469  11.737  15.203
    1STR   C27036496  30.546  11.856  15.178
    1STR   H27136497  30.640  11.851  15.233
    1STR   C27236498  30.573  11.869  15.028
    1STR   H27336499  30.480  11.867  14.971
    1STR   H27436500  30.637  11.790  14.990
    1STR   H27536501  30.623  11.963  15.006
    1STR   C27636502  30.467  11.978  15.232
    1STR   H27736503  30.371  11.986  15.180
    1STR   H27836504  30.443  11.959  15.337
    1STR   O27936505  30.541  12.099  15.218
    1STR   C28036506  30.478  12.219  15.266
    1STR   H28136507  30.374  12.221  15.232
    1STR   C28236508  30.483  12.221  15.420
    1STR   H28336509  30.586  12.211  15.456
    1STR   H28436510  30.424  12.141  15.464
    1STR   H28536511  30.443  12.315  15.458
    1STR   C28636512  30.549  12.343  15.206
    1STR   H28736513  30.654  12.344  15.238
    1STR   H28836514  30.550  12.333  15.098
    1STR   O28936515  30.485  12.466  15.245
    1STR   C29036516  30.541  12.588  15.192
    1STR   H29136517  30.650  12.586  15.205
    1STR   C29236518  30.507  12.599  15.043
    1STR   H29336519  30.400  12.593  15.026
    1STR   H29436520  30.555  12.522  14.983
    1STR   H29536521  30.541  12.695  15.002
    1STR   C29636522  30.486  12.710  15.271
    1STR   H29736523  30.377  12.712  15.263
    1STR   H29836524  30.510  12.696  15.376
    1STR   O29936525  30.540  12.835  15.225
    1STR   C30036526  30.494  12.955  15.291
    1STR   H30136527  30.386  12.948  15.305
    1STR   C30236528  30.564  12.965  15.428
    1STR   H30336529  30.672  12.960  15.417
    1STR   H30436530  30.533  12.885  15.496
    1STR   H30536531  30.539  13.060  15.477
    1STR   C30636532  30.523  13.080  15.203
    1STR   H30736533  30.631  13.099  15.199
    1STR   H30836534  30.493  13.054  15.102
    1STR   O30936535  30.453  13.200  15.245
    1STR    H1R36536  30.574  13.336  15.146
    1STR    H1S36537  30.400  13.383  14.964
    1STR    H1T36538  30.295  13.263  15.040
    1STR    H1U36539  30.448  13.215  14.967
    1STR    H1V36540  30.449  13.463  15.324
    1STR    H1W36541  30.298  13.433  15.241
    1STR    H1X36542  30.496  13.739  15.043
    1STR    H1Y36543  30.573  13.943  14.996
    1STR    H1Z36544  30.537  14.166  14.908
    1STR    H2036545  30.281  14.296  14.754
    1STR    H2136546  30.248  14.358  14.919
    1STR    H2236547  30.412  14.347  14.859
    1STR    H2336548  30.011  14.060  14.987
    1STR    H2736549  30.148  13.882  15.022
    1STR    H2836550  30.472   1.339  14.874
    1STR    H2936551  30.523   1.104  14.889
    1STR    H2A36552  30.296   0.842  14.998
    1STR    H2B36553  30.462   0.895  14.982
    1STR    H2C36554  30.376   0.840  14.839
    1STR   BCK136555  29.940   0.847  29.995
    1STR    O0336556  29.878   0.814  30.095
    1STR    N0436557  29.955   0.975  29.955
    1STR    C0536558  29.864   1.081  29.977
    1STR    C0636559  29.906   1.214  30.011
    1STR    C0736560  29.814   1.323  30.022
    1STR    N0836561  29.855   1.457  30.049
    1STR    C0936562  29.786   1.572  30.029
    1STR    O0A36563  29.675   1.578  29.977
    1STR    O0B36564  29.852   1.684  30.073
    1STR    C0C36565  29.782   1.811  30.076
    1STR    C0D36566  29.710   1.825  30.211
    1STR    C0E36567  29.873   1.934  30.049
    1STR    O0F36568  29.794   2.054  30.048
    1STR    C0G36569  29.861   2.177  30.017
    1STR    C0H36570  29.885   2.185  29.865
    1STR    C0I36571  29.776   2.297  30.065
    1STR    O0J36572  29.845   2.420  30.042
    1STR    C0K36573  29.868  13.294  29.665
    1STR    C0M36574  29.842  13.301  29.817
    1STR    C0N36575  29.951  13.416  29.619
    1STR    O0O36576  29.869  13.533  29.612
    1STR    C0P36577  29.897  13.647  29.680
    1STR    O0Q36578  29.993  13.664  29.754
    1STR    N0R36579  29.801  13.736  29.658
    1STR    C0S36580  29.774  13.858  29.721
    1STR    C0T36581  29.644  13.874  29.771
    1STR    C0U36582  29.608  13.990  29.842
    1STR    C0V36583  29.701  14.095  29.859
    1STR    C0W36584  29.664  14.209  29.953
    1STR    C0X36585  29.828  14.087  29.797
    1STR    N0Y36586  29.919  14.193  29.810
    1STR   BCK236587  29.909  14.321  29.773
    1STR    O1036588  29.993  14.402  29.812
    1STR    C1336589  29.866  13.965  29.734
    1STR    C1436590  29.677   1.292  30.004
    1STR    C1536591  29.635   1.164  29.967
    1STR    C1636592  29.727   1.060  29.949
    1STR    C1736593  29.674   0.930  29.891
    1STR    H1B36594  30.028   0.991  29.888
    1STR    H1C36595  30.011   1.232  30.028
    1STR    H1D36596  29.946   1.472  30.087
    1STR    H1E36597  29.707   1.813  29.997
    1STR    H1F36598  29.780   1.828  30.294
    1STR    H1G36599  29.651   1.917  30.214
    1STR    H1H36600  29.641   1.742  30.227
    1STR    H1I36601  29.923   1.920  29.953
    1STR    H1J36602  29.951   1.941  30.125
    1STR    H1K36603  29.957   2.181  30.070
    1STR    H1M36604  29.791   2.178  29.810
    1STR    H1N36605  29.951   2.107  29.829
    1STR    H1O36606  29.931   2.281  29.839
    1STR    H1P36607  29.680   2.297  30.013
    1STR    H1Q36608  29.754   2.285  30.171
    1STR   C01036609  29.775   2.540  30.076
    1STR   H01136610  29.672   2.535  30.039
    1STR   C01236611  29.775   2.559  30.228
    1STR   H01336612  29.876   2.560  30.268
    1STR   H01436613  29.718   2.481  30.280
    1STR   H01536614  29.729   2.654  30.255
    1STR   C01636615  29.845   2.659  30.006
    1STR   H01736616  29.948   2.666  30.039
    1STR   H01836617  29.847   2.640  29.899
    1STR   O01936618  29.776   2.782  30.033
    1STR   C02036619  29.834   2.899  29.976
    1STR   H02136620  29.943   2.897  29.990
    1STR   C02236621  29.801   2.907  29.826
    1STR   H02336622  29.694   2.905  29.809
    1STR   H02436623  29.846   2.825  29.770
    1STR   H02536624  29.839   3.000  29.783
    1STR   C02636625  29.780   3.023  30.051
    1STR   H02736626  29.672   3.029  30.039
    1STR   H02836627  29.799   3.011  30.158
    1STR   O02936628  29.842   3.142  30.002
    1STR   C03036629  29.797   3.264  30.060
    1STR   H03136630  29.688   3.264  30.068
    1STR   C03236631  29.861   3.282  30.199
    1STR   H03336632  29.970   3.278  30.193
    1STR   H03436633  29.828   3.206  30.270
    1STR   H03536634  29.833   3.379  30.241
    1STR   C03636635  29.837   3.379  29.966
    1STR   H03736636  29.945   3.384  29.956
    1STR   H03836637  29.796   3.360  29.867
    1STR   O03936638  29.786   3.503  30.016
    1STR   C04036639  29.820   3.619  29.940
    1STR   H04136640  29.925   3.615  29.910
    1STR   C04236641  29.730   3.628  29.816
    1STR   H04336642  29.624   3.627  29.844
    1STR   H04436643  29.747   3.545  29.747
    1STR   H04536644  29.749   3.720  29.761
    1STR   C04636645  29.801   3.742  30.031
    1STR   H04736646  29.697   3.750  30.062
    1STR   H04836647  29.861   3.729  30.121
    1STR   O04936648  29.842   3.860  29.961
    1STR   C05036649  29.826   3.982  30.033
    1STR   H05136650  29.729   3.983  30.084
    1STR   C05236651  29.940   3.998  30.135
    1STR   H05336652  30.037   3.992  30.087
    1STR   H05436653  29.936   3.922  30.213
    1STR   H05536654  29.933   4.094  30.185
    1STR   C05636655  29.826   4.097  29.931
    1STR   H05736656  29.922   4.100  29.879
    1STR   H05836657  29.750   4.078  29.856
    1STR   O05936658  29.802   4.220  29.998
    1STR   C06036659  29.803   4.336  29.914
    1STR   H06136660  29.887   4.331  29.844
    1STR   C06236661  29.671   4.347  29.837
    1STR   H06336662  29.586   4.347  29.905
    1STR   H06436663  29.657   4.265  29.767
    1STR   H06536664  29.667   4.439  29.779
    1STR   C06636665  29.825   4.458  30.005
    1STR   H06736666  29.742   4.468  30.075
    1STR   H06836667  29.915   4.443  30.064
    1STR   O06936668  29.837   4.576  29.925
    1STR   C07036669  29.853   4.697  29.998
    1STR   H07136670  29.785   4.700  30.083
    1STR   C07236671  29.998   4.711  30.045
    1STR   H07336672  30.068   4.704  29.962
    1STR   H07436673  30.025   4.634  30.118
    1STR   H07536674  30.014   4.807  30.094
    1STR   C07636675  29.814   4.813  29.903
    1STR   H07736676  29.881   4.814  29.817
    1STR   H07836677  29.714   4.795  29.865
    1STR   O07936678  29.820   4.936  29.974
    1STR   C08036679  29.790   5.052  29.897
    1STR   H08136680  29.839   5.046  29.800
    1STR   C08236681  29.638   5.065  29.879
    1STR   H08336682  29.587   5.066  29.976
    1STR   H08436683  29.596   4.984  29.820
    1STR   H08536684  29.613   5.158  29.828
    1STR   C08636685  29.848   5.173  29.972
    1STR   H08736686  29.801   5.183  30.069
    1STR   H08836687  29.955   5.156  29.990
    1STR   O08936688  29.829   5.291  29.894
    1STR   C09036689  29.875   5.411  29.954
    1STR   H09136690  29.847   5.414  30.059
    1STR   C09236691  30.028   5.422  29.940
    1STR   H09336692  30.058   5.415  29.835
    1STR   H09436693  30.080   5.345  29.995
    1STR   H09536694  30.063   5.518  29.978
    1STR   C09636695  29.804   5.528  29.883
    1STR   H09736696  29.831   5.529  29.777
    1STR   H09836697  29.696   5.512  29.888
    1STR   O09936698  29.840   5.651  29.946
    1STR   C10036699  29.783   5.767  29.887
    1STR   H10136700  29.789   5.762  29.778
    1STR   C10236701  29.637   5.783  29.931
    1STR   H10336702  29.629   5.784  30.040
    1STR   H10436703  29.574   5.702  29.894
    1STR   H10536704  29.595   5.876  29.894
    1STR   C10636705  29.868   5.887  29.932
    1STR   H10736706  29.864   5.897  30.041
    1STR   H10836707  29.973   5.868  29.906
    1STR   O10936708  29.822   6.006  29.868
    1STR   C11036709  29.890   6.125  29.905
    1STR   H11136710  29.906   6.128  30.013
    1STR   C11236711  30.024   6.134  29.831
    1STR   H11336712  30.010   6.126  29.723
    1STR   H11436713  30.093   6.055  29.861
    1STR   H11536714  30.074   6.229  29.851
    1STR   C11636715  29.798   6.243  29.869
    1STR   H11736716  29.780   6.245  29.761
    1STR   H11836717  29.701   6.229  29.917
    1STR   O11936718  29.858   6.365  29.912
    1STR   C12036719  29.785   6.483  29.881
    1STR   H12136720  29.747   6.478  29.778
    1STR   C12236721  29.668   6.500  29.980
    1STR   H12336722  29.704   6.501  30.083
    1STR   H12436723  29.594   6.421  29.970
    1STR   H12536724  29.617   6.595  29.962
    1STR   C12636725  29.883   6.601  29.888
    1STR   H12736726  29.922   6.610  29.990
    1STR   H12836727  29.968   6.581  29.823
    1STR   O12936728  29.816   6.721  29.848
    1STR   C13036729  29.896   6.839  29.855
    1STR   H13136730  29.954   6.840  29.947
    1STR   C13236731  29.989   6.846  29.733
    1STR   H13336732  29.933   6.839  29.640
    1STR   H13436733  30.063   6.766  29.733
    1STR   H13536734  30.044   6.940  29.732
    1STR   C13636735  29.799   6.958  29.858
    1STR   H13736736  29.740   6.961  29.766
    1STR   H13836737  29.729   6.945  29.941
    1STR   O13936738  29.873   7.079  29.874
    1STR   C14036739  29.795   7.198  29.874
    1STR   H14136740  29.719   7.194  29.796
    1STR   C14236741  29.729   7.217  30.011
    1STR   H14336742  29.803   7.216  30.091
    1STR   H14436743  29.656   7.139  30.033
    1STR   H14536744  29.676   7.312  30.016
    1STR   C14636745  29.890   7.315  29.842
    1STR   H14736746  29.967   7.323  29.919
    1STR   H14836747  29.942   7.294  29.748
    1STR   O14936748  29.815   7.436  29.832
    1STR   C15036749  29.892   7.553  29.806
    1STR   H15136750  29.983   7.553  29.867
    1STR   C15236751  29.930   7.559  29.657
    1STR   H15336752  29.841   7.554  29.594
    1STR   H15436753  29.996   7.478  29.628
    1STR   H15536754  29.981   7.652  29.634
    1STR   C15636755  29.807   7.674  29.847
    1STR   H15736756  29.716   7.678  29.787
    1STR   H15836757  29.776   7.661  29.951
    1STR   O15936758  29.884   7.793  29.832
    1STR   C16036759  29.814   7.913  29.864
    1STR   H16136760  29.713   7.911  29.822
    1STR   C16236761  29.808   7.932  30.016
    1STR   H16336762  29.908   7.930  30.060
    1STR   H16436763  29.749   7.855  30.065
    1STR   H16536764  29.763   8.028  30.042
    1STR   C16636765  29.890   8.029  29.796
    1STR   H16736766  29.992   8.035  29.836
    1STR   H16836767  29.899   8.007  29.690
    1STR   O16936768  29.820   8.151  29.817
    1STR   C17036769  29.882   8.267  29.762
    1STR   H17136770  29.989   8.265  29.783
    1STR   C17236771  29.857   8.273  29.611
    1STR   H17336772  29.750   8.270  29.589
    1STR   H17436773  29.904   8.191  29.557
    1STR   H17536774  29.896   8.366  29.569
    1STR   C17636775  29.822   8.388  29.835
    1STR   H17736776  29.715   8.394  29.815
    1STR   H17836777  29.835   8.376  29.942
    1STR   O17936778  29.888   8.507  29.790
    1STR   C18036779  29.839   8.628  29.847
    1STR   H18136780  29.730   8.627  29.849
    1STR   C18236781  29.895   8.646  29.989
    1STR   H18336782  30.004   8.642  29.989
    1STR   H18436783  29.858   8.569  30.057
    1STR   H18536784  29.865   8.742  30.030
    1STR   C18636785  29.884   8.743  29.755
    1STR   H18736786  29.993   8.747  29.751
    1STR   H18836787  29.850   8.722  29.653
    1STR   O18936788  29.829   8.866  29.802
    1STR   C19036789  29.867   8.981  29.727
    1STR   H19136790  29.973   8.977  29.702
    1STR   C19236791  29.783   8.989  29.598
    1STR   H19336792  29.676   8.988  29.620
    1STR   H19436793  29.804   8.906  29.530
    1STR   H19536794  29.804   9.081  29.544
    1STR   C19636795  29.843   9.103  29.817
    1STR   H19736796  29.737   9.111  29.842
    1STR   H19836797  29.897   9.090  29.910
    1STR   O19936798  29.887   9.221  29.750
    1STR   C20036799  29.867   9.342  29.821
    1STR   H20136800  29.768   9.344  29.867
    1STR   C20236801  29.976   9.358  29.929
    1STR   H20336802  30.076   9.353  29.885
    1STR   H20436803  29.969   9.282  30.006
    1STR   H20536804  29.967   9.455  29.979
    1STR   C20636805  29.873   9.457  29.719
    1STR   H20736806  29.972   9.460  29.672
    1STR   H20836807  29.801   9.438  29.640
    1STR   O20936808  29.844   9.580  29.784
    1STR   C21036809  29.850   9.696  29.700
    1STR   H21136810  29.938   9.691  29.635
    1STR   C21236811  29.722   9.706  29.616
    1STR   H21336812  29.633   9.706  29.679
    1STR   H21436813  29.713   9.624  29.545
    1STR   H21536814  29.722   9.798  29.558
    1STR   C21636815  29.866   9.818  29.792
    1STR   H21736816  29.780   9.827  29.858
    1STR   H21836817  29.954   9.803  29.856
    1STR   O21936818  29.882   9.935  29.713
    1STR   C22036819  29.895  10.057  29.786
    1STR   H22136820  29.822  10.059  29.868
    1STR   C22236821  30.037  10.070  29.842
    1STR   H22336822  30.111  10.063  29.762
    1STR   H22436823  30.060   9.993  29.915
    1STR   H22536824  30.051  10.166  29.891
    1STR   C22636825  29.861  10.172  29.690
    1STR   H22736826  29.932  10.174  29.608
    1STR   H22836827  29.763  10.154  29.647
    1STR   O22936828  29.863  10.295  29.761
    1STR   C23036829  29.837  10.411  29.682
    1STR   H23136830  29.891  10.405  29.588
    1STR   C23236831  29.686  10.424  29.656
    1STR   H23336832  29.630  10.425  29.750
    1STR   H23436833  29.648  10.342  29.595
    1STR   H23536834  29.663  10.516  29.603
    1STR   C23636835  29.890  10.533  29.760
    1STR   H23736836  29.837  10.543  29.855
    1STR   H23836837  29.995  10.516  29.784
    1STR   O23936838  29.875  10.650  29.681
    1STR   C24036839  29.918  10.771  29.743
    1STR   H24136840  29.884  10.774  29.847
    1STR   C24236841  30.071  10.782  29.737
    1STR   H24336842  30.107  10.774  29.634
    1STR   H24436843  30.120  10.704  29.796
    1STR   H24536844  30.105  10.878  29.777
    1STR   C24636845  29.851  10.888  29.669
    1STR   H24736846  29.883  10.889  29.565
    1STR   H24836847  29.743  10.872  29.669
    1STR   O24936848  29.883  11.011  29.733
    1STR   C25036849  29.829  11.128  29.671
    1STR   H25136850  29.841  11.122  29.563
    1STR   C25236851  29.680  11.142  29.708
    1STR   H25336852  29.666  11.143  29.816
    1STR   H25436853  29.620  11.062  29.667
    1STR   H25536854  29.640  11.235  29.668
    1STR   C25636855  29.911  11.248  29.721
    1STR   H25736856  29.900  11.258  29.829
    1STR   H25836857  30.016  11.230  29.701
    1STR   O25936858  29.867  11.367  29.655
    1STR   C26036859  29.933  11.487  29.695
    1STR   H26136860  29.944  11.490  29.804
    1STR   C26236861  30.071  11.495  29.628
    1STR   H26336862  30.063  11.486  29.520
    1STR   H26436863  30.138  11.416  29.663
    1STR   H26536864  30.120  11.590  29.651
    1STR   C26636865  29.844  11.606  29.653
    1STR   H26736866  29.832  11.607  29.545
    1STR   H26836867  29.745  11.592  29.696
    1STR   O26936868  29.902  11.728  29.699
    1STR   C27036869  29.829  11.846  29.664
    1STR   H27136870  29.797  11.841  29.560
    1STR   C27236871  29.708  11.862  29.757
    1STR   H27336872  29.738  11.862  29.861
    1STR   H27436873  29.635  11.782  29.743
    1STR   H27536874  29.656  11.956  29.737
    1STR   C27636875  29.926  11.966  29.677
    1STR   H27736876  29.960  11.975  29.780
    1STR   H27836877  30.014  11.947  29.616
    1STR   O27936878  29.861  12.087  29.635
    1STR   C28036879  29.940  12.206  29.644
    1STR   H28136880  29.993  12.207  29.740
    1STR   C28236881  30.040  12.211  29.528
    1STR   H28336882  29.988  12.202  29.432
    1STR   H28436883  30.114  12.131  29.533
    1STR   H28536884  30.094  12.305  29.528
    1STR   C28636885  29.844  12.327  29.641
    1STR   H28736886  29.789  12.328  29.547
    1STR   H28836887  29.771  12.315  29.721
    1STR   O28936888  29.917  12.449  29.659
    1STR   C29036889  29.840  12.569  29.657
    1STR   H29136890  29.768  12.565  29.574
    1STR   C29236891  29.765  12.585  29.790
    1STR   H29336892  29.834  12.582  29.874
    1STR   H29436893  29.691  12.507  29.805
    1STR   H29536894  29.712  12.680  29.794
    1STR   C29636895  29.935  12.688  29.632
    1STR   H29736896  30.009  12.693  29.712
    1STR   H29836897  29.990  12.669  29.540
    1STR   O29936898  29.863  12.811  29.622
    1STR   C30036899  29.942  12.928  29.600
    1STR   H30136900  30.030  12.926  29.664
    1STR   C30236901  29.985  12.934  29.452
    1STR   H30336902  29.899  12.928  29.386
    1STR   H30436903  30.053  12.853  29.426
    1STR   H30536904  30.037  13.027  29.431
    1STR   C30636905  29.858  13.052  29.639
    1STR   H30736906  29.772  13.060  29.573
    1STR   H30836907  29.820  13.037  29.740
    1STR   O30936908  29.937  13.173  29.633
    1STR    H1R36909  29.773  13.296  29.611
    1STR    H1S36910  29.799  13.397  29.844
    1STR    H1T36911  29.934  13.290  29.873
    1STR    H1U36912  29.772  13.224  29.851
    1STR    H1V36913  29.990  13.398  29.519
    1STR    H1W36914  30.038  13.431  29.684
    1STR    H1X36915  29.732  13.701  29.594
    1STR    H1Y36916  29.571  13.795  29.761
    1STR    H1Z36917  29.510  13.997  29.885
    1STR    H2036918  29.737  14.215  30.033
    1STR    H2136919  29.662  14.305  29.903
    1STR    H2236920  29.566  14.194  29.998
    1STR    H2336921  30.006  14.173  29.857
    1STR    H2736922  29.966  13.955  29.693
    1STR    H2836923  29.599   1.366  30.016
    1STR    H2936924  29.530   1.148  29.948
    1STR    H2A36925  29.743   0.890  29.817
    1STR    H2B36926  29.578   0.944  29.841
    1STR    H2C36927  29.660   0.856  29.970
    1STR   BCK136928  30.059   0.863  45.091
    1STR    O0336929  30.155   0.794  45.122
    1STR    N0436930  30.041   0.991  45.130
    1STR    C0536931  30.116   1.076  45.216
    1STR    C0636932  30.125   1.217  45.189
    1STR    C0736933  30.195   1.310  45.273
    1STR    N0836934  30.197   1.450  45.246
    1STR    C0936935  30.252   1.553  45.316
    1STR    O0A36936  30.317   1.540  45.419
    1STR    O0B36937  30.229   1.676  45.259
    1STR    C0C36938  30.286   1.796  45.318
    1STR    C0D36939  30.433   1.809  45.274
    1STR    C0E36940  30.207   1.925  45.283
    1STR    O0F36941  30.268   2.043  45.339
    1STR    C0G36942  30.200   2.168  45.317
    1STR    C0H36943  30.080   2.178  45.413
    1STR    C0I36944  30.296   2.288  45.339
    1STR    O0J36945  30.229   2.412  45.310
    1STR    C0K36946  29.949  13.311  45.531
    1STR    C0M36947  30.080  13.307  45.450
    1STR    C0N36948  29.858  13.425  45.477
    1STR    O0O36949  29.918  13.554  45.493
    1STR    C0P36950  29.900  13.655  45.403
    1STR    O0Q36951  29.839  13.646  45.297
    1STR    N0R36952  29.960  13.765  45.448
    1STR    C0S36953  29.984  13.894  45.397
    1STR    C0T36954  30.072  13.973  45.474
    1STR    C0U36955  30.112  14.100  45.431
    1STR    C0V36956  30.064  14.154  45.310
    1STR    C0W36957  30.126  14.285  45.263
    1STR    C0X36958  29.967  14.083  45.234
    1STR    N0Y36959  29.918  14.139  45.114
    1STR   BCK236960  29.867  14.262  45.093
    1STR    O1036961  29.836  14.341  45.182
    1STR    C1336962  29.931  13.951  45.277
    1STR    C1436963  30.259   1.255  45.387
    1STR    C1536964  30.249   1.119  45.418
    1STR    C1636965  30.176   1.030  45.337
    1STR    C1736966  30.160   0.889  45.392
    1STR    H1B36967  29.960   1.033  45.087
    1STR    H1C36968  30.078   1.255  45.100
    1STR    H1D36969  30.150   1.482  45.164
    1STR    H1E36970  30.284   1.786  45.426
    1STR    H1F36971  30.442   1.820  45.166
    1STR    H1G36972  30.480   1.896  45.320
    1STR    H1H36973  30.492   1.722  45.304
    1STR    H1I36974  30.105   1.914  45.320
    1STR    H1J36975  30.201   1.936  45.174
    1STR    H1K36976  30.166   2.172  45.214
    1STR    H1M36977  30.112   2.171  45.517
    1STR    H1N36978  30.006   2.101  45.395
    1STR    H1O36979  30.029   2.274  45.400
    1STR    H1P36980  30.332   2.289  45.442
    1STR    H1Q36981  30.383   2.277  45.275
    1STR   C01036982  30.303   2.533  45.331
    1STR   H01136983  30.354   2.529  45.427
    1STR   C01236984  30.406   2.552  45.218
    1STR   H01336985  30.357   2.553  45.120
    1STR   H01436986  30.482   2.475  45.218
    1STR   H01536987  30.457   2.648  45.229
    1STR   C01636988  30.204   2.653  45.335
    1STR   H01736989  30.150   2.659  45.241
    1STR   H01836990  30.130   2.634  45.413
    1STR   O01936991  30.273   2.776  45.360
    1STR   C02036992  30.191   2.894  45.362
    1STR   H02136993  30.121   2.892  45.278
    1STR   C02236994  30.114   2.903  45.495
    1STR   H02336995  30.182   2.901  45.580
    1STR   H02436996  30.043   2.821  45.506
    1STR   H02536997  30.057   2.995  45.500
    1STR   C02636998  30.282   3.019  45.344
    1STR   H02736999  30.354   3.025  45.425
    1STR   H02837000  30.339   3.007  45.252
    1STR   O02937001  30.202   3.138  45.338
    1STR   C03037002  30.275   3.261  45.326
    1STR   H03137003  30.361   3.260  45.393
    1STR   C03237004  30.322   3.279  45.181
    1STR   H03337005  30.238   3.276  45.111
    1STR   H03437006  30.394   3.203  45.151
    1STR   H03537007  30.371   3.376  45.168
    1STR   C03637008  30.182   3.377  45.369
    1STR   H03737009  30.095   3.381  45.304
    1STR   H03837010  30.145   3.357  45.470
    1STR   O03937011  30.253   3.501  45.365
    1STR   C04037012  30.177   3.617  45.399
    1STR   H04137013  30.080   3.613  45.350
    1STR   C04237014  30.160   3.626  45.551
    1STR   H04337015  30.256   3.625  45.602
    1STR   H04437016  30.100   3.544  45.591
    1STR   H04537017  30.109   3.718  45.579
    1STR   C04637018  30.252   3.740  45.344
    1STR   H04737019  30.350   3.748  45.391
    1STR   H04837020  30.269   3.727  45.237
    1STR   O04937021  30.175   3.858  45.368
    1STR   C05037022  30.236   3.980  45.326
    1STR   H05137023  30.341   3.982  45.354
    1STR   C05237024  30.221   3.996  45.174
    1STR   H05337025  30.116   3.991  45.144
    1STR   H05437026  30.276   3.920  45.119
    1STR   H05537027  30.259   4.093  45.142
    1STR   C05637028  30.166   4.096  45.401
    1STR   H05737029  30.060   4.099  45.375
    1STR   H05837030  30.172   4.077  45.509
    1STR   O05937031  30.229   4.219  45.369
    1STR   C06037032  30.172   4.335  45.429
    1STR   H06137033  30.063   4.330  45.424
    1STR   C06237034  30.217   4.346  45.576
    1STR   H06337035  30.326   4.346  45.583
    1STR   H06437036  30.180   4.264  45.637
    1STR   H06537037  30.181   4.438  45.621
    1STR   C06637038  30.217   4.458  45.348
    1STR   H06737039  30.326   4.467  45.352
    1STR   H06837040  30.190   4.443  45.243
    1STR   O06937041  30.155   4.575  45.399
    1STR   C07037042  30.192   4.697  45.334
    1STR   H07137043  30.300   4.699  45.317
    1STR   C07237044  30.117   4.710  45.201
    1STR   H07337045  30.009   4.703  45.216
    1STR   H07437046  30.146   4.633  45.129
    1STR   H07537047  30.138   4.807  45.154
    1STR   C07637048  30.157   4.812  45.430
    1STR   H07737049  30.049   4.814  45.448
    1STR   H07837050  30.205   4.795  45.526
    1STR   O07937051  30.200   4.936  45.374
    1STR   C08037052  30.170   5.052  45.451
    1STR   H08137053  30.068   5.046  45.489
    1STR   C08237054  30.270   5.065  45.567
    1STR   H08337055  30.373   5.066  45.530
    1STR   H08437056  30.261   4.983  45.638
    1STR   H08537057  30.253   5.158  45.622
    1STR   C08637058  30.178   5.173  45.356
    1STR   H08737059  30.279   5.183  45.317
    1STR   H08837060  30.112   5.156  45.271
    1STR   O08937061  30.139   5.291  45.427
    1STR   C09037062  30.146   5.411  45.351
    1STR   H09137063  30.238   5.414  45.293
    1STR   C09237064  30.024   5.422  45.259
    1STR   H09337065  29.931   5.415  45.315
    1STR   H09437066  30.023   5.344  45.182
    1STR   H09537067  30.023   5.518  45.207
    1STR   C09637068  30.150   5.528  45.451
    1STR   H09737069  30.059   5.529  45.511
    1STR   H09837070  30.233   5.512  45.520
    1STR   O09937071  30.167   5.651  45.381
    1STR   C10037072  30.168   5.767  45.463
    1STR   H10137073  30.091   5.761  45.539
    1STR   C10237074  30.306   5.783  45.529
    1STR   H10337075  30.386   5.784  45.454
    1STR   H10437076  30.328   5.702  45.599
    1STR   H10537077  30.312   5.876  45.585
    1STR   C10637078  30.136   5.887  45.372
    1STR   H10737079  30.213   5.897  45.295
    1STR   H10837080  30.042   5.868  45.321
    1STR   O10937081  30.128   6.006  45.451
    1STR   C11037082  30.102   6.125  45.378
    1STR   H11137083  30.162   6.128  45.287
    1STR   C11237084  29.953   6.134  45.342
    1STR   H11337085  29.890   6.127  45.431
    1STR   H11437086  29.922   6.055  45.273
    1STR   H11537087  29.930   6.229  45.293
    1STR   C11637088  30.145   6.243  45.466
    1STR   H11737089  30.085   6.245  45.558
    1STR   H11837090  30.249   6.229  45.496
    1STR   O11937091  30.130   6.365  45.394
    1STR   C12037092  30.163   6.483  45.466
    1STR   H12137093  30.122   6.478  45.567
    1STR   C12237094  30.316   6.500  45.471
    1STR   H12337095  30.359   6.501  45.371
    1STR   H12437096  30.364   6.421  45.528
    1STR   H12537097  30.342   6.595  45.519
    1STR   C12637098  30.096   6.601  45.394
    1STR   H12737099  30.135   6.611  45.293
    1STR   H12837100  29.989   6.581  45.385
    1STR   O12937101  30.118   6.721  45.469
    1STR   C13037102  30.064   6.839  45.411
    1STR   H13137103  30.083   6.840  45.303
    1STR   C13237104  29.912   6.846  45.437
    1STR   H13337105  29.891   6.839  45.544
    1STR   H13437106  29.858   6.766  45.387
    1STR   H13537107  29.871   6.940  45.401
    1STR   C13637108  30.137   6.958  45.474
    1STR   H13737109  30.119   6.961  45.581
    1STR   H13837110  30.244   6.945  45.460
    1STR   O13937111  30.093   7.079  45.412
    1STR   C14037112  30.151   7.198  45.464
    1STR   H14137113  30.154   7.194  45.573
    1STR   C14237114  30.293   7.217  45.408
    1STR   H14337115  30.292   7.216  45.299
    1STR   H14437116  30.361   7.139  45.441
    1STR   H14537117  30.335   7.312  45.440
    1STR   C14637118  30.059   7.315  45.424
    1STR   H14737119  30.055   7.323  45.315
    1STR   H14837120  29.958   7.294  45.458
    1STR   O14937121  30.107   7.436  45.482
    1STR   C15037122  30.033   7.553  45.449
    1STR   H15137123  30.008   7.553  45.343
    1STR   C15237124  29.905   7.559  45.534
    1STR   H15337125  29.928   7.554  45.640
    1STR   H15437126  29.836   7.478  45.510
    1STR   H15537127  29.851   7.652  45.516
    1STR   C15637128  30.124   7.674  45.476
    1STR   H15737129  30.150   7.678  45.582
    1STR   H15837130  30.217   7.661  45.420
    1STR   O15937131  30.058   7.793  45.435
    1STR   C16037132  30.130   7.913  45.459
    1STR   H16137133  30.176   7.911  45.558
    1STR   C16237134  30.237   7.932  45.350
    1STR   H16337135  30.193   7.930  45.251
    1STR   H16437136  30.314   7.855  45.355
    1STR   H16537137  30.288   8.028  45.362
    1STR   C16637138  30.028   8.029  45.457
    1STR   H16737139  29.981   8.035  45.359
    1STR   H16837140  29.949   8.007  45.530
    1STR   O16937141  30.094   8.151  45.490
    1STR   C17037142  30.012   8.267  45.488
    1STR   H17137143  29.946   8.265  45.401
    1STR   C17237144  29.928   8.273  45.617
    1STR   H17337145  29.992   8.270  45.705
    1STR   H17437146  29.857   8.191  45.624
    1STR   H17537147  29.871   8.366  45.621
    1STR   C17637148  30.105   8.388  45.475
    1STR   H17737149  30.171   8.394  45.562
    1STR   H17837150  30.168   8.376  45.387
    1STR   O17937151  30.026   8.507  45.463
    1STR   C18037152  30.100   8.628  45.455
    1STR   H18137153  30.182   8.627  45.527
    1STR   C18237154  30.155   8.646  45.312
    1STR   H18337155  30.075   8.642  45.238
    1STR   H18437156  30.228   8.569  45.286
    1STR   H18537157  30.205   8.742  45.302
    1STR   C18637158  30.005   8.743  45.493
    1STR   H18737159  29.922   8.747  45.422
    1STR   H18837160  29.962   8.722  45.591
    1STR   O18937161  30.077   8.866  45.495
    1STR   C19037162  29.999   8.981  45.525
    1STR   H19137163  29.904   8.978  45.471
    1STR   C19237164  29.974   8.989  45.676
    1STR   H19337165  30.067   8.988  45.732
    1STR   H19437166  29.912   8.907  45.712
    1STR   H19537167  29.921   9.081  45.701
    1STR   C19637168  30.077   9.103  45.474
    1STR   H19737169  30.172   9.111  45.527
    1STR   H19837170  30.100   9.090  45.369
    1STR   O19937171  29.999   9.221  45.494
    1STR   C20037172  30.062   9.343  45.455
    1STR   H20137173  30.166   9.344  45.488
    1STR   C20237174  30.055   9.358  45.302
    1STR   H20337175  29.952   9.353  45.266
    1STR   H20437176  30.112   9.282  45.250
    1STR   H20537177  30.095   9.455  45.271
    1STR   C20637178  29.988   9.457  45.526
    1STR   H20737179  29.884   9.460  45.494
    1STR   H20837180  29.989   9.438  45.633
    1STR   O20937181  30.054   9.581  45.498
    1STR   C21037182  29.993   9.696  45.555
    1STR   H21137183  29.884   9.691  45.544
    1STR   C21237184  30.030   9.706  45.704
    1STR   H21337185  30.138   9.706  45.718
    1STR   H21437186  29.989   9.624  45.762
    1STR   H21537187  29.991   9.798  45.747
    1STR   C21637188  30.043   9.818  45.477
    1STR   H21737189  30.151   9.827  45.487
    1STR   H21837190  30.022   9.803  45.371
    1STR   O21937191  29.978   9.936  45.524
    1STR   C22037192  30.018  10.057  45.462
    1STR   H22137193  30.127  10.059  45.451
    1STR   C22237194  29.951  10.070  45.325
    1STR   H22337195  29.842  10.063  45.333
    1STR   H22437196  29.984   9.994  45.255
    1STR   H22537197  29.974  10.167  45.279
    1STR   C22637198  29.978  10.173  45.556
    1STR   H22737199  29.870  10.174  45.568
    1STR   H22837200  30.022  10.155  45.654
    1STR   O22937201  30.025  10.296  45.502
    1STR   C23037202  29.991  10.412  45.578
    1STR   H23137203  29.887  10.406  45.611
    1STR   C23237204  30.084  10.424  45.699
    1STR   H23337205  30.189  10.425  45.668
    1STR   H23437206  30.071  10.342  45.770
    1STR   H23537207  30.065  10.517  45.753
    1STR   C23637208  30.004  10.534  45.485
    1STR   H23737209  30.107  10.544  45.450
    1STR   H23837210  29.943  10.517  45.396
    1STR   O23937211  29.962  10.652  45.553
    1STR   C24037212  29.972  10.773  45.478
    1STR   H24137213  30.067  10.776  45.424
    1STR   C24237214  29.855  10.783  45.379
    1STR   H24337215  29.759  10.775  45.431
    1STR   H24437216  29.859  10.705  45.303
    1STR   H24537217  29.857  10.878  45.327
    1STR   C24637218  29.971  10.890  45.578
    1STR   H24737219  29.877  10.891  45.633
    1STR   H24837220  30.051  10.874  45.651
    1STR   O24937221  29.990  11.013  45.509
    1STR   C25037222  29.989  11.130  45.591
    1STR   H25137223  29.907  11.124  45.663
    1STR   C25237224  30.123  11.144  45.665
    1STR   H25337225  30.206  11.144  45.595
    1STR   H25437226  30.139  11.063  45.736
    1STR   H25537227  30.126  11.237  45.721
    1STR   C25637228  29.963  11.251  45.499
    1STR   H25737229  30.043  11.261  45.426
    1STR   H25837230  29.871  11.233  45.443
    1STR   O25937231  29.951  11.370  45.577
    1STR   C26037232  29.928  11.491  45.503
    1STR   H26137233  29.994  11.493  45.416
    1STR   C26237234  29.781  11.497  45.459
    1STR   H26337235  29.714  11.489  45.544
    1STR   H26437236  29.756  11.418  45.388
    1STR   H26537237  29.760  11.592  45.410
    1STR   C26637238  29.965  11.610  45.594
    1STR   H26737239  29.901  11.611  45.682
    1STR   H26837240  30.067  11.597  45.629
    1STR   O26937241  29.952  11.733  45.522
    1STR   C27037242  29.983  11.852  45.596
    1STR   H27137243  29.937  11.847  45.695
    1STR   C27237244  30.135  11.866  45.610
    1STR   H27337245  30.184  11.865  45.512
    1STR   H27437246  30.179  11.786  45.670
    1STR   H27537247  30.161  11.960  45.658
    1STR   C27637248  29.922  11.973  45.521
    1STR   H27737249  29.966  11.981  45.422
    1STR   H27837250  29.816  11.954  45.507
    1STR   O27937251  29.943  12.094  45.596
    1STR   C28037252  29.890  12.213  45.536
    1STR   H28137253  29.915  12.215  45.430
    1STR   C28237254  29.737  12.217  45.555
    1STR   H28337255  29.710  12.207  45.660
    1STR   H28437256  29.687  12.137  45.500
    1STR   H28537257  29.696  12.311  45.518
    1STR   C28637258  29.957  12.336  45.603
    1STR   H28737259  29.934  12.337  45.710
    1STR   H28837260  30.065  12.325  45.594
    1STR   O28937261  29.914  12.459  45.542
    1STR   C29037262  29.971  12.579  45.595
    1STR   H29137263  29.968  12.576  45.704
    1STR   C29237264  30.116  12.593  45.547
    1STR   H29337265  30.122  12.589  45.438
    1STR   H29437266  30.181  12.515  45.587
    1STR   H29537267  30.158  12.688  45.578
    1STR   C29637268  29.885  12.700  45.548
    1STR   H29737269  29.884  12.703  45.439
    1STR   H29837270  29.782  12.682  45.579
    1STR   O29937271  29.933  12.825  45.600
    1STR   C30037272  29.858  12.941  45.561
    1STR   H30137273  29.834  12.935  45.455
    1STR   C30237274  29.728  12.948  45.643
    1STR   H30337275  29.749  12.943  45.750
    1STR   H30437276  29.660  12.866  45.619
    1STR   H30537277  29.675  13.041  45.624
    1STR   C30637278  29.943  13.070  45.582
    1STR   H30737279  29.960  13.087  45.688
    1STR   H30837280  30.041  13.052  45.537
    1STR   O30937281  29.881  13.185  45.521
    1STR    H1R37282  29.972  13.331  45.636
    1STR    H1S37283  30.129  13.404  45.449
    1STR    H1T37284  30.061  13.279  45.346
    1STR    H1U37285  30.153  13.236  45.491
    1STR    H1V37286  29.764  13.425  45.531
    1STR    H1W37287  29.833  13.407  45.372
    1STR    H1X37288  30.000  13.746  45.538
    1STR    H1Y37289  30.113  13.935  45.566
    1STR    H1Z37290  30.183  14.155  45.490
    1STR    H2037291  30.140  14.284  45.155
    1STR    H2137292  30.062  14.369  45.289
    1STR    H2237293  30.223  14.302  45.308
    1STR    H2337294  29.923  14.081  45.032
    1STR    H2737295  29.861  13.893  45.218
    1STR    H2837296  30.317   1.315  45.456
    1STR    H2937297  30.297   1.083  45.508
    1STR    H2A37298  30.064   0.846  45.364
    1STR    H2B37299  30.165   0.889  45.501
    1STR    H2C37300  30.240   0.825  45.355
    1STR   BCK137301  29.965  15.902  59.992
    1STR    O0337302  29.878  15.910  59.906
    1STR    N0437303  30.045  16.005  60.026
    1STR    C0537304  30.076  16.116  59.946
    1STR    C0637305  30.048  16.251  59.982
    1STR    C0737306  30.088  16.362  59.899
    1STR    N0837307  30.064  16.497  59.935
    1STR    C0937308  30.065  16.607  59.857
    1STR    O0A37309  30.076  16.605  59.735
    1STR    O0B37310  30.052  16.724  59.927
    1STR    C0C37311  30.049  16.851  59.856
    1STR    C0D37312  29.909  16.873  59.796
    1STR    C0E37313  30.091  16.972  59.943
    1STR    O0F37314  30.088  17.093  59.865
    1STR    C0G37315  30.124  17.215  59.932
    1STR    C0H37316  30.277  17.223  59.945
    1STR    C0I37317  30.070  17.336  59.852
    1STR    O0J37318  30.098  17.459  59.921
    1STR    C0K37319  30.419  28.344  59.913
    1STR    C0M37320  30.268  28.321  59.892
    1STR    C0N37321  30.438  28.478  59.990
    1STR    O0O37322  30.400  28.588  59.905
    1STR    C0P37323  30.333  28.699  59.949
    1STR    O0Q37324  30.287  28.716  60.061
    1STR    N0R37325  30.332  28.788  59.849
    1STR    C0S37326  30.291  28.922  59.833
    1STR    C0T37327  30.373  28.996  59.747
    1STR    C0U37328  30.344  29.130  59.718
    1STR    C0V37329  30.231  29.194  59.772
    1STR    C0W37330  30.220  29.342  59.741
    1STR    C0X37331  30.141  29.122  59.855
    1STR    N0Y37332  30.026  29.179  59.917
    1STR   BCK237333  29.935  29.278  59.902
    1STR    O1037334  29.856  29.297  59.993
    1STR    C1337335  30.176  28.986  59.888
    1STR    C1437336  30.159  16.331  59.781
    1STR    C1537337  30.189  16.198  59.746
    1STR    C1637338  30.151  16.091  59.828
    1STR    C1737339  30.195  15.951  59.789
    1STR    H1B37340  30.103  15.989  60.107
    1STR    H1C37341  29.994  16.270  60.073
    1STR    H1D37342  30.042  16.517  60.031
    1STR    H1E37343  30.122  16.845  59.774
    1STR    H1F37344  29.833  16.880  59.873
    1STR    H1G37345  29.906  16.965  59.737
    1STR    H1H37346  29.882  16.792  59.728
    1STR    H1I37347  30.192  16.955  59.982
    1STR    H1J37348  30.024  16.981  60.029
    1STR    H1K37349  30.078  17.217  60.031
    1STR    H1M37350  30.325  17.218  59.847
    1STR    H1N37351  30.318  17.144  60.007
    1STR    H1O37352  30.306  17.318  59.990
    1STR    H1P37353  30.114  17.337  59.752
    1STR    H1Q37354  29.962  17.324  59.839
    1STR   C01037355  30.058  17.579  59.855
    1STR   H01137356  30.085  17.575  59.749
    1STR   C01237357  29.906  17.598  59.869
    1STR   H01337358  29.875  17.598  59.973
    1STR   H01437359  29.850  17.521  59.817
    1STR   H01537360  29.875  17.694  59.826
    1STR   C01637361  30.134  17.698  59.919
    1STR   H01737362  30.109  17.705  60.025
    1STR   H01837363  30.241  17.679  59.912
    1STR   O01937364  30.101  17.821  59.853
    1STR   C02037365  30.162  17.939  59.906
    1STR   H02137366  30.158  17.937  60.015
    1STR   C02237367  30.309  17.947  59.860
    1STR   H02337368  30.316  17.944  59.751
    1STR   H02437369  30.369  17.865  59.900
    1STR   H02537370  30.355  18.040  59.894
    1STR   C02637371  30.083  18.062  59.859
    1STR   H02737372  30.085  18.068  59.750
    1STR   H02837373  29.978  18.051  59.887
    1STR   O02937374  30.137  18.181  59.916
    1STR   C03037375  30.075  18.304  59.877
    1STR   H03137376  30.057  18.303  59.769
    1STR   C03237377  29.942  18.322  59.952
    1STR   H03337378  29.958  18.318  60.060
    1STR   H03437379  29.869  18.246  59.925
    1STR   H03537380  29.898  18.418  59.928
    1STR   C03637381  30.173  18.419  59.908
    1STR   H03737382  30.192  18.423  60.015
    1STR   H03837383  30.268  18.399  59.859
    1STR   O03937384  30.118  18.543  59.862
    1STR   C04037385  30.197  18.659  59.888
    1STR   H04137386  30.236  18.655  59.990
    1STR   C04237387  30.312  18.667  59.788
    1STR   H04337388  30.275  18.667  59.685
    1STR   H04437389  30.383  18.585  59.799
    1STR   H04537390  30.369  18.760  59.802
    1STR   C04637391  30.105  18.782  59.878
    1STR   H04737392  30.064  18.790  59.777
    1STR   H04837393  30.020  18.768  59.945
    1STR   O04937394  30.178  18.900  59.912
    1STR   C05037395  30.104  19.022  59.903
    1STR   H05137396  30.045  19.023  59.811
    1STR   C05237397  30.013  19.037  60.025
    1STR   H05337398  30.070  19.032  60.118
    1STR   H05437399  29.935  18.961  60.029
    1STR   H05537400  29.963  19.134  60.023
    1STR   C05637401  30.206  19.137  59.894
    1STR   H05737402  30.267  19.140  59.985
    1STR   H05837403  30.274  19.118  59.811
    1STR   O05937404  30.138  19.260  59.875
    1STR   C06037405  30.221  19.376  59.870
    1STR   H06137406  30.298  19.371  59.947
    1STR   C06237407  30.286  19.387  59.731
    1STR   H06337408  30.211  19.387  59.652
    1STR   H06437409  30.355  19.305  59.711
    1STR   H06537410  30.344  19.479  59.722
    1STR   C06637411  30.132  19.498  59.899
    1STR   H06737412  30.055  19.508  59.823
    1STR   H06837413  30.082  19.483  59.995
    1STR   O06937414  30.213  19.616  59.904
    1STR   C07037415  30.142  19.737  59.927
    1STR   H07137416  30.051  19.740  59.867
    1STR   C07237417  30.108  19.750  60.076
    1STR   H07337418  30.197  19.743  60.138
    1STR   H07437419  30.038  19.674  60.109
    1STR   H07537420  30.061  19.847  60.096
    1STR   C07637421  30.233  19.853  59.880
    1STR   H07737422  30.324  19.854  59.939
    1STR   H07837423  30.262  19.835  59.776
    1STR   O07937424  30.162  19.976  59.892
    1STR   C08037425  30.237  20.092  59.855
    1STR   H08137426  30.338  20.086  59.896
    1STR   C08237427  30.241  20.105  59.702
    1STR   H08337428  30.141  20.106  59.660
    1STR   H08437429  30.297  20.024  59.656
    1STR   H08537430  30.291  20.198  59.673
    1STR   C08637431  30.167  20.213  59.920
    1STR   H08737432  30.066  20.223  59.881
    1STR   H08837433  30.159  20.196  60.027
    1STR   O08937434  30.244  20.331  59.894
    1STR   C09037435  30.188  20.452  59.945
    1STR   H09137436  30.080  20.454  59.926
    1STR   C09237437  30.215  20.462  60.096
    1STR   H09337438  30.322  20.455  60.117
    1STR   H09437439  30.164  20.385  60.153
    1STR   H09537440  30.180  20.558  60.134
    1STR   C09637441  30.252  20.568  59.868
    1STR   H09737442  30.360  20.569  59.885
    1STR   H09837443  30.237  20.552  59.761
    1STR   O09937444  30.193  20.691  59.909
    1STR   C10037445  30.246  20.807  59.847
    1STR   H10137446  30.355  20.802  59.844
    1STR   C10237447  30.189  20.823  59.705
    1STR   H10337448  30.080  20.824  59.706
    1STR   H10437449  30.221  20.742  59.639
    1STR   H10537450  30.223  20.916  59.660
    1STR   C10637451  30.209  20.927  59.936
    1STR   H10737452  30.100  20.937  59.941
    1STR   H10837453  30.243  20.908  60.038
    1STR   O10937454  30.268  21.046  59.884
    1STR   C11037455  30.238  21.165  59.955
    1STR   H11137456  30.132  21.168  59.981
    1STR   C11237457  30.323  21.174  60.082
    1STR   H11337458  30.430  21.166  60.059
    1STR   H11437459  30.299  21.095  60.153
    1STR   H11537460  30.307  21.269  60.133
    1STR   C11637461  30.266  21.283  59.861
    1STR   H11737462  30.372  21.285  59.834
    1STR   H11837463  30.210  21.269  59.768
    1STR   O11937464  30.228  21.405  59.924
    1STR   C12037465  30.253  21.523  59.848
    1STR   H12137466  30.351  21.518  59.801
    1STR   C12237467  30.144  21.540  59.741
    1STR   H12337468  30.045  21.541  59.786
    1STR   H12437469  30.147  21.461  59.667
    1STR   H12537470  30.157  21.635  59.688
    1STR   C12637471  30.254  21.641  59.947
    1STR   H12737472  30.156  21.651  59.995
    1STR   H12837473  30.326  21.621  60.026
    1STR   O12937474  30.288  21.761  59.877
    1STR   C13037475  30.289  21.879  59.957
    1STR   H13137476  30.202  21.880  60.023
    1STR   C13237477  30.418  21.886  60.039
    1STR   H13337478  30.506  21.879  59.975
    1STR   H13437479  30.424  21.805  60.113
    1STR   H13537480  30.424  21.980  60.094
    1STR   C13637481  30.277  21.998  59.861
    1STR   H13737482  30.363  22.001  59.794
    1STR   H13837483  30.188  21.985  59.798
    1STR   O13937484  30.268  22.119  59.936
    1STR   C14037485  30.260  22.238  59.859
    1STR   H14137486  30.332  22.234  59.776
    1STR   C14237487  30.118  22.257  59.804
    1STR   H14337488  30.044  22.256  59.885
    1STR   H14437489  30.090  22.179  59.734
    1STR   H14537490  30.108  22.352  59.752
    1STR   C14637491  30.301  22.355  59.950
    1STR   H14737492  30.231  22.363  60.033
    1STR   H14837493  30.399  22.334  59.993
    1STR   O14937494  30.304  22.476  59.875
    1STR   C15037495  30.337  22.593  59.949
    1STR   H15137496  30.284  22.593  60.045
    1STR   C15237497  30.488  22.599  59.973
    1STR   H15337498  30.543  22.594  59.879
    1STR   H15437499  30.524  22.518  60.037
    1STR   H15537500  30.516  22.692  60.023
    1STR   C15637501  30.288  22.714  59.868
    1STR   H15737502  30.340  22.718  59.772
    1STR   H15837503  30.182  22.701  59.846
    1STR   O15937504  30.310  22.833  59.943
    1STR   C16037505  30.272  22.953  59.876
    1STR   H16137506  30.305  22.951  59.772
    1STR   C16237507  30.120  22.972  59.884
    1STR   H16337508  30.085  22.970  59.987
    1STR   H16437509  30.066  22.895  59.829
    1STR   H16537510  30.091  23.068  59.841
    1STR   C16637511  30.346  23.069  59.946
    1STR   H16737512  30.315  23.075  60.051
    1STR   H16837513  30.453  23.047  59.946
    1STR   O16937514  30.319  23.191  59.878
    1STR   C17037515  30.379  23.307  59.935
    1STR   H17137516  30.369  23.305  60.043
    1STR   C17237517  30.528  23.313  59.896
    1STR   H17337518  30.541  23.310  59.788
    1STR   H17437519  30.585  23.231  59.939
    1STR   H17537520  30.573  23.406  59.932
    1STR   C17637521  30.302  23.428  59.882
    1STR   H17737522  30.312  23.434  59.773
    1STR   H17837523  30.196  23.416  59.904
    1STR   O17937524  30.352  23.547  59.943
    1STR   C18037525  30.291  23.668  59.900
    1STR   H18137526  30.280  23.667  59.791
    1STR   C18237527  30.155  23.686  59.968
    1STR   H18337528  30.164  23.682  60.076
    1STR   H18437529  30.083  23.609  59.937
    1STR   H18537530  30.111  23.782  59.942
    1STR   C18637531  30.387  23.783  59.936
    1STR   H18737532  30.400  23.787  60.044
    1STR   H18837533  30.485  23.762  59.893
    1STR   O18937534  30.335  23.906  59.886
    1STR   C19037535  30.413  24.021  59.917
    1STR   H19137536  30.447  24.017  60.020
    1STR   C19237537  30.534  24.029  59.822
    1STR   H19337538  30.503  24.028  59.718
    1STR   H19437539  30.604  23.947  59.837
    1STR   H19537540  30.590  24.121  59.839
    1STR   C19637541  30.321  24.143  59.901
    1STR   H19737542  30.287  24.151  59.797
    1STR   H19837543  30.233  24.130  59.963
    1STR   O19937544  30.392  24.261  59.939
    1STR   C20037545  30.319  24.383  59.926
    1STR   H20137546  30.265  24.384  59.831
    1STR   C20237547  30.221  24.398  60.043
    1STR   H20337548  30.273  24.393  60.139
    1STR   H20437549  30.144  24.322  60.042
    1STR   H20537550  30.171  24.495  60.038
    1STR   C20637551  30.422  24.497  59.923
    1STR   H20737552  30.477  24.500  60.017
    1STR   H20837553  30.494  24.478  59.843
    1STR   O20937554  30.355  24.621  59.899
    1STR   C21037555  30.438  24.736  59.898
    1STR   H21137556  30.510  24.731  59.980
    1STR   C21237557  30.511  24.746  59.763
    1STR   H21337558  30.441  24.746  59.680
    1STR   H21437559  30.581  24.664  59.748
    1STR   H21537560  30.569  24.838  59.758
    1STR   C21637561  30.348  24.858  59.922
    1STR   H21737562  30.275  24.867  59.841
    1STR   H21837563  30.292  24.843  60.014
    1STR   O21937564  30.429  24.976  59.931
    1STR   C22037565  30.357  25.097  59.950
    1STR   H22137566  30.269  25.100  59.885
    1STR   C22237567  30.314  25.110  60.097
    1STR   H22337568  30.400  25.103   0.003
    1STR   H22437569  30.242  25.034  60.126
    1STR   H22537570  30.266  25.207  60.114
    1STR   C22637571  30.449  25.213  59.908
    1STR   H22737572  30.538  25.214  59.972
    1STR   H22837573  30.484  25.195  59.806
    1STR   O22937574  30.379  25.336  59.916
    1STR   C23037575  30.455  25.452  59.883
    1STR   H23137576  30.554  25.446  59.929
    1STR   C23237577  30.468  25.464  59.730
    1STR   H23337578  30.370  25.465  59.682
    1STR   H23437579  30.526  25.383  59.687
    1STR   H23537580  30.519  25.557  59.703
    1STR   C23637581  30.382  25.574  59.943
    1STR   H23737582  30.283  25.584  59.898
    1STR   H23837583  30.368  25.557  60.050
    1STR   O23937584  30.459  25.692  59.920
    1STR   C24037585  30.401  25.813  59.969
    1STR   H24137586  30.295  25.816  59.944
    1STR   C24237587  30.421  25.823  60.121
    1STR   H24337588  30.526  25.815  60.148
    1STR   H24437589  30.367  25.745   0.015
    1STR   H24537590  30.385  25.919  60.158
    1STR   C24637591  30.470  25.930  59.896
    1STR   H24737592  30.576  25.931  59.919
    1STR   H24837593  30.461  25.914  59.788
    1STR   O24937594  30.409  26.053  59.934
    1STR   C25037595  30.465  26.170  59.874
    1STR   H25137596  30.574  26.164  59.877
    1STR   C25237597  30.416  26.184  59.729
    1STR   H25337598  30.307  26.184  59.725
    1STR   H25437599  30.453  26.103  59.666
    1STR   H25537600  30.452  26.277  59.685
    1STR   C25637601  30.423  26.291  59.960
    1STR   H25737602  30.314  26.301  59.959
    1STR   H25837603  30.453  26.274  60.063
    1STR   O25937604  30.484  26.411  59.910
    1STR   C26037605  30.451  26.531  59.980
    1STR   H26137606  30.343  26.534  60.000
    1STR   C26237607  30.529  26.537  60.112
    1STR   H26337608  30.637  26.529  60.094
    1STR   H26437609  30.500  26.459   0.021
    1STR   H26537610  30.512  26.632   0.002
    1STR   C26637611  30.485  26.650  59.888
    1STR   H26737612  30.592  26.651  59.866
    1STR   H26837613  30.433  26.637  59.793
    1STR   O26937614  30.446  26.774  59.950
    1STR   C27037615  30.473  26.892  59.874
    1STR   H27137616  30.574  26.887  59.833
    1STR   C27237617  30.370  26.906  59.761
    1STR   H27337618  30.268  26.905  59.800
    1STR   H27437619  30.378  26.827  59.687
    1STR   H27537620  30.384  27.001  59.708
    1STR   C27637621  30.468  27.013  59.970
    1STR   H27737622  30.368  27.022  60.014
    1STR   H27837623  30.537  26.995  60.053
    1STR   O27937624  30.503  27.135  59.902
    1STR   C28037625  30.502  27.254  59.982
    1STR   H28137626  30.412  27.256  60.044
    1STR   C28237627  30.627  27.257  60.071
    1STR   H28337628  30.718  27.247  60.012
    1STR   H28437629  30.626  27.177  60.146
    1STR   H28537630  30.632  27.351  60.126
    1STR   C28637631  30.497  27.377  59.888
    1STR   H28737632  30.586  27.378  59.825
    1STR   H28837633  30.412  27.366  59.822
    1STR   O28937634  30.488  27.499  59.963
    1STR   C29037635  30.482  27.621  59.886
    1STR   H29137636  30.558  27.618  59.807
    1STR   C29237637  30.342  27.634  59.823
    1STR   H29337638  30.264  27.629  59.899
    1STR   H29437639  30.322  27.556  59.749
    1STR   H29537640  30.332  27.730  59.771
    1STR   C29637641  30.513  27.741  59.978
    1STR   H29737642  30.440  27.745  60.060
    1STR   H29837643  30.611  27.725  60.024
    1STR   O29937644  30.512  27.866  59.906
    1STR   C30037645  30.536  27.985  59.983
    1STR   H30137646  30.480  27.980  60.076
    1STR   C30237647  30.687  27.995  60.012
    1STR   H30337648  30.745  27.990  59.920
    1STR   H30437649  30.722  27.915  60.077
    1STR   H30537650  30.711  28.090  60.061
    1STR   C30637651  30.485  28.108  59.903
    1STR   H30737652  30.548  28.124  59.815
    1STR   H30837653  30.386  28.082  59.866
    1STR   O30937654  30.477  28.230  59.980
    1STR    H1R37655  30.468  28.355  59.816
    1STR    H1S37656  30.221  28.410  59.851
    1STR    H1T37657  30.220  28.299  59.987
    1STR    H1U37658  30.247  28.240  59.823
    1STR    H1V37659  30.543  28.491  60.017
    1STR    H1W37660  30.382  28.478  60.084
    1STR    H1X37661  30.380  28.748  59.771
    1STR    H1Y37662  30.462  28.952  59.704
    1STR    H1Z37663  30.412  29.184  59.654
    1STR    H2037664  30.156  29.356  59.654
    1STR    H2137665  30.181  29.396  59.827
    1STR    H2237666  30.317  29.385  59.717
    1STR    H2337667  30.000  29.130  60.001
    1STR    H2737668  30.113  28.928  59.954
    1STR    H2837669  30.194  16.407  59.714
    1STR    H2937670  30.245  16.180  59.655
    1STR    H2A37671  30.240  15.901  59.875
    1STR    H2B37672  30.268  15.953  59.709
    1STR    H2C37673  30.109  15.893  59.756
    1STR   BCK137674  29.937  15.894  14.994
    1STR    O0337675  29.970  15.835  15.096
    1STR    N0437676  29.910  16.026  14.988
    1STR    C0537677  29.881  16.119  15.091
    1STR    C0637678  29.925  16.255  15.085
    1STR    C0737679  29.885  16.354  15.181
    1STR    N0837680  29.924  16.491  15.172
    1STR    C0937681  29.867  16.600  15.229
    1STR    O0A37682  29.765  16.597  15.297
    1STR    O0B37683  29.934  16.718  15.203
    1STR    C0C37684  29.891  16.841  15.266
    1STR    C0D37685  29.954  16.852  15.406
    1STR    C0E37686  29.924  16.968  15.182
    1STR    O0F37687  29.876  17.088  15.247
    1STR    C0G37688  29.894  17.212  15.177
    1STR    C0H37689  29.789  17.223  15.065
    1STR    C0I37690  29.881  17.332  15.274
    1STR    O0J37691  29.905  17.456  15.204
    1STR    C0K37692  29.622  28.327  14.950
    1STR    C0M37693  29.727  28.335  15.063
    1STR    C0N37694  29.639  28.446  14.853
    1STR    O0O37695  29.600  28.566  14.920
    1STR    C0P37696  29.664  28.683  14.898
    1STR    O0Q37697  29.756  28.701  14.820
    1STR    N0R37698  29.612  28.774  14.979
    1STR    C0S37699  29.650  28.905  15.009
    1STR    C0T37700  29.623  28.949  15.139
    1STR    C0U37701  29.662  29.077  15.180
    1STR    C0V37702  29.724  29.167  15.092
    1STR    C0W37703  29.770  29.297  15.155
    1STR    C0X37704  29.742  29.131  14.954
    1STR    N0Y37705  29.779  29.217  14.848
    1STR   BCK237706  29.792  29.350  14.833
    1STR    O1037707  29.801  29.434  14.922
    1STR    C1337708  29.709  28.997  14.917
    1STR    C1437709  29.805  16.310  15.288
    1STR    C1537710  29.758  16.178  15.295
    1STR    C1637711  29.791  16.084  15.196
    1STR    C1737712  29.722  15.949  15.205
    1STR    H1B37713  29.905  16.062  14.894
    1STR    H1C37714  29.990  16.285  15.004
    1STR    H1D37715  30.003  16.515  15.115
    1STR    H1E37716  29.782  16.840  15.277
    1STR    H1F37717  30.062  16.857  15.402
    1STR    H1G37718  29.919  16.942  15.457
    1STR    H1H37719  29.926  16.767  15.468
    1STR    H1I37720  29.878  16.958  15.084
    1STR    H1J37721  30.032  16.976  15.166
    1STR    H1K37722  29.994  17.215  15.134
    1STR    H1M37723  29.688  17.216  15.105
    1STR    H1N37724  29.800  17.145  14.989
    1STR    H1O37725  29.797  17.319  15.014
    1STR    H1P37726  29.781  17.334  15.319
    1STR    H1Q37727  29.952  17.321  15.355
    1STR   C01037728  29.890  17.577  15.280
    1STR   H01137729  29.799  17.572  15.339
    1STR   C01237730  30.011  17.596  15.373
    1STR   H01337731  30.104  17.596  15.316
    1STR   H01437732  30.018  17.518  15.449
    1STR   H01537733  30.005  17.691  15.425
    1STR   C01637734  29.877  17.696  15.182
    1STR   H01737735  29.967  17.702  15.120
    1STR   H01837736  29.793  17.677  15.115
    1STR   O01937737  29.857  17.819  15.253
    1STR   C02037738  29.848  17.937  15.172
    1STR   H02137739  29.925  17.935  15.095
    1STR   C02237740  29.709  17.945  15.107
    1STR   H02337741  29.631  17.943  15.182
    1STR   H02437742  29.692  17.863  15.037
    1STR   H02537743  29.699  18.038  15.051
    1STR   C02637744  29.875  18.061  15.260
    1STR   H02737745  29.799  18.067  15.339
    1STR   H02837746  29.971  18.049  15.310
    1STR   O02937747  29.873  18.180  15.181
    1STR   C03037748  29.892  18.302  15.252
    1STR   H03137749  29.832  18.302  15.344
    1STR   C03237750  30.041  18.321  15.286
    1STR   H03337751  30.102  18.317  15.197
    1STR   H03437752  30.077  18.245  15.355
    1STR   H03537753  30.058  18.418  15.334
    1STR   C03637754  29.841  18.418  15.164
    1STR   H03737755  29.899  18.422  15.071
    1STR   H03837756  29.738  18.398  15.136
    1STR   O03937757  29.851  18.542  15.234
    1STR   C04037758  29.811  18.658  15.162
    1STR   H04137759  29.851  18.654  15.060
    1STR   C04237760  29.657  18.667  15.157
    1STR   H04337761  29.615  18.666  15.258
    1STR   H04437762  29.613  18.585  15.102
    1STR   H04537763  29.625  18.759  15.109
    1STR   C04637764  29.871  18.781  15.231
    1STR   H04737765  29.833  18.789  15.333
    1STR   H04837766  29.979  18.768  15.239
    1STR   O04937767  29.841  18.899  15.157
    1STR   C05037768  29.888  19.021  15.213
    1STR   H05137769  29.870  19.022  15.321
    1STR   C05237770  30.038  19.037  15.185
    1STR   H05337771  30.059  19.032  15.078
    1STR   H05437772  30.098  18.961  15.235
    1STR   H05537773  30.074  19.134  15.220
    1STR   C05637774  29.807  19.136  15.151
    1STR   H05737775  29.824  19.139  15.043
    1STR   H05837776  29.701  19.117  15.166
    1STR   O05937777  29.845  19.260  15.211
    1STR   C06037778  29.780  19.376  15.159
    1STR   H06137779  29.776  19.371  15.050
    1STR   C06237780  29.638  19.386  15.217
    1STR   H06337781  29.640  19.387  15.326
    1STR   H06437782  29.574  19.304  15.185
    1STR   H06537783  29.590  19.479  15.184
    1STR   C06637784  29.865  19.498  15.197
    1STR   H06737785  29.871  19.507  15.305
    1STR   H06837786  29.967  19.483  15.161
    1STR   O06937787  29.809  19.615  15.139
    1STR   C07037788  29.876  19.737  15.170
    1STR   H07137789  29.903  19.739  15.276
    1STR   C07237790  30.003  19.750  15.084
    1STR   H07337791  29.979  19.743  14.978
    1STR   H07437792  30.077  19.674  15.107
    1STR   H07537793  30.051  19.847  15.100
    1STR   C07637794  29.778  19.852  15.144
    1STR   H07737795  29.750  19.854  15.038
    1STR   H07837796  29.687  19.835  15.200
    1STR   O07937797  29.838  19.976  15.182
    1STR   C08037798  29.759  20.092  15.159
    1STR   H08137799  29.711  20.086  15.061
    1STR   C08237800  29.652  20.105  15.268
    1STR   H08337801  29.697  20.106  15.368
    1STR   H08437802  29.579  20.024  15.265
    1STR   H08537803  29.596  20.198  15.257
    1STR   C08637804  29.853  20.213  15.158
    1STR   H08737805  29.902  20.223  15.256
    1STR   H08837806  29.932  20.196  15.085
    1STR   O08937807  29.780  20.331  15.126
    1STR   C09037808  29.855  20.451  15.126
    1STR   H09137809  29.922  20.454  15.212
    1STR   C09237810  29.937  20.462  14.996
    1STR   H09337811  29.872  20.455  14.909
    1STR   H09437812  30.013  20.384  14.989
    1STR   H09537813  29.989  20.558  14.991
    1STR   C09637814  29.756  20.568  15.139
    1STR   H09737815  29.688  20.569  15.054
    1STR   H09837816  29.694  20.552  15.228
    1STR   O09937817  29.827  20.691  15.149
    1STR   C10037818  29.746  20.807  15.158
    1STR   H10137819  29.664  20.802  15.087
    1STR   C10237820  29.692  20.823  15.301
    1STR   H10337821  29.773  20.824  15.374
    1STR   H10437822  29.624  20.742  15.328
    1STR   H10537823  29.637  20.916  15.312
    1STR   C10637824  29.834  20.927  15.118
    1STR   H10737825  29.917  20.937  15.188
    1STR   H10837826  29.877  20.909  15.020
    1STR   O10937827  29.755  21.046  15.116
    1STR   C11037828  29.825  21.165  15.085
    1STR   H11137829  29.921  21.168  15.137
    1STR   C11237830  29.848  21.174  14.933
    1STR   H11337831  29.754  21.166  14.878
    1STR   H11437832  29.914  21.095  14.897
    1STR   H11537833  29.895  21.269  14.906
    1STR   C11637834  29.741  21.283  15.135
    1STR   H11737835  29.645  21.285  15.083
    1STR   H11837836  29.720  21.269  15.241
    1STR   O11937837  29.812  21.405  15.114
    1STR   C12037838  29.742  21.523  15.153
    1STR   H12137839  29.638  21.518  15.121
    1STR   C12237840  29.750  21.540  15.306
    1STR   H12337841  29.853  21.541  15.340
    1STR   H12437842  29.697  21.461  15.359
    1STR   H12537843  29.704  21.635  15.336
    1STR   C12637844  29.808  21.641  15.080
    1STR   H12737845  29.912  21.651  15.110
    1STR   H12837846  29.808  21.621  14.973
    1STR   O12937847  29.736  21.761  15.108
    1STR   C13037848  29.789  21.879  15.049
    1STR   H13137849  29.898  21.880  15.059
    1STR   C13237850  29.749  21.886  14.901
    1STR   H13337851  29.641  21.879  14.889
    1STR   H13437852  29.795  21.806  14.842
    1STR   H13537853  29.782  21.980  14.857
    1STR   C13637854  29.733  21.998  15.128
    1STR   H13737855  29.624  22.001  15.119
    1STR   H13837856  29.756  21.985  15.234
    1STR   O13937857  29.790  22.119  15.079
    1STR   C14037858  29.743  22.238  15.141
    1STR   H14137859  29.635  22.234  15.153
    1STR   C14237860  29.812  22.257  15.277
    1STR   H14337861  29.920  22.256  15.267
    1STR   H14437862  29.784  22.179  15.348
    1STR   H14537863  29.783  22.352  15.322
    1STR   C14637864  29.775  22.355  15.046
    1STR   H14737865  29.883  22.363  15.032
    1STR   H14837866  29.732  22.334  14.948
    1STR   O14937867  29.722  22.476  15.099
    1STR   C15037868  29.748  22.593  15.022
    1STR   H15137869  29.852  22.593  14.988
    1STR   C15237870  29.653  22.599  14.902
    1STR   H15337871  29.549  22.594  14.934
    1STR   H15437872  29.670  22.518  14.831
    1STR   H15537873  29.666  22.692  14.847
    1STR   C15637874  29.729  22.714  15.115
    1STR   H15737875  29.626  22.718  15.150
    1STR   H15837876  29.793  22.701  15.203
    1STR   O15937877  29.764  22.833  15.045
    1STR   C16037878  29.747  22.953  15.119
    1STR   H16137879  29.652  22.951  15.174
    1STR   C16237880  29.864  22.972  15.217
    1STR   H16337881  29.960  22.970  15.164
    1STR   H16437882  29.867  22.895  15.294
    1STR   H16537883  29.857  23.068  15.268
    1STR   C16637884  29.739  23.069  15.018
    1STR   H16737885  29.833  23.075  14.962
    1STR   H16837886  29.660  23.047  14.946
    1STR   O16937887  29.713  23.191  15.087
    1STR   C17037888  29.707  23.307  15.004
    1STR   H17137889  29.789  23.305  14.931
    1STR   C17237890  29.572  23.313  14.932
    1STR   H17337891  29.489  23.310  15.003
    1STR   H17437892  29.558  23.231  14.862
    1STR   H17537893  29.563  23.406  14.875
    1STR   C17637894  29.728  23.428  15.095
    1STR   H17737895  29.648  23.434  15.169
    1STR   H17837896  29.821  23.416  15.151
    1STR   O17937897  29.733  23.547  15.016
    1STR   C18037898  29.748  23.668  15.089
    1STR   H18137899  29.684  23.667  15.177
    1STR   C18237900  29.895  23.686  15.131
    1STR   H18337901  29.962  23.682  15.045
    1STR   H18437902  29.927  23.609  15.202
    1STR   H18537903  29.910  23.782  15.180
    1STR   C18637904  29.702  23.783  14.998
    1STR   H18737905  29.766  23.787  14.909
    1STR   H18837906  29.601  23.762  14.963
    1STR   O18937907  29.707  23.906  15.070
    1STR   C19037908  29.670  24.021  14.995
    1STR   H19137909  29.715  24.017  14.895
    1STR   C19237910  29.517  24.029  14.982
    1STR   H19337911  29.470  24.028  15.081
    1STR   H19437912  29.476  23.947  14.924
    1STR   H19537913  29.487  24.121  14.933
    1STR   C19637914  29.727  24.143  15.068
    1STR   H19737915  29.682  24.151  15.168
    1STR   H19837916  29.834  24.130  15.082
    1STR   O19937917  29.701  24.261  14.992
    1STR   C20037918  29.745  24.382  15.051
    1STR   H20137919  29.721  24.383  15.158
    1STR   C20237920  29.897  24.398  15.031
    1STR   H20337921  29.923  24.393  14.925
    1STR   H20437922  29.954  24.322  15.084
    1STR   H20537923  29.931  24.495  15.068
    1STR   C20637924  29.667  24.497  14.984
    1STR   H20737925  29.690  24.500  14.878
    1STR   H20837926  29.561  24.477  14.994
    1STR   O20937927  29.701  24.620  15.047
    1STR   C21037928  29.639  24.736  14.991
    1STR   H21137929  29.641  24.731  14.882
    1STR   C21237930  29.494  24.746  15.041
    1STR   H21337931  29.490  24.746  15.150
    1STR   H21437932  29.432  24.663  15.005
    1STR   H21537933  29.447  24.838  15.006
    1STR   C21637934  29.721  24.858  15.034
    1STR   H21737935  29.721  24.867  15.143
    1STR   H21837936  29.825  24.843  15.004
    1STR   O21937937  29.668  24.975  14.974
    1STR   C22037938  29.734  25.097  15.008
    1STR   H22137939  29.755  25.099  15.116
    1STR   C22237940  29.865  25.110  14.929
    1STR   H22337941  29.847  25.103  14.822
    1STR   H22437942  29.937  25.033  14.956
    1STR   H22537943  29.912  25.206  14.948
    1STR   C22637944  29.637  25.212  14.977
    1STR   H22737945  29.615  25.214  14.870
    1STR   H22837946  29.543  25.194  15.028
    1STR   O22937947  29.695  25.335  15.019
    1STR   C23037948  29.616  25.451  14.991
    1STR   H23137949  29.574  25.445  14.890
    1STR   C23237950  29.503  25.463  15.095
    1STR   H23337951  29.543  25.464  15.196
    1STR   H23437952  29.432  25.382  15.088
    1STR   H23537953  29.448  25.556  15.080
    1STR   C23637954  29.711  25.572  14.996
    1STR   H23737955  29.753  25.582  15.096
    1STR   H23837956  29.793  25.556  14.927
    1STR   O23937957  29.639  25.690  14.960
    1STR   C24037958  29.714  25.811  14.964
    1STR   H24137959  29.776  25.814  15.054
    1STR   C24237960  29.802  25.821  14.839
    1STR   H24337961  29.743  25.814  14.748
    1STR   H24437962  29.879  25.744  14.835
    1STR   H24537963  29.854  25.917  14.836
    1STR   C24637964  29.614  25.927  14.972
    1STR   H24737965  29.551  25.929  14.883
    1STR   H24837966  29.548  25.911  15.057
    1STR   O24937967  29.685  26.050  14.986
    1STR   C25037968  29.603  26.167  14.991
    1STR   H25137969  29.524  26.161  14.915
    1STR   C25237970  29.541  26.182  15.131
    1STR   H25337971  29.618  26.183  15.208
    1STR   H25437972  29.472  26.101  15.154
    1STR   H25537973  29.485  26.275  15.138
    1STR   C25637974  29.692  26.287  14.956
    1STR   H25737975  29.772  26.297  15.030
    1STR   H25837976  29.740  26.269  14.860
    1STR   O25937977  29.613  26.406  14.950
    1STR   C26037978  29.685  26.526  14.922
    1STR   H26137979  29.778  26.529  14.980
    1STR   C26237980  29.716  26.534  14.772
    1STR   H26337981  29.625  26.526  14.712
    1STR   H26437982  29.784  26.455  14.739
    1STR   H26537983  29.764  26.629  14.747
    1STR   C26637984  29.598  26.644  14.968
    1STR   H26737985  29.505  26.646  14.911
    1STR   H26837986  29.572  26.630  15.072
    1STR   O26937987  29.669  26.767  14.950
    1STR   C27037988  29.598  26.885  14.986
    1STR   H27137989  29.495  26.879  14.948
    1STR   C27237990  29.597  26.901  15.139
    1STR   H27337991  29.699  26.901  15.178
    1STR   H27437992  29.542  26.821  15.188
    1STR   H27537993  29.550  26.995  15.167
    1STR   C27637994  29.667  27.004  14.917
    1STR   H27737995  29.769  27.013  14.953
    1STR   H27837996  29.672  26.985  14.810
    1STR   O27937997  29.594  27.124  14.943
    1STR   C28037998  29.649  27.243  14.886
    1STR   H28137999  29.757  27.245  14.902
    1STR   C28238000  29.617  27.249  14.736
    1STR   H28338001  29.510  27.241  14.718
    1STR   H28438002  29.667  27.169  14.680
    1STR   H28538003  29.651  27.343  14.693
    1STR   C28638004  29.588  27.364  14.961
    1STR   H28738005  29.480  27.366  14.947
    1STR   H28838006  29.606  27.352  15.068
    1STR   O28938007  29.647  27.485  14.914
    1STR   C29038008  29.597  27.605  14.974
    1STR   H29138009  29.488  27.601  14.981
    1STR   C29238010  29.658  27.622  15.114
    1STR   H29338011  29.767  27.620  15.110
    1STR   H29438012  29.626  27.544  15.183
    1STR   H29538013  29.628  27.717  15.158
    1STR   C29638014  29.635  27.723  14.882
    1STR   H29738015  29.744  27.730  14.873
    1STR   H29838016  29.596  27.703  14.782
    1STR   O29938017  29.582  27.846  14.933
    1STR   C30038018  29.613  27.962  14.856
    1STR   H30138019  29.717  27.960  14.826
    1STR   C30238020  29.522  27.968  14.732
    1STR   H30338021  29.416  27.963  14.760
    1STR   H30438022  29.542  27.887  14.663
    1STR   H30538023  29.537  28.061  14.678
    1STR   C30638024  29.593  28.086  14.945
    1STR   H30738025  29.488  28.095  14.974
    1STR   H30838026  29.649  28.072  15.037
    1STR   O30938027  29.637  28.205  14.878
    1STR    H1R38028  29.521  28.332  14.993
    1STR    H1S38029  29.723  28.431  15.114
    1STR    H1T38030  29.828  28.323  15.023
    1STR    H1U38031  29.712  28.259  15.139
    1STR    H1V38032  29.575  28.434  14.766
    1STR    H1W38033  29.741  28.452  14.816
    1STR    H1X38034  29.537  28.735  15.034
    1STR    H1Y38035  29.575  28.884  15.211
    1STR    H1Z38036  29.643  29.106  15.283
    1STR    H2038037  29.871  29.320  15.123
    1STR    H2138038  29.702  29.378  15.130
    1STR    H2238039  29.773  29.290  15.264
    1STR    H2338040  29.786  29.171  14.759
    1STR    H2738041  29.726  28.963  14.816
    1STR    H2838042  29.774  16.376  15.368
    1STR    H2938043  29.693  16.150  15.376
    1STR    H2A38044  29.699  15.910  15.106
    1STR    H2B38045  29.627  15.957  15.257
    1STR    H2C38046  29.784  15.878  15.258
    1STR   BCK138047  30.093  15.904  29.959
    1STR    O0338048  30.192  15.840  29.927
    1STR    N0438049  30.095  16.029  30.012
    1STR    C0538050  30.201  16.117  30.043
    1STR    C0638051  30.184  16.258  30.024
    1STR    C0738052  30.286  16.354  30.055
    1STR    N0838053  30.265  16.494  30.040
    1STR    C0938054  30.352  16.597  30.043
    1STR    O0A38055  30.474  16.585  30.053
    1STR    O0B38056  30.291  16.720  30.034
    1STR    C0C38057  30.371  16.841  30.028
    1STR    C0D38058  30.425  16.859  29.885
    1STR    C0E38059  30.292  16.967  30.074
    1STR    O0F38060  30.372  17.086  30.063
    1STR    C0G38061  30.311  17.209  30.104
    1STR    C0H38062  30.313  17.219  30.257
    1STR    C0I38063  30.386  17.331  30.042
    1STR    O0J38064  30.321  17.454  30.077
    1STR    C0K38065  30.325  28.357  30.400
    1STR    C0M38066  30.348  28.339  30.249
    1STR    C0N38067  30.227  28.478  30.422
    1STR    O0O38068  30.282  28.601  30.372
    1STR    C0P38069  30.205  28.698  30.312
    1STR    O0Q38070  30.087  28.687  30.281
    1STR    N0R38071  30.280  28.807  30.294
    1STR    C0S38072  30.264  28.936  30.239
    1STR    C0T38073  30.373  29.022  30.264
    1STR    C0U38074  30.380  29.150  30.207
    1STR    C0V38075  30.278  29.197  30.123
    1STR    C0W38076  30.304  29.329  30.051
    1STR    C0X38077  30.160  29.119  30.101
    1STR    N0Y38078  30.060  29.167  30.014
    1STR   BCK238079  30.002  29.290  30.007
    1STR    O1038080  30.010  29.375  30.096
    1STR    C1338081  30.156  28.987  30.158
    1STR    C1438082  30.408  16.304  30.105
    1STR    C1538083  30.426  16.167  30.128
    1STR    C1638084  30.324  16.074  30.102
    1STR    C1738085  30.350  15.931  30.147
    1STR    H1B38086  30.002  16.066  30.025
    1STR    H1C38087  30.091  16.294  29.984
    1STR    H1D38088  30.171  16.526  30.024
    1STR    H1E38089  30.456  16.830  30.096
    1STR    H1F38090  30.344  16.871  29.813
    1STR    H1G38091  30.488  16.948  29.879
    1STR    H1H38092  30.486  16.774  29.855
    1STR    H1I38093  30.260  16.953  30.177
    1STR    H1J38094  30.201  16.978  30.014
    1STR    H1K38095  30.208  17.213  30.067
    1STR    H1M38096  30.414  17.213  30.296
    1STR    H1N38097  30.254  17.140  30.304
    1STR    H1O38098  30.271  17.314  30.290
    1STR    H1P38099  30.490  17.332  30.077
    1STR    H1Q38100  30.389  17.319  29.934
    1STR   C01038101  30.383  17.575  30.031
    1STR   H01138102  30.491  17.571  30.049
    1STR   C01238103  30.356  17.594  29.881
    1STR   H01338104  30.249  17.594  29.860
    1STR   H01438105  30.403  17.516  29.821
    1STR   H01538106  30.396  17.689  29.847
    1STR   C01638107  30.326  17.694  30.112
    1STR   H01738108  30.218  17.700  30.098
    1STR   H01838109  30.343  17.676  30.218
    1STR   O01938110  30.388  17.817  30.073
    1STR   C02038111  30.340  17.935  30.139
    1STR   H02138112  30.231  17.933  30.144
    1STR   C02238113  30.398  17.943  30.281
    1STR   H02338114  30.507  17.941  30.279
    1STR   H02438115  30.364  17.862  30.345
    1STR   H02538116  30.368  18.036  30.330
    1STR   C02638117  30.380  18.059  30.056
    1STR   H02738118  30.489  18.065  30.049
    1STR   H02838119  30.342  18.048  29.955
    1STR   O02938120  30.328  18.179  30.116
    1STR   C03038121  30.362  18.301  30.051
    1STR   H03138122  30.468  18.301  30.024
    1STR   C03238123  30.276  18.320  29.925
    1STR   H03338124  30.169  18.316  29.949
    1STR   H03438125  30.296  18.244  29.850
    1STR   H03538126  30.295  18.416  29.879
    1STR   C03638127  30.340  18.417  30.150
    1STR   H03738128  30.235  18.421  30.180
    1STR   H03838129  30.397  18.398  30.241
    1STR   O03938130  30.380  18.541  30.092
    1STR   C04038131  30.360  18.657  30.172
    1STR   H04138132  30.262  18.653  30.220
    1STR   C04238133  30.471  18.666  30.279
    1STR   H04338134  30.570  18.665  30.233
    1STR   H04438135  30.466  18.584  30.350
    1STR   H04538136  30.461  18.758  30.336
    1STR   C04638137  30.363  18.780  30.080
    1STR   H04738138  30.460  18.788  30.031
    1STR   H04838139  30.288  18.767  30.001
    1STR   O04938140  30.335  18.898  30.156
    1STR   C05038141  30.338  19.021  30.082
    1STR   H05138142  30.425  19.022  30.015
    1STR   C05238143  30.209  19.037  30.001
    1STR   H05338144  30.121  19.031  30.066
    1STR   H05438145  30.198  18.960  29.924
    1STR   H05538146  30.206  19.133  29.951
    1STR   C05638147  30.356  19.136  30.183
    1STR   H05738148  30.271  19.139  30.251
    1STR   H05838149  30.445  19.117  30.243
    1STR   O05938150  30.368  19.260  30.113
    1STR   C06038151  30.381  19.375  30.195
    1STR   H06138152  30.311  19.370  30.278
    1STR   C06238153  30.525  19.386  30.248
    1STR   H06338154  30.597  19.387  30.166
    1STR   H06438155  30.551  19.304  30.315
    1STR   H06538156  30.539  19.478  30.304
    1STR   C06638157  30.344  19.498  30.109
    1STR   H06738158  30.413  19.507  30.026
    1STR   H06838159  30.245  19.483  30.067
    1STR   O06938160  30.347  19.615  30.190
    1STR   C07038161  30.318  19.737  30.122
    1STR   H07138162  30.370  19.739  30.026
    1STR   C07238163  30.166  19.750  30.100
    1STR   H07338164  30.113  19.743  30.195
    1STR   H07438165  30.127  19.673  30.033
    1STR   H07538166  30.142  19.847  30.055
    1STR   C07638167  30.373  19.852  30.208
    1STR   H07738168  30.322  19.854  30.304
    1STR   H07838169  30.478  19.835  30.227
    1STR   O07938170  30.354  19.976  30.139
    1STR   C08038171  30.397  20.092  30.209
    1STR   H08138172  30.366  20.086  30.314
    1STR   C08238173  30.550  20.105  30.201
    1STR   H08338174  30.584  20.106  30.097
    1STR   H08438175  30.602  20.023  30.251
    1STR   H08538176  30.584  20.198  30.247
    1STR   C08638177  30.327  20.213  30.146
    1STR   H08738178  30.357  20.223  30.042
    1STR   H08838179  30.219  20.196  30.147
    1STR   O08938180  30.359  20.331  30.220
    1STR   C09038181  30.304  20.451  30.169
    1STR   H09138182  30.313  20.454  30.060
    1STR   C09238183  30.156  20.462  30.209
    1STR   H09338184  30.144  20.455  30.317
    1STR   H09438185  30.095  20.384  30.163
    1STR   H09538186  30.114  20.558  30.178
    1STR   C09638187  30.386  20.568  30.226
    1STR   H09738188  30.378  20.569  30.335
    1STR   H09838189  30.491  20.552  30.202
    1STR   O09938190  30.340  20.691  30.170
    1STR   C10038191  30.406  20.807  30.218
    1STR   H10138192  30.419  20.802  30.326
    1STR   C10238193  30.542  20.823  30.149
    1STR   H10338194  30.531  20.824  30.041
    1STR   H10438195  30.611  20.742  30.175
    1STR   H10538196  30.590  20.916  30.179
    1STR   C10638197  30.314  20.927  30.188
    1STR   H10738198  30.300  20.937  30.081
    1STR   H10838199  30.216  20.908  30.232
    1STR   O10938200  30.371  21.046  30.243
    1STR   C11038201  30.298  21.165  30.219
    1STR   H11138202  30.263  21.168  30.116
    1STR   C11238203  30.178  21.174  30.315
    1STR   H11338204  30.211  21.166  30.419
    1STR   H11438205  30.105  21.095  30.298
    1STR   H11538206  30.126  21.269  30.304
    1STR   C11638207  30.394  21.283  30.239
    1STR   H11738208  30.430  21.285  30.342
    1STR   H11838209  30.481  21.269  30.175
    1STR   O11938210  30.328  21.405  30.207
    1STR   C12038211  30.405  21.523  30.225
    1STR   H12138212  30.461  21.518  30.319
    1STR   C12238213  30.503  21.540  30.107
    1STR   H12338214  30.449  21.541  30.012
    1STR   H12438215  30.577  21.461  30.103
    1STR   H12538216  30.557  21.635  30.115
    1STR   C12638217  30.307  21.641  30.235
    1STR   H12738218  30.251  21.651  30.142
    1STR   H12838219  30.235  21.621  30.314
    1STR   O12938220  30.380  21.761  30.262
    1STR   C13038221  30.301  21.879  30.270
    1STR   H13138222  30.227  21.880  30.189
    1STR   C13238223  30.230  21.886  30.406
    1STR   H13338224  30.302  21.879  30.488
    1STR   H13438225  30.157  21.805  30.419
    1STR   H13538226  30.176  21.980  30.417
    1STR   C13638227  30.395  21.998  30.250
    1STR   H13738228  30.469  22.001  30.330
    1STR   H13838229  30.450  21.985  30.156
    1STR   O13938230  30.319  22.119  30.247
    1STR   C14038231  30.396  22.238  30.233
    1STR   H14138232  30.484  22.234  30.297
    1STR   C14238233  30.438  22.257  30.086
    1STR   H14338234  30.351  22.256  30.021
    1STR   H14438235  30.506  22.179  30.053
    1STR   H14538236  30.489  22.352  30.073
    1STR   C14638237  30.308  22.355  30.282
    1STR   H14738238  30.219  22.363  30.219
    1STR   H14838239  30.274  22.334  30.383
    1STR   O14938240  30.384  22.476  30.279
    1STR   C15038241  30.312  22.593  30.317
    1STR   H15138242  30.213  22.593  30.273
    1STR   C15238243  30.302  22.599  30.471
    1STR   H15338244  30.400  22.594  30.517
    1STR   H15438245  30.241  22.518  30.511
    1STR   H15538246  30.255  22.692  30.502
    1STR   C15638247  30.389  22.713  30.262
    1STR   H15738248  30.489  22.718  30.305
    1STR   H15838249  30.402  22.701  30.154
    1STR   O15938250  30.317  22.833  30.290
    1STR   C16038251  30.379  22.953  30.247
    1STR   H16138252  30.486  22.951  30.270
    1STR   C16238253  30.359  22.972  30.096
    1STR   H16338254  30.253  22.970  30.070
    1STR   H16438255  30.409  22.895  30.037
    1STR   H16538256  30.399  23.068  30.063
    1STR   C16638257  30.316  23.069  30.327
    1STR   H16738258  30.210  23.075  30.305
    1STR   H16838259  30.326  23.047  30.433
    1STR   O16938260  30.382  23.191  30.294
    1STR   C17038261  30.330  23.307  30.358
    1STR   H17138262  30.221  23.305  30.357
    1STR   C17238263  30.382  23.313  30.503
    1STR   H17338264  30.491  23.310  30.506
    1STR   H17438265  30.344  23.231  30.564
    1STR   H17538266  30.350  23.406  30.551
    1STR   C17638267  30.377  23.428  30.277
    1STR   H17738268  30.486  23.434  30.277
    1STR   H17838269  30.345  23.416  30.173
    1STR   O17938270  30.319  23.547  30.332
    1STR   C18038271  30.358  23.668  30.268
    1STR   H18138272  30.465  23.667  30.246
    1STR   C18238273  30.278  23.686  30.137
    1STR   H18338274  30.171  23.682  30.156
    1STR   H18438275  30.302  23.609  30.064
    1STR   H18538276  30.300  23.782  30.091
    1STR   C18638277  30.330  23.783  30.366
    1STR   H18738278  30.223  23.787  30.389
    1STR   H18838279  30.381  23.762  30.460
    1STR   O18938280  30.375  23.906  30.310
    1STR   C19038281  30.352  24.021  30.391
    1STR   H19138282  30.251  24.018  30.433
    1STR   C19238283  30.456  24.029  30.503
    1STR   H19338284  30.557  24.028  30.463
    1STR   H19438285  30.447  23.946  30.574
    1STR   H19538286  30.445  24.121  30.560
    1STR   C19638287  30.360  24.143  30.298
    1STR   H19738288  30.459  24.151  30.255
    1STR   H19838289  30.290  24.130  30.215
    1STR   O19938290  30.327  24.261  30.372
    1STR   C20038291  30.334  24.383  30.298
    1STR   H20138292  30.424  24.384  30.235
    1STR   C20238293  30.209  24.398  30.211
    1STR   H20338294  30.118  24.393  30.271
    1STR   H20438295  30.203  24.322  30.133
    1STR   H20538296  30.209  24.495  30.160
    1STR   C20638297  30.347  24.497  30.400
    1STR   H20738298  30.258  24.500  30.463
    1STR   H20838299  30.432  24.478  30.465
    1STR   O20938300  30.364  24.621  30.331
    1STR   C21038301  30.372  24.736  30.414
    1STR   H21138302  30.297  24.731  30.493
    1STR   C21238303  30.513  24.746  30.475
    1STR   H21338304  30.590  24.746  30.397
    1STR   H21438305  30.534  24.664  30.543
    1STR   H21538306  30.524  24.838  30.532
    1STR   C21638307  30.341  24.858  30.326
    1STR   H21738308  30.414  24.867  30.247
    1STR   H21838309  30.244  24.844  30.279
    1STR   O21938310  30.339  24.976  30.407
    1STR   C22038311  30.314  25.098  30.337
    1STR   H22138312  30.371  25.100  30.244
    1STR   C22238313  30.164  25.111  30.307
    1STR   H22338314  30.105  25.104  30.399
    1STR   H22438315  30.128  25.034  30.239
    1STR   H22538316  30.142  25.207  30.261
    1STR   C22638317  30.364  25.213  30.426
    1STR   H22738318  30.308  25.215  30.519
    1STR   H22838319  30.468  25.195  30.451
    1STR   O22938320  30.349  25.337  30.356
    1STR   C23038321  30.389  25.453  30.429
    1STR   H23138322  30.352  25.447  30.532
    1STR   C23238323  30.542  25.465  30.429
    1STR   H23338324  30.581  25.465  30.327
    1STR   H23438325  30.590  25.383  30.482
    1STR   H23538326  30.574  25.557  30.477
    1STR   C23638327  30.323  25.575  30.362
    1STR   H23738328  30.358  25.584  30.259
    1STR   H23838329  30.215  25.558  30.358
    1STR   O23938330  30.352  25.693  30.437
    1STR   C24038331  30.299  25.814  30.383
    1STR   H24138332  30.314  25.816  30.275
    1STR   C24238333  30.149  25.823  30.416
    1STR   H24338334  30.132  25.815  30.524
    1STR   H24438335  30.091  25.746  30.367
    1STR   H24538336  30.108  25.919  30.383
    1STR   C24638337  30.377  25.931  30.445
    1STR   H24738338  30.364  25.932  30.553
    1STR   H24838339  30.484  25.915  30.426
    1STR   O24938340  30.334  26.054  30.388
    1STR   C25038341  30.398  26.171  30.439
    1STR   H25138342  30.405  26.166  30.548
    1STR   C25238343  30.538  26.185  30.378
    1STR   H25338344  30.533  26.185  30.269
    1STR   H25438345  30.605  26.104  30.408
    1STR   H25538346  30.585  26.278  30.409
    1STR   C25638347  30.310  26.293  30.404
    1STR   H25738348  30.301  26.302  30.296
    1STR   H25838349  30.209  26.275  30.443
    1STR   O25938350  30.365  26.413  30.460
    1STR   C26038351  30.292  26.533  30.434
    1STR   H26138352  30.263  26.536  30.329
    1STR   C26238353  30.167  26.539  30.523
    1STR   H26338354  30.194  26.530  30.629
    1STR   H26438355  30.096  26.460  30.500
    1STR   H26538356  30.115  26.634  30.511
    1STR   C26638357  30.386  26.653  30.460
    1STR   H26738358  30.417  26.653  30.564
    1STR   H26838359  30.476  26.640  30.400
    1STR   O26938360  30.321  26.776  30.427
    1STR   C27038361  30.399  26.895  30.447
    1STR   H27138362  30.449  26.890  30.544
    1STR   C27238363  30.502  26.909  30.334
    1STR   H27338364  30.454  26.907  30.236
    1STR   H27438365  30.576  26.829  30.336
    1STR   H27538366  30.556  27.003  30.343
    1STR   C27638367  30.303  27.017  30.450
    1STR   H27738368  30.251  27.025  30.355
    1STR   H27838369  30.227  26.999  30.526
    1STR   O27938370  30.374  27.139  30.478
    1STR   C28038371  30.295  27.258  30.484
    1STR   H28138372  30.225  27.260  30.400
    1STR   C28238373  30.217  27.261  30.617
    1STR   H28338374  30.284  27.251  30.702
    1STR   H28438375  30.143  27.181  30.623
    1STR   H28538376  30.163  27.355  30.628
    1STR   C28638377  30.388  27.382  30.472
    1STR   H28738378  30.459  27.383  30.555
    1STR   H28838379  30.446  27.371  30.381
    1STR   O28938380  30.313  27.505  30.470
    1STR   C29038381  30.388  27.626  30.456
    1STR   H29138382  30.473  27.625  30.525
    1STR   C29238383  30.439  27.639  30.311
    1STR   H29338384  30.357  27.633  30.240
    1STR   H29438385  30.511  27.561  30.286
    1STR   H29538386  30.490  27.734  30.296
    1STR   C29638387  30.299  27.748  30.493
    1STR   H29738388  30.211  27.749  30.428
    1STR   H29838389  30.262  27.733  30.595
    1STR   O29938390  30.368  27.874  30.483
    1STR   C30038391  30.292  27.992  30.516
    1STR   H30138392  30.193  27.984  30.471
    1STR   C30238393  30.279  28.002  30.669
    1STR   H30338394  30.377  27.998  30.717
    1STR   H30438395  30.219  27.921  30.711
    1STR   H30538396  30.232  28.095  30.698
    1STR   C30638397  30.360  28.119  30.457
    1STR   H30738398  30.453  28.140  30.510
    1STR   H30838399  30.388  28.095  30.355
    1STR   O30938400  30.274  28.235  30.458
    1STR    H1R38401  30.420  28.381  30.448
    1STR    H1S38402  30.378  28.432  30.202
    1STR    H1T38403  30.256  28.306  30.200
    1STR    H1U38404  30.426  28.266  30.227
    1STR    H1V38405  30.209  28.491  30.529
    1STR    H1W38406  30.130  28.457  30.377
    1STR    H1X38407  30.371  28.789  30.333
    1STR    H1Y38408  30.455  28.990  30.325
    1STR    H1Z38409  30.467  29.210  30.225
    1STR    H2038410  30.263  29.327  29.950
    1STR    H2138411  30.259  29.412  30.106
    1STR    H2238412  30.410  29.348  30.042
    1STR    H2338413  30.027  29.104  29.943
    1STR    H2738414  30.071  28.923  30.140
    1STR    H2838415  30.491  16.368  30.130
    1STR    H2938416  30.520  16.134  30.169
    1STR    H2A38417  30.258  15.882  30.179
    1STR    H2B38418  30.419  15.929  30.231
    1STR    H2C38419  30.395  15.874  30.066
    1STR   BCK138420  29.930  15.892  45.020
    1STR    O0338421  29.815  15.888  45.062
    1STR    N0438422  29.993  16.007  44.988
    1STR    C0538423  29.928  16.120  44.935
    1STR    C0638424  29.941  16.252  44.989
    1STR    C0738425  29.878  16.365  44.927
    1STR    N0838426  29.895  16.498  44.975
    1STR    C0938427  29.833  16.612  44.937
    1STR    O0A38428  29.739  16.616  44.858
    1STR    O0B38429  29.884  16.726  44.995
    1STR    C0C38430  29.825  16.854  44.961
    1STR    C0D38431  29.693  16.873  45.038
    1STR    C0E38432  29.920  16.975  44.983
    1STR    O0F38433  29.855  17.095  44.938
    1STR    C0G38434  29.929  17.217  44.949
    1STR    C0H38435  30.031  17.225  44.834
    1STR    C0I38436  29.831  17.337  44.943
    1STR    O0J38437  29.902  17.460  44.961
    1STR    C0K38438  30.126  28.345  44.674
    1STR    C0M38439  30.011  28.346  44.777
    1STR    C0N38440  30.224  28.462  44.701
    1STR    O0O38441  30.181  28.588  44.647
    1STR    C0P38442  30.124  28.685  44.723
    1STR    O0Q38443  30.096  28.676  44.842
    1STR    N0R38444  30.097  28.791  44.646
    1STR    C0S38445  30.011  28.899  44.668
    1STR    C0T38446  29.899  28.905  44.583
    1STR    C0U38447  29.802  29.005  44.599
    1STR    C0V38448  29.817  29.105  44.697
    1STR    C0W38449  29.697  29.194  44.721
    1STR    C0X38450  29.936  29.111  44.774
    1STR    N0Y38451  29.956  29.213  44.869
    1STR   BCK238452  29.938  29.347  44.868
    1STR    O1038453  29.944  29.409  44.973
    1STR    C1338454  30.030  29.004  44.762
    1STR    C1438455  29.802  16.340  44.810
    1STR    C1538456  29.790  16.212  44.756
    1STR    C1638457  29.855  16.102  44.815
    1STR    C1738458  29.848  15.969  44.743
    1STR    H1B38459  30.093  16.000  44.975
    1STR    H1C38460  29.999  16.266  45.079
    1STR    H1D38461  29.963  16.514  45.048
    1STR    H1E38462  29.802  16.853  44.854
    1STR    H1F38463  29.710  16.877  45.146
    1STR    H1G38464  29.645  16.967  45.009
    1STR    H1H38465  29.623  16.793  45.017
    1STR    H1I38466  30.012  16.958  44.927
    1STR    H1J38467  29.947  16.983  45.088
    1STR    H1K38468  29.981  17.221  45.045
    1STR    H1M38469  29.981  17.219  44.737
    1STR    H1N38470  30.105  17.146  44.839
    1STR    H1O38471  30.084  17.320  44.837
    1STR    H1P38472  29.778  17.338  44.848
    1STR    H1Q38473  29.756  17.326  45.021
    1STR   C01038474  29.825  17.581  44.952
    1STR   H01138475  29.758  17.576  44.866
    1STR   C01238476  29.743  17.599  45.081
    1STR   H01338477  29.807  17.600  45.169
    1STR   H01438478  29.668  17.522  45.094
    1STR   H01538479  29.690  17.695  45.079
    1STR   C01638480  29.921  17.699  44.931
    1STR   H01738481  29.991  17.706  45.015
    1STR   H01838482  29.981  17.680  44.842
    1STR   O01938483  29.849  17.822  44.917
    1STR   C02038484  29.929  17.940  44.900
    1STR   H02138485  30.013  17.938  44.970
    1STR   C02238486  29.981  17.948  44.756
    1STR   H02338487  29.899  17.945  44.684
    1STR   H02438488  30.049  17.866  44.732
    1STR   H02538489  30.036  18.040  44.740
    1STR   C02638490  29.842  18.063  44.934
    1STR   H02738491  29.758  18.069  44.866
    1STR   H02838492  29.801  18.051  45.035
    1STR   O02938493  29.922  18.182  44.927
    1STR   C03038494  29.852  18.304  44.952
    1STR   H03138495  29.756  18.304  44.900
    1STR   C03238496  29.831  18.322  45.103
    1STR   H03338497  29.926  18.318  45.156
    1STR   H03438498  29.766  18.246  45.145
    1STR   H03538499  29.786  18.419  45.124
    1STR   C03638500  29.936  18.420  44.893
    1STR   H03738501  30.033  18.424  44.943
    1STR   H03838502  29.955  18.400  44.788
    1STR   O03938503  29.866  18.543  44.909
    1STR   C04038504  29.935  18.659  44.862
    1STR   H04138505  30.040  18.655  44.893
    1STR   C04238506  29.926  18.668  44.709
    1STR   H04338507  29.822  18.667  44.676
    1STR   H04438508  29.978  18.585  44.660
    1STR   H04538509  29.971  18.760  44.673
    1STR   C04638510  29.871  18.782  44.929
    1STR   H04738511  29.766  18.790  44.900
    1STR   H04838512  29.873  18.769  45.037
    1STR   O04938513  29.943  18.900  44.892
    1STR   C05038514  29.891  19.022  44.944
    1STR   H05138515  29.782  19.023  44.936
    1STR   C05238516  29.932  19.038  45.091
    1STR   H05338517  30.040  19.032  45.103
    1STR   H05438518  29.887  18.962  45.155
    1STR   H05538519  29.900  19.135  45.130
    1STR   C05638520  29.946  19.137  44.858
    1STR   H05738521  30.055  19.140  44.865
    1STR   H05838522  29.921  19.118  44.754
    1STR   O05938523  29.889  19.261  44.901
    1STR   C06038524  29.935  19.376  44.831
    1STR   H06138525  30.044  19.371  44.818
    1STR   C06238526  29.865  19.387  44.695
    1STR   H06338527  29.757  19.387  44.707
    1STR   H06438528  29.891  19.305  44.629
    1STR   H06538529  29.893  19.479  44.644
    1STR   C06638530  29.905  19.498  44.920
    1STR   H06738531  29.797  19.508  44.935
    1STR   H06838532  29.950  19.483  45.018
    1STR   O06938533  29.958  19.616  44.858
    1STR   C07038534  29.933  19.737  44.928
    1STR   H07138535  29.829  19.740  44.964
    1STR   C07238536  30.030  19.751  45.047
    1STR   H07338537  30.133  19.744  45.014
    1STR   H07438538  30.013  19.674  45.122
    1STR   H07538539  30.017  19.847  45.096
    1STR   C07638540  29.950  19.853  44.828
    1STR   H07738541  30.053  19.854  44.791
    1STR   H07838542  29.886  19.835  44.742
    1STR   O07938543  29.917  19.976  44.891
    1STR   C08038544  29.934  20.092  44.810
    1STR   H08138545  30.027  20.086  44.754
    1STR   C08238546  29.815  20.105  44.713
    1STR   H08338547  29.720  20.106  44.767
    1STR   H08438548  29.811  20.024  44.641
    1STR   H08538549  29.822  20.198  44.656
    1STR   C08638550  29.943  20.213  44.904
    1STR   H08738551  29.850  20.223  44.961
    1STR   H08838552  30.022  20.196  44.976
    1STR   O08938553  29.968  20.331  44.828
    1STR   C09038554  29.975  20.452  44.904
    1STR   H09138555  29.895  20.454  44.977
    1STR   C09238556  30.112  20.462  44.973
    1STR   H09338557  30.193  20.455  44.901
    1STR   H09438558  30.126  20.384  45.048
    1STR   H09538559  30.121  20.558  45.025
    1STR   C09638560  29.953  20.568  44.806
    1STR   H09738561  30.032  20.569  44.731
    1STR   H09838562  29.859  20.552  44.752
    1STR   O09938563  29.949  20.691  44.878
    1STR   C10038564  29.933  20.808  44.798
    1STR   H10138565  29.996  20.802  44.709
    1STR   C10238566  29.786  20.823  44.757
    1STR   H10338567  29.721  20.824  44.844
    1STR   H10438568  29.753  20.742  44.691
    1STR   H10538569  29.770  20.916  44.703
    1STR   C10638570  29.981  20.927  44.882
    1STR   H10738571  29.918  20.937  44.971
    1STR   H10838572  30.083  20.909  44.916
    1STR   O10938573  29.975  21.046  44.803
    1STR   C11038574  30.013  21.165  44.870
    1STR   H11138575  29.970  21.168  44.970
    1STR   C11238576  30.167  21.174  44.880
    1STR   H11338577  30.212  21.167  44.781
    1STR   H11438578  30.209  21.095  44.942
    1STR   H11538579  30.197  21.269  44.923
    1STR   C11638580  29.956  21.283  44.790
    1STR   H11738581  29.999  21.285  44.690
    1STR   H11838582  29.848  21.269  44.779
    1STR   O11938583  29.983  21.405  44.859
    1STR   C12038584  29.938  21.523  44.793
    1STR   H12138585  29.960  21.518  44.687
    1STR   C12238586  29.787  21.540  44.815
    1STR   H12338587  29.762  21.541  44.921
    1STR   H12438588  29.729  21.461  44.767
    1STR   H12538589  29.752  21.635  44.772
    1STR   C12638590  30.017  21.641  44.852
    1STR   H12738591  29.995  21.651  44.959
    1STR   H12838592  30.123  21.621  44.843
    1STR   O12938593  29.982  21.761  44.783
    1STR   C13038594  30.045  21.879  44.831
    1STR   H13138595  30.045  21.880  44.940
    1STR   C13238596  30.190  21.886  44.778
    1STR   H13338597  30.192  21.880  44.669
    1STR   H13438598  30.252  21.806  44.818
    1STR   H13538599  30.237  21.980  44.807
    1STR   C13638600  29.962  21.998  44.782
    1STR   H13738601  29.962  22.001  44.673
    1STR   H13838602  29.859  21.985  44.814
    1STR   O13938603  30.016  22.119  44.835
    1STR   C14038604  29.950  22.238  44.793
    1STR   H14138605  29.928  22.234  44.687
    1STR   C14238606  29.821  22.257  44.874
    1STR   H14338607  29.840  22.256  44.981
    1STR   H14438608  29.748  22.179  44.852
    1STR   H14538609  29.773  22.352  44.849
    1STR   C14638610  30.048  22.355  44.817
    1STR   H14738611  30.071  22.363  44.923
    1STR   H14838612  30.142  22.334  44.765
    1STR   O14938613  29.990  22.476  44.768
    1STR   C15038614  30.069  22.593  44.788
    1STR   H15138615  30.112  22.593  44.888
    1STR   C15238616  30.180  22.599  44.682
    1STR   H15338617  30.139  22.594  44.581
    1STR   H15438618  30.252  22.518  44.693
    1STR   H15538619  30.236  22.692  44.691
    1STR   C15638620  29.975  22.713  44.777
    1STR   H15738621  29.931  22.718  44.677
    1STR   H15838622  29.893  22.701  44.848
    1STR   O15938623  30.047  22.833  44.805
    1STR   C16038624  29.972  22.953  44.795
    1STR   H16138625  29.909  22.951  44.706
    1STR   C16238626  29.885  22.972  44.920
    1STR   H16338627  29.946  22.970  45.011
    1STR   H16438628  29.809  22.895  44.929
    1STR   H16538629  29.833  23.068  44.917
    1STR   C16638630  30.072  23.069  44.779
    1STR   H16738631  30.136  23.075  44.867
    1STR   H16838632  30.137  23.047  44.694
    1STR   O16938633  30.002  23.191  44.758
    1STR   C17038634  30.083  23.307  44.746
    1STR   H17138635  30.163  23.305  44.820
    1STR   C17238636  30.143  23.313  44.604
    1STR   H17338637  30.065  23.310  44.528
    1STR   H17438638  30.212  23.231  44.585
    1STR   H17538639  30.199  23.406  44.590
    1STR   C17638640  29.994  23.429  44.775
    1STR   H17738641  29.914  23.434  44.701
    1STR   H17838642  29.947  23.416  44.872
    1STR   O17938643  30.074  23.547  44.773
    1STR   C18038644  30.002  23.668  44.794
    1STR   H18138645  29.909  23.667  44.737
    1STR   C18238646  29.973  23.686  44.944
    1STR   H18338647  30.065  23.682  45.003
    1STR   H18438648  29.905  23.609  44.982
    1STR   H18538649  29.926  23.782  44.963
    1STR   C18638650  30.089  23.783  44.740
    1STR   H18738651  30.183  23.787  44.796
    1STR   H18838652  30.115  23.762  44.636
    1STR   O18938653  30.018  23.906  44.751
    1STR   C19038654  30.089  24.021  44.707
    1STR   H19138655  30.192  24.017  44.744
    1STR   C19238656  30.088  24.029  44.554
    1STR   H19338657  29.986  24.028  44.515
    1STR   H19438658  30.142  23.946  44.508
    1STR   H19538659  30.135  24.121  44.520
    1STR   C19638660  30.021  24.143  44.771
    1STR   H19738661  29.918  24.151  44.735
    1STR   H19838662  30.017  24.130  44.879
    1STR   O19938663  30.095  24.261  44.738
    1STR   C20038664  30.040  24.382  44.787
    1STR   H20138665  29.931  24.384  44.773
    1STR   C20238666  30.073  24.398  44.937
    1STR   H20338667  30.181  24.393  44.954
    1STR   H20438668  30.026  24.322  44.998
    1STR   H20538669  30.039  24.495  44.974
    1STR   C20638670  30.100  24.497  44.704
    1STR   H20738671  30.208  24.500  44.717
    1STR   H20838672  30.081  24.478  44.599
    1STR   O20938673  30.040  24.620  44.744
    1STR   C21038674  30.090  24.736  44.676
    1STR   H21138675  30.199  24.731  44.668
    1STR   C21238676  30.027  24.746  44.536
    1STR   H21338677  29.919  24.746  44.542
    1STR   H21438678  30.058  24.663  44.472
    1STR   H21538679  30.058  24.838  44.487
    1STR   C21638680  30.054  24.858  44.762
    1STR   H21738681  29.946  24.867  44.771
    1STR   H21838682  30.093  24.843  44.863
    1STR   O21938683  30.110  24.975  44.704
    1STR   C22038684  30.081  25.097  44.773
    1STR   H22138685  29.976  25.099  44.803
    1STR   C22238686  30.172  25.110  44.896
    1STR   H22338687  30.277  25.103  44.868
    1STR   H22438688  30.152  25.033  44.970
    1STR   H22538689  30.157  25.207  44.945
    1STR   C22638690  30.104  25.212  44.673
    1STR   H22738691  30.209  25.214  44.642
    1STR   H22838692  30.044  25.194  44.584
    1STR   O22938693  30.068  25.336  44.734
    1STR   C23038694  30.088  25.451  44.654
    1STR   H23138695  30.185  25.446  44.603
    1STR   C23238696  29.975  25.464  44.551
    1STR   H23338697  29.877  25.465  44.599
    1STR   H23438698  29.976  25.382  44.478
    1STR   H23538699  29.985  25.556  44.494
    1STR   C23638700  30.092  25.573  44.748
    1STR   H23738701  29.996  25.583  44.800
    1STR   H23838702  30.168  25.556  44.824
    1STR   O23938703  30.121  25.691  44.673
    1STR   C24038704  30.124  25.812  44.749
    1STR   H24138705  30.039  25.815  44.818
    1STR   C24238706  30.256  25.822  44.826
    1STR   H24338707  30.342  25.814  44.759
    1STR   H24438708  30.266  25.744  44.902
    1STR   H24538709  30.263  25.918  44.877
    1STR   C24638710  30.107  25.929  44.650
    1STR   H24738711  30.190  25.930  44.579
    1STR   H24838712  30.016  25.913  44.592
    1STR   O24938713  30.100  26.052  44.721
    1STR   C25038714  30.088  26.169  44.640
    1STR   H25138715  30.156  26.163  44.555
    1STR   C25238716  29.943  26.183  44.591
    1STR   H25338717  29.873  26.184  44.675
    1STR   H25438718  29.914  26.102  44.524
    1STR   H25538719  29.930  26.276  44.536
    1STR   C25638720  30.130  26.289  44.726
    1STR   H25738721  30.063  26.299  44.812
    1STR   H25838722  30.229  26.271  44.766
    1STR   O25938723  30.128  26.408  44.647
    1STR   C26038724  30.163  26.528  44.716
    1STR   H26138725  30.113  26.531  44.814
    1STR   C26238726  30.315  26.536  44.734
    1STR   H26338727  30.366  26.527  44.638
    1STR   H26438728  30.353  26.457  44.799
    1STR   H26538729  30.344  26.631  44.779
    1STR   C26638730  30.110  26.647  44.634
    1STR   H26738731  30.158  26.648  44.535
    1STR   H26838732  30.004  26.634  44.617
    1STR   O26938733  30.135  26.770  44.702
    1STR   C27038734  30.092  26.889  44.635
    1STR   H27138735  30.120  26.883  44.529
    1STR   C27238736  29.940  26.904  44.648
    1STR   H27338737  29.909  26.903  44.752
    1STR   H27438738  29.886  26.824  44.596
    1STR   H27538739  29.906  26.998  44.604
    1STR   C27638740  30.166  27.009  44.697
    1STR   H27738741  30.139  27.018  44.803
    1STR   H27838742  30.273  26.990  44.693
    1STR   O27938743  30.133  27.130  44.627
    1STR   C28038744  30.195  27.249  44.677
    1STR   H28138745  30.189  27.251  44.786
    1STR   C28238746  30.342  27.253  44.632
    1STR   H28338747  30.350  27.244  44.524
    1STR   H28438748  30.401  27.174  44.677
    1STR   H28538749  30.388  27.348  44.661
    1STR   C28638750  30.117  27.371  44.623
    1STR   H28738751  30.121  27.372  44.514
    1STR   H28838752  30.012  27.360  44.651
    1STR   O28938753  30.169  27.493  44.676
    1STR   C29038754  30.104  27.614  44.634
    1STR   H29138755  30.088  27.611  44.526
    1STR   C29238756  29.970  27.628  44.707
    1STR   H29338757  29.983  27.624  44.815
    1STR   H29438758  29.899  27.550  44.679
    1STR   H29538759  29.923  27.723  44.682
    1STR   C29638760  30.197  27.734  44.665
    1STR   H29738761  30.217  27.738  44.772
    1STR   H29838762  30.293  27.717  44.615
    1STR   O29938763  30.140  27.858  44.621
    1STR   C30038764  30.219  27.976  44.646
    1STR   H30138765  30.260  27.971  44.747
    1STR   C30238766  30.334  27.983  44.544
    1STR   H30338767  30.296  27.978  44.442
    1STR   H30438768  30.405  27.902  44.557
    1STR   H30538769  30.389  28.076  44.554
    1STR   C30638770  30.129  28.102  44.637
    1STR   H30738771  30.093  28.115  44.535
    1STR   H30838772  30.041  28.084  44.699
    1STR   O30938773  30.198  28.220  44.682
    1STR    H1R38774  30.087  28.356  44.573
    1STR    H1S38775  29.962  28.443  44.779
    1STR    H1T38776  30.049  28.326  44.877
    1STR    H1U38777  29.935  28.272  44.754
    1STR    H1V38778  30.319  28.440  44.652
    1STR    H1W38779  30.248  28.471  44.808
    1STR    H1X38780  30.132  28.777  44.552
    1STR    H1Y38781  29.883  28.828  44.508
    1STR    H1Z38782  29.714  29.003  44.537
    1STR    H2038783  29.698  29.238  44.821
    1STR    H2138784  29.692  29.274  44.647
    1STR    H2238785  29.604  29.137  44.714
    1STR    H2338786  29.990  29.182  44.959
    1STR    H2738787  30.118  29.002  44.825
    1STR    H2838788  29.751  16.417  44.755
    1STR    H2938789  29.733  16.198  44.666
    1STR    H2A38790  29.946  15.922  44.739
    1STR    H2B38791  29.814  15.981  44.640
    1STR    H2C38792  29.779  15.902  44.794
    1STR   BCK138793  30.001  30.937  60.151
    1STR    O0338794  30.081  30.868   0.053
    1STR    N0438795  29.976  31.068   0.016
    1STR    C0538796  30.018  31.155   0.122
    1STR    C0638797  30.042  31.295   0.097
    1STR    C0738798  30.076  31.388   0.201
    1STR    N0838799  30.094  31.527   0.176
    1STR    C0938800  30.104  31.632   0.262
    1STR    O0A38801  30.098  31.622   0.384
    1STR    O0B38802  30.122  31.754   0.200
    1STR    C0C38803  30.143  31.874   0.279
    1STR    C0D38804  30.291  31.885   0.319
    1STR    C0E38805  30.097  32.004   0.206
    1STR    O0F38806  30.120  32.122   0.286
    1STR    C0G38807  30.075  32.248   0.231
    1STR    C0H38808  29.923  32.259   0.247
    1STR    C0I38809  30.145  32.368   0.301
    1STR    O0J38810  30.104  32.492   0.240
    1STR    C0K38811  29.738  43.388   0.292
    1STR    C0M38812  29.892  43.388   0.287
    1STR    C0N38813  29.683  43.506   0.207
    1STR    O0O38814  29.720  43.634   0.262
    1STR    C0P38815  29.741  43.742   0.181
    1STR    O0Q38816  29.739  43.739   0.059
    1STR    N0R38817  29.766  43.851   0.255
    1STR    C0S38818  29.803  43.982   0.222
    1STR    C0T38819  29.847  44.064   0.328
    1STR    C0U38820  29.898  44.192   0.304
    1STR    C0V38821  29.904  44.245   0.173
    1STR    C0W38822  29.981  44.375   0.154
    1STR    C0X38823  29.850  44.171   0.064
    1STR    N0Y38824  29.857  44.212  60.090
    1STR   BCK238825  29.828  44.322  60.018
    1STR    O1038826  29.842  44.317  59.896
    1STR    C1338827  29.803  44.039   0.091
    1STR    C1438828  30.092  31.335   0.331
    1STR    C1538829  30.066  31.200   0.358
    1STR    C1638830  30.026  31.111   0.257
    1STR    C1738831  29.985  30.973   0.304
    1STR    H1B38832  29.917  31.111  60.107
    1STR    H1C38833  30.032  31.331  60.157
    1STR    H1D38834  30.099  31.558   0.080
    1STR    H1E38835  30.084  31.867   0.370
    1STR    H1F38836  30.356  31.893   0.232
    1STR    H1G38837  30.308  31.972   0.382
    1STR    H1H38838  30.323  31.798   0.377
    1STR    H1I38839  29.991  31.995   0.183
    1STR    H1J38840  30.150  32.014   0.111
    1STR    H1K38841  30.102  32.252   0.125
    1STR    H1M38842  29.893  32.252   0.352
    1STR    H1N38843  29.869  32.182   0.192
    1STR    H1O38844  29.887  32.355   0.209
    1STR    H1P38845  30.120  32.369   0.407
    1STR    H1Q38846  30.253  32.357   0.294
    1STR   C01038847  30.155  32.613   0.298
    1STR   H01138848  30.146  32.609   0.407
    1STR   C01238849  30.302  32.632   0.258
    1STR   H01338850  30.314  32.633   0.150
    1STR   H01438851  30.367  32.555   0.299
    1STR   H01538852  30.340  32.728   0.295
    1STR   C01638853  30.069  32.733   0.248
    1STR   H01738854  30.074  32.739   0.140
    1STR   H01838855  29.965  32.715   0.274
    1STR   O01938856  30.114  32.856   0.306
    1STR   C02038857  30.044  32.975   0.264
    1STR   H02138858  30.030  32.972   0.156
    1STR   C02238859  29.908  32.983   0.335
    1STR   H02338860  29.919  32.981   0.443
    1STR   H02438861  29.842  32.901   0.306
    1STR   H02538862  29.857  33.076   0.309
    1STR   C02638863  30.130  33.099   0.297
    1STR   H02738864  30.147  33.105   0.405
    1STR   H02838865  30.228  33.088   0.250
    1STR   O02938866  30.066  33.218   0.250
    1STR   C03038867  30.134  33.341   0.278
    1STR   H03138868  30.170  33.340   0.381
    1STR   C03238869  30.251  33.359   0.181
    1STR   H03338870  30.218  33.356   0.078
    1STR   H03438871  30.328  33.283   0.194
    1STR   H03538872  30.299  33.456   0.197
    1STR   C03638873  30.033  33.457   0.265
    1STR   H03738874  29.994  33.461   0.163
    1STR   H03838875  29.948  33.437   0.330
    1STR   O03938876  30.095  33.581   0.300
    1STR   C04038877  30.013  33.697   0.287
    1STR   H04138878  29.956  33.693   0.194
    1STR   C04238879  29.916  33.706   0.407
    1STR   H04338880  29.970  33.705   0.501
    1STR   H04438881  29.845  33.624   0.408
    1STR   H04538882  29.858  33.798   0.402
    1STR   C04638883  30.105  33.820   0.282
    1STR   H04738884  30.162  33.828   0.374
    1STR   H04838885  30.177  33.807   0.201
    1STR   O04938886  30.027  33.938   0.261
    1STR   C05038887  30.101  34.061   0.258
    1STR   H05138888  30.175  34.062   0.338
    1STR   C05238889  30.170  34.076   0.121
    1STR   H05338890  30.098  34.071   0.040
    1STR   H05438891  30.246  34.000   0.104
    1STR   H05538892  30.220  34.173   0.115
    1STR   C05638893  30.002  34.176   0.284
    1STR   H05738894  29.927  34.179   0.205
    1STR   H05838895  29.950  34.157   0.377
    1STR   O05938896  30.073  34.300   0.290
    1STR   C06038897  29.992  34.415   0.310
    1STR   H06138898  29.903  34.410   0.247
    1STR   C06238899  29.951  34.426   0.458
    1STR   H06338900  30.039  34.426   0.523
    1STR   H06438901  29.887  34.344   0.489
    1STR   H06538902  29.896  34.518   0.476
    1STR   C06638903  30.074  34.538   0.266
    1STR   H06738904  30.163  34.547   0.327
    1STR   H06838905  30.107  34.523   0.163
    1STR   O06938906  29.993  34.655   0.275
    1STR   C07038907  30.059  34.777   0.241
    1STR   H07138908  30.159  34.779   0.284
    1STR   C07238909  30.068  34.790   0.088
    1STR   H07338910  29.969  34.783   0.042
    1STR   H07438911  30.131  34.713   0.043
    1STR   H07538912  30.110  34.887   0.060
    1STR   C07638913  29.978  34.892   0.303
    1STR   H07738914  29.878  34.894   0.261
    1STR   H07838915  29.968  34.875   0.410
    1STR   O07938916  30.045  35.016   0.278
    1STR   C08038917  29.979  35.132   0.327
    1STR   H08138918  29.872  35.126   0.305
    1STR   C08238919  30.001  35.145   0.479
    1STR   H08338920  30.107  35.146   0.503
    1STR   H08438921  29.955  35.064   0.534
    1STR   H08538922  29.957  35.238   0.516
    1STR   C08638923  30.036  35.253   0.252
    1STR   H08738924  30.142  35.263   0.272
    1STR   H08838925  30.025  35.236   0.144
    1STR   O08938926  29.965  35.371   0.291
    1STR   C09038927  30.011  35.491   0.231
    1STR   H09138928  30.120  35.494   0.230
    1STR   C09238929  29.958  35.502   0.087
    1STR   H09338930  29.849  35.495   0.085
    1STR   H09438931  29.998  35.425   0.022
    1STR   H09538932  29.985  35.598   0.043
    1STR   C09638933  29.961  35.608   0.318
    1STR   H09738934  29.852  35.609   0.319
    1STR   H09838935  29.995  35.592   0.420
    1STR   O09938936  30.013  35.731   0.267
    1STR   C10038937  29.971  35.847   0.337
    1STR   H10138938  29.864  35.842   0.359
    1STR   C10238939  30.052  35.863   0.467
    1STR   H10338940  30.159  35.864   0.446
    1STR   H10438941  30.032  35.782   0.537
    1STR   H10538942  30.026  35.956   0.517
    1STR   C10638943  29.992  35.967   0.243
    1STR   H10738944  30.098  35.977   0.219
    1STR   H10838945  29.940  35.948   0.149
    1STR   O10938946  29.943  36.086   0.305
    1STR   C11038947  29.960  36.205   0.229
    1STR   H11138948  30.060  36.208   0.185
    1STR   C11238949  29.854  36.214   0.119
    1STR   H11338950  29.753  36.207   0.160
    1STR   H11438951  29.865  36.135   0.044
    1STR   H11538952  29.861  36.309   0.066
    1STR   C11638953  29.949  36.323   0.327
    1STR   H11738954  29.850  36.325   0.372
    1STR   H11838955  30.021  36.309   0.408
    1STR   O11938956  29.975  36.445   0.258
    1STR   C12038957  29.964  36.563   0.337
    1STR   H12138958  29.875  36.558   0.400
    1STR   C12238959  30.090  36.580   0.423
    1STR   H12338960  30.180  36.581   0.362
    1STR   H12438961  30.101  36.501   0.497
    1STR   H12538962  30.087  36.675   0.478
    1STR   C12638963  29.946  36.681   0.240
    1STR   H12738964  30.034  36.691   0.176
    1STR   H12838965  29.861  36.661   0.175
    1STR   O12938966  29.925  36.801   0.315
    1STR   C13038967  29.910  36.919   0.237
    1STR   H13138968  29.984  36.920   0.156
    1STR   C13238969  29.768  36.926   0.178
    1STR   H13338970  29.693  36.919   0.256
    1STR   H13438971  29.749  36.846   0.107
    1STR   H13538972  29.753  37.020   0.125
    1STR   C13638973  29.938  37.038   0.329
    1STR   H13738974  29.865  37.041   0.410
    1STR   H13838975  30.036  37.025   0.375
    1STR   O13938976  29.934  37.159   0.253
    1STR   C14038977  29.955  37.278   0.328
    1STR   H14138978  29.899  37.274   0.422
    1STR   C14238979  30.105  37.297   0.357
    1STR   H14338980  30.163  37.296   0.264
    1STR   H14438981  30.145  37.219   0.422
    1STR   H14538982  30.123  37.392   0.407
    1STR   C14638983  29.899  37.395   0.245
    1STR   H14738984  29.954  37.403   0.151
    1STR   H14838985  29.795  37.374   0.220
    1STR   O14938986  29.909  37.516   0.320
    1STR   C15038987  29.864  37.633   0.252
    1STR   H15138988  29.900  37.633   0.149
    1STR   C15238989  29.710  37.639   0.255
    1STR   H15338990  29.673  37.634   0.357
    1STR   H15438991  29.665  37.558   0.199
    1STR   H15538992  29.675  37.732   0.211
    1STR   C15638993  29.926  37.753   0.324
    1STR   H15738994  29.891  37.758   0.427
    1STR   H15838995  30.034  37.741   0.327
    1STR   O15938996  29.892  37.873   0.254
    1STR   C16038997  29.940  37.993   0.313
    1STR   H16138998  29.926  37.991   0.421
    1STR   C16238999  30.089  38.012   0.279
    1STR   H16339000  30.105  38.010   0.171
    1STR   H16439001  30.151  37.935   0.324
    1STR   H16539002  30.125  38.108   0.316
    1STR   C16639003  29.855  38.109   0.257
    1STR   H16739004  29.868  38.115   0.149
    1STR   H16839005  29.750  38.087   0.276
    1STR   O16939006  29.894  38.231   0.320
    1STR   C17039007  29.825  38.347   0.274
    1STR   H17139008  29.816  38.345   0.165
    1STR   C17239009  29.685  38.353   0.338
    1STR   H17339010  29.691  38.350   0.447
    1STR   H17439011  29.621  38.271   0.306
    1STR   H17539012  29.634  38.446   0.310
    1STR   C17639013  29.910  38.468   0.313
    1STR   H17739014  29.919  38.474   0.421
    1STR   H17839015  30.010  38.456   0.273
    1STR   O17939016  29.850  38.587   0.261
    1STR   C18039017  29.917  38.708   0.293
    1STR   H18139018  29.948  38.707   0.398
    1STR   C18239019  30.040  38.726   0.202
    1STR   H18339020  30.012  38.722   0.097
    1STR   H18439021  30.116  38.649   0.220
    1STR   H18539022  30.088  38.822   0.220
    1STR   C18639023  29.817  38.823   0.274
    1STR   H18739024  29.785  38.827   0.170
    1STR   H18839025  29.728  38.802   0.334
    1STR   O18939026  29.876  38.946   0.314
    1STR   C19039027  29.794  39.061   0.298
    1STR   H19139028  29.743  39.057   0.201
    1STR   C19239029  29.692  39.069   0.412
    1STR   H19339030  29.741  39.068   0.509
    1STR   H19439031  29.620  38.986   0.409
    1STR   H19539032  29.634  39.161   0.405
    1STR   C19639033  29.887  39.183   0.298
    1STR   H19739034  29.939  39.191   0.393
    1STR   H19839035  29.964  39.170   0.221
    1STR   O19939036  29.811  39.301   0.272
    1STR   C20039037  29.885  39.422   0.273
    1STR   H20139038  29.955  39.423   0.356
    1STR   C20239039  29.961  39.438   0.140
    1STR   H20339040  29.893  39.433   0.055
    1STR   H20439041  30.037  39.362   0.127
    1STR   H20539042  30.011  39.535   0.136
    1STR   C20639043  29.785  39.537   0.294
    1STR   H20739044  29.714  39.540   0.211
    1STR   H20839045  29.727  39.518   0.384
    1STR   O20939046  29.855  39.660   0.305
    1STR   C21039047  29.773  39.776   0.321
    1STR   H21139048  29.687  39.771   0.253
    1STR   C21239049  29.724  39.786   0.466
    1STR   H21339050  29.808  39.786   0.536
    1STR   H21439051  29.658  39.703   0.493
    1STR   H21539052  29.668  39.878   0.482
    1STR   C21639053  29.857  39.898   0.281
    1STR   H21739054  29.943  39.907   0.348
    1STR   H21839055  29.897  39.883   0.180
    1STR   O21939056  29.777  40.015   0.286
    1STR   C22039057  29.844  40.137   0.255
    1STR   H22139058  29.942  40.139   0.304
    1STR   C22239059  29.861  40.150   0.103
    1STR   H22339060  29.764  40.143   0.052
    1STR   H22439061  29.926  40.073   0.062
    1STR   H22539062  29.905  40.246   0.077
    1STR   C22639063  29.760  40.252   0.313
    1STR   H22739064  29.662  40.254   0.265
    1STR   H22839065  29.744  40.235   0.419
    1STR   O22939066  29.828  40.376   0.292
    1STR   C23039067  29.759  40.492   0.338
    1STR   H23139068  29.654  40.486   0.310
    1STR   C23239069  29.773  40.504   0.491
    1STR   H23339070  29.877  40.505   0.521
    1STR   H23439071  29.723  40.422   0.543
    1STR   H23539072  29.727  40.597   0.526
    1STR   C23639073  29.820  40.613   0.267
    1STR   H23739074  29.926  40.623   0.293
    1STR   H23839075  29.816  40.597   0.159
    1STR   O23939076  29.748  40.731   0.302
    1STR   C24039077  29.797  40.852   0.244
    1STR   H24139078  29.906  40.855   0.250
    1STR   C24239079  29.751  40.862   0.098
    1STR   H24339080  29.643  40.854   0.090
    1STR   H24439081  29.795  40.785   0.035
    1STR   H24539082  29.781  40.958   0.055
    1STR   C24639083  29.742  40.969   0.328
    1STR   H24739084  29.633  40.970   0.324
    1STR   H24839085  29.770  40.953   0.433
    1STR   O24939086  29.796  41.092   0.280
    1STR   C25039087  29.750  41.209   0.348
    1STR   H25139088  29.643  41.203   0.365
    1STR   C25239089  29.824  41.223   0.483
    1STR   H25339090  29.932  41.224   0.468
    1STR   H25439091  29.800  41.143   0.552
    1STR   H25539092  29.797  41.317   0.532
    1STR   C25639093  29.777  41.330   0.257
    1STR   H25739094  29.884  41.340   0.239
    1STR   H25839095  29.730  41.312   0.160
    1STR   O25939096  29.726  41.449   0.316
    1STR   C26039097  29.746  41.569   0.242
    1STR   H26139098  29.848  41.572   0.203
    1STR   C26239099  29.646  41.576   0.126
    1STR   H26339100  29.543  41.568   0.162
    1STR   H26439101  29.662  41.497   0.052
    1STR   H26539102  29.655  41.671   0.073
    1STR   C26639103  29.729  41.689   0.338
    1STR   H26739104  29.627  41.689   0.378
    1STR   H26839105  29.796  41.675   0.423
    1STR   O26939106  29.757  41.812   0.271
    1STR   C27039107  29.743  41.930   0.350
    1STR   H27139108  29.651  41.925   0.408
    1STR   C27239109  29.864  41.945   0.443
    1STR   H27339110  29.957  41.944   0.387
    1STR   H27439111  29.869  41.865   0.517
    1STR   H27539112  29.859  42.039   0.498
    1STR   C27639113  29.731  42.051   0.254
    1STR   H27739114  29.822  42.059   0.194
    1STR   H27839115  29.649  42.032   0.185
    1STR   O27939116  29.708  42.172   0.327
    1STR   C28039117  29.696  42.291   0.249
    1STR   H28139118  29.774  42.293   0.173
    1STR   C28239119  29.557  42.295   0.183
    1STR   H28339120  29.478  42.286   0.257
    1STR   H28439121  29.544  42.215   0.110
    1STR   H28539122  29.543  42.389   0.130
    1STR   C28639123  29.717  42.413   0.342
    1STR   H28739124  29.640  42.414   0.419
    1STR   H28839125  29.813  42.402   0.392
    1STR   O28939126  29.714  42.536   0.267
    1STR   C29039127  29.733  42.656   0.342
    1STR   H29139128  29.673  42.653   0.433
    1STR   C29239129  29.882  42.670   0.379
    1STR   H29339130  29.945  42.667   0.291
    1STR   H29439131  29.915  42.592   0.447
    1STR   H29539132  29.900  42.766   0.429
    1STR   C29639133  29.685  42.777   0.257
    1STR   H29739134  29.743  42.781   0.165
    1STR   H29839135  29.582  42.759   0.228
    1STR   O29939136  29.697  42.901   0.328
    1STR   C30039137  29.653  43.018   0.256
    1STR   H30139138  29.691  43.014   0.154
    1STR   C30239139  29.500  43.023   0.255
    1STR   H30339140  29.459  43.017   0.356
    1STR   H30439141  29.456  42.941   0.197
    1STR   H30539142  29.464  43.116   0.210
    1STR   C30639143  29.712  43.146   0.322
    1STR   H30739144  29.671  43.158   0.422
    1STR   H30839145  29.819  43.130   0.334
    1STR   O30939146  29.688  43.263   0.242
    1STR    H1R39147  29.705  43.402   0.395
    1STR    H1S39148  29.932  43.486   0.315
    1STR    H1T39149  29.928  43.366   0.187
    1STR    H1U39150  29.937  43.316   0.355
    1STR    H1V39151  29.574  43.502   0.204
    1STR    H1W39152  29.717  43.496   0.104
    1STR    H1X39153  29.759  43.828   0.353
    1STR    H1Y39154  29.848  44.027   0.430
    1STR    H1Z39155  29.937  44.249   0.387
    1STR    H2039156  30.049  44.366   0.070
    1STR    H2139157  29.914  44.459   0.138
    1STR    H2239158  30.040  44.399   0.242
    1STR    H2339159  29.884  44.139  60.027
    1STR    H2739160  29.768  43.978   0.009
    1STR    H2839161  30.123  31.396   0.415
    1STR    H2939162  30.076  31.166   0.460
    1STR    H2A39163  29.905  30.932   0.243
    1STR    H2B39164  29.949  30.975   0.407
    1STR    H2C39165  30.071  30.905   0.301
    1STR   BCK139166  30.017  30.949  14.872
    1STR    O0339167  29.961  30.963  14.764
    1STR    N0439168  30.090  31.044  14.933
    1STR    C0539169  30.159  31.151  14.872
    1STR    C0639170  30.121  31.289  14.884
    1STR    C0739171  30.203  31.395  14.831
    1STR    N0839172  30.171  31.532  14.847
    1STR    C0939173  30.220  31.641  14.783
    1STR    O0A39174  30.298  31.635  14.688
    1STR    O0B39175  30.175  31.760  14.833
    1STR    C0C39176  30.216  31.885  14.770
    1STR    C0D39177  30.133  31.908  14.642
    1STR    C0E39178  30.205  32.008  14.865
    1STR    O0F39179  30.245  32.129  14.796
    1STR    C0G39180  30.239  32.251  14.871
    1STR    C0H39181  30.361  32.260  14.964
    1STR    C0I39182  30.237  32.373  14.774
    1STR    O0J39183  30.224  32.496  14.847
    1STR    C0K39184  30.489  43.393  15.015
    1STR    C0M39185  30.376  43.367  14.913
    1STR    C0N39186  30.457  43.525  15.092
    1STR    O0O39187  30.459  43.639  15.003
    1STR    C0P39188  30.373  43.745  15.015
    1STR    O0Q39189  30.280  43.755  15.093
    1STR    N0R39190  30.410  43.840  14.928
    1STR    C0S39191  30.368  43.970  14.895
    1STR    C0T39192  30.469  44.052  14.842
    1STR    C0U39193  30.442  44.182  14.800
    1STR    C0V39194  30.313  44.237  14.808
    1STR    C0W39195  30.300  44.381  14.764
    1STR    C0X39196  30.205  44.159  14.859
    1STR    N0Y39197  30.072  44.207  14.879
    1STR   BCK239198  29.983  44.303  14.842
    1STR    O1039199  29.878  44.307  14.903
    1STR    C1339200  30.236  44.026  14.904
    1STR    C1439201  30.324  31.356  14.768
    1STR    C1539202  30.362  31.222  14.757
    1STR    C1639203  30.282  31.120  14.810
    1STR    C1739204  30.331  30.976  14.803
    1STR    H1B39205  30.119  31.020  15.026
    1STR    H1C39206  30.030  31.313  14.936
    1STR    H1D39207  30.101  31.557  14.915
    1STR    H1E39208  30.321  31.876  14.742
    1STR    H1F39209  30.027  31.917  14.664
    1STR    H1G39210  30.165  31.999  14.591
    1STR    H1H39211  30.146  31.825  14.572
    1STR    H1I39212  30.268  31.992  14.952
    1STR    H1J39213  30.102  32.019  14.901
    1STR    H1K39214  30.148  32.254  14.930
    1STR    H1M39215  30.454  32.255  14.907
    1STR    H1N39216  30.363  32.181  15.038
    1STR    H1O39217  30.362  32.355  15.018
    1STR    H1P39218  30.327  32.374  14.714
    1STR    H1Q39219  30.153  32.362  14.705
    1STR   C01039220  30.225  32.617  14.771
    1STR   H01139221  30.305  32.613  14.696
    1STR   C01239222  30.090  32.636  14.701
    1STR   H01339223  30.008  32.636  14.773
    1STR   H01439224  30.070  32.558  14.627
    1STR   H01539225  30.087  32.731  14.648
    1STR   C01639226  30.255  32.736  14.865
    1STR   H01739227  30.178  32.743  14.942
    1STR   H01839228  30.349  32.718  14.916
    1STR   O01939229  30.262  32.859  14.792
    1STR   C02039230  30.285  32.977  14.870
    1STR   H02139231  30.223  32.975  14.960
    1STR   C02239232  30.433  32.985  14.910
    1STR   H02339233  30.498  32.983  14.822
    1STR   H02439234  30.463  32.904  14.975
    1STR   H02539235  30.454  33.078  14.963
    1STR   C02639236  30.244  33.101  14.787
    1STR   H02739237  30.304  33.107  14.697
    1STR   H02839238  30.140  33.089  14.756
    1STR   O02939239  30.259  33.220  14.865
    1STR   C03039240  30.228  33.343  14.798
    1STR   H03139241  30.271  33.342  14.698
    1STR   C03239242  30.076  33.361  14.791
    1STR   H03339243  30.031  33.357  14.890
    1STR   H03439244  30.028  33.285  14.729
    1STR   H03539245  30.051  33.458  14.747
    1STR   C03639246  30.294  33.458  14.877
    1STR   H03739247  30.253  33.462  14.978
    1STR   H03839248  30.401  33.438  14.886
    1STR   O03939249  30.272  33.582  14.809
    1STR   C04039250  30.324  33.698  14.873
    1STR   H04139251  30.303  33.694  14.980
    1STR   C04239252  30.476  33.707  14.851
    1STR   H04339253  30.500  33.706  14.744
    1STR   H04439254  30.530  33.625  14.898
    1STR   H04539255  30.516  33.799  14.893
    1STR   C04639256  30.252  33.821  14.815
    1STR   H04739257  30.272  33.829  14.708
    1STR   H04839258  30.145  33.808  14.827
    1STR   O04939259  30.295  33.939  14.883
    1STR   C05039260  30.239  34.061  14.836
    1STR   H05139261  30.238  34.062  14.727
    1STR   C05239262  30.096  34.077  14.890
    1STR   H05339263  30.094  34.072  14.999
    1STR   H05439264  30.028  34.001  14.851
    1STR   H05539265  30.054  34.174  14.861
    1STR   C05639266  30.329  34.176  14.883
    1STR   H05739267  30.332  34.179  14.992
    1STR   H05839268  30.431  34.157  14.850
    1STR   O05939269  30.282  34.300  14.831
    1STR   C06039270  30.355  34.416  14.871
    1STR   H06139271  30.378  34.411  14.977
    1STR   C06239272  30.485  34.426  14.789
    1STR   H06339273  30.464  34.427  14.682
    1STR   H06439274  30.553  34.344  14.809
    1STR   H06539275  30.537  34.519  14.813
    1STR   C06639276  30.264  34.538  14.848
    1STR   H06739277  30.240  34.547  14.742
    1STR   H06839278  30.170  34.523  14.901
    1STR   O06939279  30.330  34.655  14.895
    1STR   C07039280  30.258  34.777  14.876
    1STR   H07139281  30.214  34.779  14.776
    1STR   C07239282  30.148  34.790  14.983
    1STR   H07339283  30.190  34.783  15.084
    1STR   H07439284  30.072  34.714  14.973
    1STR   H07539285  30.098  34.887  14.975
    1STR   C07639286  30.359  34.892  14.885
    1STR   H07739287  30.405  34.894  14.985
    1STR   H07839288  30.440  34.875  14.814
    1STR   O07939289  30.294  35.016  14.858
    1STR   C08039290  30.376  35.132  14.867
    1STR   H08139291  30.440  35.126  14.955
    1STR   C08239292  30.462  35.145  14.740
    1STR   H08339293  30.400  35.146  14.651
    1STR   H08439294  30.534  35.064  14.731
    1STR   H08539295  30.519  35.238  14.742
    1STR   C08639296  30.283  35.253  14.884
    1STR   H08739297  30.218  35.263  14.797
    1STR   H08839298  30.218  35.236  14.970
    1STR   O08939299  30.361  35.371  14.903
    1STR   C09039300  30.286  35.491  14.916
    1STR   H09139301  30.206  35.494  14.843
    1STR   C09239302  30.229  35.502  15.058
    1STR   H09339303  30.308  35.495  15.133
    1STR   H09439304  30.155  35.424  15.079
    1STR   H09539305  30.179  35.598  15.072
    1STR   C09639306  30.382  35.608  14.886
    1STR   H09739307  30.463  35.609  14.958
    1STR   H09839308  30.427  35.592  14.788
    1STR   O09939309  30.310  35.731  14.888
    1STR   C10039310  30.388  35.848  14.865
    1STR   H10139311  30.482  35.842  14.921
    1STR   C10239312  30.416  35.863  14.715
    1STR   H10339313  30.324  35.864  14.658
    1STR   H10439314  30.479  35.782  14.676
    1STR   H10539315  30.469  35.956  14.695
    1STR   C10639316  30.308  35.967  14.920
    1STR   H10739317  30.214  35.977  14.866
    1STR   H10839318  30.283  35.948  15.025
    1STR   O10939319  30.387  36.086  14.908
    1STR   C11039320  30.323  36.205  14.952
    1STR   H11139321  30.220  36.208  14.917
    1STR   C11239322  30.327  36.213  15.105
    1STR   H11339323  30.430  36.206  15.142
    1STR   H11439324  30.269  36.135  15.153
    1STR   H11539325  30.286  36.308  15.140
    1STR   C11639326  30.397  36.323  14.887
    1STR   H11739327  30.501  36.325  14.921
    1STR   H11839328  30.399  36.309  14.779
    1STR   O11939329  30.331  36.445  14.921
    1STR   C12039330  30.393  36.563  14.870
    1STR   H12139331  30.501  36.558  14.883
    1STR   C12239332  30.359  36.580  14.721
    1STR   H12339333  30.251  36.581  14.706
    1STR   H12439334  30.401  36.501  14.660
    1STR   H12539335  30.398  36.675  14.683
    1STR   C12639336  30.341  36.681  14.954
    1STR   H12739337  30.233  36.691  14.942
    1STR   H12839338  30.360  36.661  15.059
    1STR   O12939339  30.407  36.801  14.913
    1STR   C13039340  30.365  36.919  14.980
    1STR   H13139341  30.256  36.920  14.989
    1STR   C13239342  30.430  36.926  15.120
    1STR   H13339343  30.538  36.919  15.113
    1STR   H13439344  30.395  36.846  15.185
    1STR   H13539345  30.405  37.020  15.169
    1STR   C13639346  30.407  37.038  14.893
    1STR   H13739347  30.515  37.041  14.883
    1STR   H13839348  30.365  37.025  14.793
    1STR   O13939349  30.358  37.159  14.952
    1STR   C14039350  30.394  37.278  14.882
    1STR   H14139351  30.498  37.274  14.851
    1STR   C14239352  30.303  37.297  14.760
    1STR   H14339353  30.198  37.296  14.789
    1STR   H14439354  30.317  37.219  14.686
    1STR   H14539355  30.323  37.392  14.711
    1STR   C14639356  30.379  37.395  14.982
    1STR   H14739357  30.275  37.403  15.014
    1STR   H14839358  30.438  37.374  15.070
    1STR   O14939359  30.422  37.516  14.920
    1STR   C15039360  30.410  37.633  15.000
    1STR   H15139361  30.314  37.633  15.052
    1STR   C15239362  30.525  37.639  15.102
    1STR   H15339363  30.621  37.634  15.052
    1STR   H15439364  30.520  37.558  15.174
    1STR   H15539365  30.521  37.732  15.158
    1STR   C15639366  30.412  37.754  14.905
    1STR   H15739367  30.508  37.758  14.852
    1STR   H15839368  30.335  37.741  14.830
    1STR   O15939369  30.390  37.873  14.980
    1STR   C16039370  30.394  37.993  14.904
    1STR   H16139371  30.478  37.991  14.833
    1STR   C16239372  30.262  38.012  14.828
    1STR   H16339373  30.177  38.010  14.897
    1STR   H16439374  30.246  37.935  14.753
    1STR   H16539375  30.260  38.108  14.776
    1STR   C16639376  30.419  38.109  15.002
    1STR   H16739377  30.337  38.115  15.074
    1STR   H16839378  30.510  38.087  15.060
    1STR   O16939379  30.434  38.231  14.930
    1STR   C17039380  30.453  38.347  15.010
    1STR   H17139381  30.386  38.345  15.096
    1STR   C17239382  30.600  38.353  15.058
    1STR   H17339383  30.668  38.350  14.973
    1STR   H17439384  30.625  38.271  15.125
    1STR   H17539385  30.618  38.446  15.112
    1STR   C17639386  30.417  38.468  14.924
    1STR   H17739387  30.483  38.474  14.838
    1STR   H17839388  30.316  38.456  14.886
    1STR   O17939389  30.426  38.587  15.003
    1STR   C18039390  30.398  38.708  14.934
    1STR   H18139391  30.446  38.707  14.836
    1STR   C18239392  30.246  38.726  14.918
    1STR   H18339393  30.196  38.722  15.014
    1STR   H18439394  30.202  38.649  14.854
    1STR   H18539395  30.223  38.822  14.872
    1STR   C18639396  30.459  38.823  15.016
    1STR   H18739397  30.412  38.827  15.114
    1STR   H18839398  30.565  38.802  15.032
    1STR   O18939399  30.443  38.946  14.946
    1STR   C19039400  30.492  39.061  15.013
    1STR   H19139401  30.464  39.057  15.119
    1STR   C19239402  30.645  39.069  14.998
    1STR   H19339403  30.674  39.068  14.894
    1STR   H19439404  30.695  38.987  15.049
    1STR   H19539405  30.683  39.161  15.042
    1STR   C19639406  30.423  39.183  14.951
    1STR   H19739407  30.449  39.191  14.845
    1STR   H19839408  30.315  39.170  14.956
    1STR   O19939409  30.462  39.301  15.021
    1STR   C20039410  30.408  39.423  14.971
    1STR   H20139411  30.413  39.424  14.862
    1STR   C20239412  30.262  39.438  15.017
    1STR   H20339413  30.255  39.433  15.126
    1STR   H20439414  30.197  39.362  14.975
    1STR   H20539415  30.222  39.535  14.986
    1STR   C20639416  30.496  39.537  15.023
    1STR   H20739417  30.493  39.540  15.132
    1STR   H20839418  30.600  39.518  14.995
    1STR   O20939419  30.452  39.661  14.967
    1STR   C21039420  30.523  39.776  15.011
    1STR   H21139421  30.540  39.771  15.119
    1STR   C21239422  30.657  39.786  14.937
    1STR   H21339423  30.642  39.786  14.829
    1STR   H21439424  30.724  39.704  14.961
    1STR   H21539425  30.709  39.878  14.963
    1STR   C21639426  30.434  39.898  14.983
    1STR   H21739427  30.416  39.907  14.876
    1STR   H21839428  30.337  39.883  15.031
    1STR   O21939429  30.497  40.016  15.034
    1STR   C22039430  30.426  40.137  15.011
    1STR   H22139431  30.387  40.140  14.909
    1STR   C22239432  30.311  40.150  15.112
    1STR   H22339433  30.348  40.143  15.214
    1STR   H22439434  30.235  40.074  15.098
    1STR   H22539435  30.261  40.247  15.101
    1STR   C22639436  30.527  40.253  15.025
    1STR   H22739437  30.567  40.255  15.127
    1STR   H22839438  30.611  40.235  14.958
    1STR   O22939439  30.463  40.377  14.994
    1STR   C23039440  30.545  40.492  15.007
    1STR   H23139441  30.604  40.487  15.099
    1STR   C23239442  30.638  40.504  14.886
    1STR   H23339443  30.581  40.505  14.793
    1STR   H23439444  30.710  40.423  14.880
    1STR   H23539445  30.695  40.597  14.890
    1STR   C23639446  30.452  40.614  15.019
    1STR   H23739447  30.392  40.624  14.928
    1STR   H23839448  30.382  40.598  15.102
    1STR   O23939449  30.529  40.732  15.041
    1STR   C24039450  30.454  40.853  15.051
    1STR   H24139451  30.377  40.856  14.973
    1STR   C24239452  30.389  40.863  15.190
    1STR   H24339453  30.463  40.855  15.269
    1STR   H24439454  30.314  40.786  15.206
    1STR   H24539455  30.338  40.959  15.202
    1STR   C24639456  30.551  40.971  15.026
    1STR   H24739457  30.628  40.971  15.103
    1STR   H24839458  30.601  40.955  14.931
    1STR   O24939459  30.479  41.094  15.026
    1STR   C25039460  30.558  41.211  15.006
    1STR   H25139461  30.649  41.205  15.066
    1STR   C25239462  30.595  41.225  14.857
    1STR   H25339463  30.506  41.225  14.795
    1STR   H25439464  30.660  41.144  14.823
    1STR   H25539465  30.648  41.318  14.839
    1STR   C25639466  30.477  41.333  15.055
    1STR   H25739467  30.386  41.342  14.996
    1STR   H25839468  30.447  41.315  15.158
    1STR   O25939469  30.555  41.452  15.045
    1STR   C26039470  30.490  41.573  15.087
    1STR   H26139471  30.388  41.575  15.046
    1STR   C26239472  30.485  41.579  15.240
    1STR   H26339473  30.585  41.570  15.283
    1STR   H26439474  30.423  41.500  15.283
    1STR   H26539475  30.443  41.674  15.274
    1STR   C26639476  30.567  41.693  15.028
    1STR   H26739477  30.669  41.693  15.067
    1STR   H26839478  30.575  41.679  14.920
    1STR   O26939479  30.502  41.816  15.059
    1STR   C27039480  30.565  41.935  15.010
    1STR   H27139481  30.672  41.930  15.029
    1STR   C27239482  30.538  41.949  14.859
    1STR   H27339483  30.432  41.947  14.838
    1STR   H27439484  30.585  41.869  14.802
    1STR   H27539485  30.578  42.043  14.822
    1STR   C27639486  30.509  42.056  15.088
    1STR   H27739487  30.402  42.064  15.072
    1STR   H27839488  30.523  42.038  15.194
    1STR   O27939489  30.575  42.178  15.049
    1STR   C28039490  30.531  42.297  15.116
    1STR   H28139491  30.422  42.300  15.120
    1STR   C28239492  30.589  42.300  15.259
    1STR   H28339493  30.698  42.290  15.257
    1STR   H28439494  30.549  42.220  15.321
    1STR   H28539495  30.565  42.394  15.308
    1STR   C28639496  30.578  42.421  15.035
    1STR   H28739497  30.687  42.422  15.029
    1STR   H28839498  30.541  42.411  14.933
    1STR   O28939499  30.531  42.544  15.093
    1STR   C29039500  30.566  42.666  15.025
    1STR   H29139501  30.672  42.664  14.999
    1STR   C29239502  30.482  42.678  14.896
    1STR   H29339503  30.376  42.672  14.918
    1STR   H29439504  30.506  42.600  14.824
    1STR   H29539505  30.501  42.773  14.847
    1STR   C29639506  30.542  42.788  15.118
    1STR   H29739507  30.437  42.790  15.148
    1STR   H29839508  30.600  42.773  15.209
    1STR   O29939509  30.577  42.913  15.056
    1STR   C30039510  30.557  43.033  15.134
    1STR   H30139511  30.460  43.027  15.183
    1STR   C30239512  30.669  43.043  15.239
    1STR   H30339513  30.767  43.038  15.192
    1STR   H30439514  30.663  42.963  15.313
    1STR   H30539515  30.663  43.137  15.293
    1STR   C30639516  30.555  43.157  15.040
    1STR   H30739517  30.655  43.174  14.999
    1STR   H30839518  30.493  43.130  14.955
    1STR   O30939519  30.504  43.278  15.101
    1STR    H1R39520  30.584  43.409  14.962
    1STR    H1S39521  30.356  43.457  14.854
    1STR    H1T39522  30.284  43.341  14.965
    1STR    H1U39523  30.400  43.288  14.843
    1STR    H1V39524  30.532  43.542  15.170
    1STR    H1W39525  30.361  43.517  15.144
    1STR    H1X39526  30.493  43.808  14.880
    1STR    H1Y39527  30.571  44.016  14.834
    1STR    H1Z39528  30.524  44.242  14.761
    1STR    H2039529  30.256  44.384  14.664
    1STR    H2139530  30.240  44.438  14.835
    1STR    H2239531  30.397  44.430  14.757
    1STR    H2339532  30.023  44.150  14.947
    1STR    H2739533  30.159  43.963  14.945
    1STR    H2839534  30.392  31.429  14.727
    1STR    H2939535  30.455  31.198  14.708
    1STR    H2A39536  30.331  30.931  14.902
    1STR    H2B39537  30.433  30.971  14.765
    1STR    H2C39538  30.267  30.918  14.737
    1STR   BCK139539  29.936  30.929  30.002
    1STR    O0339540  29.915  30.883  30.114
    1STR    N0439541  29.928  31.060  29.971
    1STR    C0539542  29.853  31.161  30.036
    1STR    C0639543  29.902  31.294  30.054
    1STR    C0739544  29.820  31.399  30.108
    1STR    N0839545  29.865  31.534  30.120
    1STR    C0939546  29.791  31.647  30.129
    1STR    O0A39547  29.668  31.649  30.122
    1STR    O0B39548  29.865  31.761  30.146
    1STR    C0C39549  29.799  31.887  30.174
    1STR    C0D39550  29.777  31.899  30.326
    1STR    C0E39551  29.874  32.011  30.119
    1STR    O0F39552  29.799  32.131  30.147
    1STR    C0G39553  29.852  32.255  30.096
    1STR    C0H39554  29.822  32.264  29.945
    1STR    C0I39555  29.788  32.375  30.170
    1STR    O0J39556  29.846  32.498  30.125
    1STR    C0K39557  29.736  43.374  29.762
    1STR    C0M39558  29.765  43.380  29.913
    1STR    C0N39559  29.796  43.498  29.691
    1STR    O0O39560  29.717  43.614  29.721
    1STR    C0P39561  29.774  43.733  29.749
    1STR    O0Q39562  29.894  43.757  29.752
    1STR    N0R39563  29.678  43.821  29.779
    1STR    C0S39564  29.688  43.948  29.837
    1STR    C0T39565  29.599  43.977  29.942
    1STR    C0U39566  29.608  44.098  30.013
    1STR    C0V39567  29.701  44.196  29.976
    1STR    C0W39568  29.719  44.314  30.070
    1STR    C0X39569  29.781  44.177  29.860
    1STR    N0Y39570  29.867  44.275  29.810
    1STR   BCK239571  29.844  44.401  29.767
    1STR    O1039572  29.933  44.460  29.707
    1STR    C1339573  29.778  44.050  29.796
    1STR    C1439574  29.690  31.364  30.150
    1STR    C1539575  29.639  31.235  30.131
    1STR    C1639576  29.717  31.135  30.070
    1STR    C1739577  29.647  31.004  30.037
    1STR    H1B39578  29.971  31.085  29.884
    1STR    H1C39579  30.003  31.317  30.025
    1STR    H1D39580  29.964  31.552  30.121
    1STR    H1E39581  29.701  31.888  30.126
    1STR    H1F39582  29.871  31.903  30.380
    1STR    H1G39583  29.722  31.991  30.350
    1STR    H1H39584  29.718  31.816  30.364
    1STR    H1I39585  29.887  31.999  30.012
    1STR    H1J39586  29.973  32.019  30.164
    1STR    H1K39587  29.959  32.258  30.113
    1STR    H1M39588  29.715  32.258  29.925
    1STR    H1N39589  29.872  32.186  29.888
    1STR    H1O39590  29.857  32.360  29.905
    1STR    H1P39591  29.680  32.376  30.154
    1STR    H1Q39592  29.804  32.363  30.277
    1STR   C01039593  29.792  32.619  30.181
    1STR   H01139594  29.683  32.614  30.181
    1STR   C01239595  29.844  32.638  30.324
    1STR   H01339596  29.953  32.638  30.327
    1STR   H01439597  29.809  32.560  30.392
    1STR   H01539598  29.810  32.733  30.365
    1STR   C01639599  29.833  32.738  30.091
    1STR   H01739600  29.942  32.744  30.087
    1STR   H01839601  29.799  32.719  29.989
    1STR   O01939602  29.778  32.861  30.140
    1STR   C02039603  29.814  32.978  30.067
    1STR   H02139604  29.920  32.976  30.043
    1STR   C02239605  29.731  32.986  29.937
    1STR   H02339606  29.624  32.984  29.959
    1STR   H02439607  29.753  32.905  29.869
    1STR   H02539608  29.752  33.079  29.884
    1STR   C02639609  29.788  33.102  30.156
    1STR   H02739610  29.682  33.108  30.182
    1STR   H02839611  29.843  33.090  30.249
    1STR   O02939612  29.830  33.221  30.088
    1STR   C03039613  29.808  33.343  30.158
    1STR   H03139614  29.708  33.343  30.204
    1STR   C03239615  29.915  33.362  30.267
    1STR   H03339616  30.015  33.358  30.224
    1STR   H03439617  29.909  33.286  30.344
    1STR   H03539618  29.904  33.458  30.316
    1STR   C03639619  29.812  33.459  30.056
    1STR   H03739620  29.911  33.463  30.009
    1STR   H03839621  29.740  33.439  29.977
    1STR   O03939622  29.782  33.583  30.121
    1STR   C04039623  29.788  33.699  30.038
    1STR   H04139624  29.876  33.695  29.974
    1STR   C04239625  29.660  33.707  29.952
    1STR   H04339626  29.571  33.707  30.014
    1STR   H04439627  29.653  33.625  29.881
    1STR   H04539628  29.659  33.800  29.894
    1STR   C04639629  29.801  33.822  30.129
    1STR   H04739630  29.714  33.829  30.195
    1STR   H04839631  29.888  33.808  30.194
    1STR   O04939632  29.816  33.940  30.050
    1STR   C05039633  29.825  34.062  30.123
    1STR   H05139634  29.752  34.063  30.204
    1STR   C05239635  29.967  34.078  30.180
    1STR   H05339636  30.042  34.072  30.101
    1STR   H05439637  29.991  34.001  30.254
    1STR   H05539638  29.978  34.174  30.229
    1STR   C05639639  29.790  34.177  30.027
    1STR   H05739640  29.862  34.180  29.945
    1STR   H05839641  29.693  34.158  29.983
    1STR   O05939642  29.790  34.300  30.098
    1STR   C06039643  29.763  34.416  30.019
    1STR   H06139644  29.818  34.411  29.925
    1STR   C06239645  29.612  34.426  29.992
    1STR   H06339646  29.555  34.427  30.085
    1STR   H06439647  29.575  34.344  29.930
    1STR   H06539648  29.589  34.519  29.939
    1STR   C06639649  29.815  34.538  30.097
    1STR   H06739650  29.761  34.548  30.191
    1STR   H06839651  29.920  34.523  30.121
    1STR   O06939652  29.798  34.656  30.018
    1STR   C07039653  29.838  34.777  30.080
    1STR   H07139654  29.804  34.780  30.184
    1STR   C07239655  29.991  34.790  30.075
    1STR   H07339656  30.028  34.784  29.973
    1STR   H07439657  30.042  34.714  30.134
    1STR   H07539658  30.023  34.887  30.115
    1STR   C07639659  29.770  34.893  30.005
    1STR   H07739660  29.803  34.894  29.901
    1STR   H07839661  29.662  34.875  30.004
    1STR   O07939662  29.800  35.016  30.070
    1STR   C08039663  29.745  35.132  30.008
    1STR   H08139664  29.758  35.126  29.899
    1STR   C08239665  29.596  35.145  30.043
    1STR   H08339666  29.581  35.146  30.151
    1STR   H08439667  29.537  35.064  30.002
    1STR   H08539668  29.555  35.238  30.003
    1STR   C08639669  29.825  35.253  30.058
    1STR   H08739670  29.814  35.263  30.166
    1STR   H08839671  29.931  35.236  30.038
    1STR   O08939672  29.781  35.371  29.991
    1STR   C09039673  29.844  35.492  30.032
    1STR   H09139674  29.854  35.494  30.141
    1STR   C09239675  29.983  35.502  29.966
    1STR   H09339676  29.976  35.495  29.858
    1STR   H09439677  30.051  35.425  30.000
    1STR   H09539678  30.029  35.598  29.989
    1STR   C09639679  29.753  35.608  29.990
    1STR   H09739680  29.742  35.609  29.881
    1STR   H09839681  29.654  35.592  30.032
    1STR   O09939682  29.808  35.731  30.037
    1STR   C10039683  29.735  35.848  30.001
    1STR   H10139684  29.703  35.842  29.896
    1STR   C10239685  29.613  35.863  30.092
    1STR   H10339686  29.642  35.864  30.197
    1STR   H10439687  29.541  35.782  30.079
    1STR   H10539688  29.560  35.956  30.071
    1STR   C10639689  29.831  35.967  30.014
    1STR   H10739690  29.863  35.977  30.118
    1STR   H10839691  29.920  35.948  29.954
    1STR   O10939692  29.765  36.086  29.970
    1STR   C11039693  29.841  36.205  29.981
    1STR   H11139694  29.894  36.208  30.077
    1STR   C11239695  29.942  36.214  29.865
    1STR   H11339696  29.892  36.207  29.769
    1STR   H11439697  30.017  36.135  29.870
    1STR   H11539698  29.996  36.308  29.867
    1STR   C11639699  29.743  36.323  29.978
    1STR   H11739700  29.689  36.325  29.883
    1STR   H11839701  29.668  36.309  30.056
    1STR   O11939702  29.814  36.445  29.998
    1STR   C12039703  29.734  36.563  29.994
    1STR   H12139704  29.663  36.558  29.911
    1STR   C12239705  29.659  36.580  30.127
    1STR   H12339706  29.728  36.581  30.211
    1STR   H12439707  29.586  36.501  30.144
    1STR   H12539708  29.604  36.675  30.128
    1STR   C12639709  29.829  36.681  29.967
    1STR   H12739710  29.901  36.691  30.049
    1STR   H12839711  29.886  36.661  29.877
    1STR   O12939712  29.753  36.801  29.953
    1STR   C13039713  29.829  36.919  29.931
    1STR   H13139714  29.916  36.920  29.998
    1STR   C13239715  29.875  36.926  29.785
    1STR   H13339716  29.790  36.919  29.717
    1STR   H13439717  29.945  36.846  29.759
    1STR   H13539718  29.927  37.020  29.765
    1STR   C13639719  29.740  37.038  29.968
    1STR   H13739720  29.653  37.041  29.902
    1STR   H13839721  29.703  37.025  30.069
    1STR   O13939722  29.815  37.159  29.957
    1STR   C14039723  29.742  37.278  29.984
    1STR   H14139724  29.644  37.274  29.937
    1STR   C14239725  29.727  37.297  30.136
    1STR   H14339726  29.824  37.296  30.186
    1STR   H14439727  29.666  37.219  30.181
    1STR   H14539728  29.678  37.392  30.159
    1STR   C14639729  29.820  37.395  29.921
    1STR   H14739730  29.919  37.403  29.967
    1STR   H14839731  29.836  37.374  29.815
    1STR   O14939732  29.746  37.516  29.937
    1STR   C15039733  29.810  37.633  29.887
    1STR   H15139734  29.916  37.633  29.913
    1STR   C15239735  29.793  37.639  29.734
    1STR   H15339736  29.688  37.634  29.705
    1STR   H15439737  29.846  37.558  29.684
    1STR   H15539738  29.834  37.732  29.695
    1STR   C15639739  29.744  37.753  29.955
    1STR   H15739740  29.638  37.758  29.930
    1STR   H15839741  29.750  37.741  30.063
    1STR   O15939742  29.810  37.873  29.915
    1STR   C16039743  29.756  37.993  29.968
    1STR   H16139744  29.647  37.991  29.964
    1STR   C16239745  29.803  38.012  30.113
    1STR   H16339746  29.912  38.010  30.120
    1STR   H16439747  29.764  37.935  30.179
    1STR   H16539748  29.770  38.108  30.153
    1STR   C16639749  29.804  38.109  29.878
    1STR   H16739750  29.913  38.115  29.881
    1STR   H16839751  29.776  38.087  29.775
    1STR   O16939752  29.745  38.231  29.922
    1STR   C17039753  29.785  38.347  29.850
    1STR   H17139754  29.893  38.345  29.832
    1STR   C17239755  29.709  38.353  29.716
    1STR   H17339756  29.601  38.350  29.732
    1STR   H17439757  29.736  38.271  29.649
    1STR   H17539758  29.732  38.446  29.663
    1STR   C17639759  29.753  38.468  29.938
    1STR   H17739760  29.646  38.474  29.957
    1STR   H17839761  29.802  38.456  30.035
    1STR   O17939762  29.800  38.587  29.874
    1STR   C18039763  29.774  38.708  29.944
    1STR   H18139764  29.672  38.707  29.983
    1STR   C18239765  29.875  38.726  30.058
    1STR   H18339766  29.977  38.722  30.021
    1STR   H18439767  29.864  38.649  30.135
    1STR   H18539768  29.861  38.822  30.107
    1STR   C18639769  29.784  38.823  29.842
    1STR   H18739770  29.885  38.827  29.801
    1STR   H18839771  29.717  38.802  29.758
    1STR   O18939772  29.749  38.945  29.905
    1STR   C19039773  29.758  39.061  29.822
    1STR   H19139774  29.850  39.057  29.762
    1STR   C19239775  29.636  39.069  29.729
    1STR   H19339776  29.543  39.068  29.787
    1STR   H19439777  29.632  38.986  29.658
    1STR   H19539778  29.637  39.161  29.671
    1STR   C19639779  29.767  39.183  29.914
    1STR   H19739780  29.676  39.191  29.974
    1STR   H19839781  29.850  39.170  29.983
    1STR   O19939782  29.786  39.301  29.836
    1STR   C20039783  29.792  39.422  29.910
    1STR   H20139784  29.714  39.423  29.987
    1STR   C20239785  29.930  39.438  29.974
    1STR   H20339786  30.009  39.433  29.898
    1STR   H20439787  29.950  39.362  30.049
    1STR   H20539788  29.939  39.535  30.023
    1STR   C20639789  29.762  39.537  29.811
    1STR   H20739790  29.838  39.540  29.733
    1STR   H20839791  29.666  39.517  29.762
    1STR   O20939792  29.757  39.660  29.882
    1STR   C21039793  29.734  39.776  29.802
    1STR   H21139794  29.794  39.771  29.711
    1STR   C21239795  29.585  39.786  29.766
    1STR   H21339796  29.523  39.786  29.856
    1STR   H21439797  29.552  39.703  29.703
    1STR   H21539798  29.564  39.878  29.712
    1STR   C21639799  29.781  39.898  29.883
    1STR   H21739800  29.722  39.907  29.974
    1STR   H21839801  29.884  39.883  29.913
    1STR   O21939802  29.768  40.015  29.803
    1STR   C22039803  29.805  40.137  29.867
    1STR   H22139804  29.765  40.139  29.969
    1STR   C22239805  29.958  40.150  29.870
    1STR   H22339806  30.000  40.143  29.770
    1STR   H22439807  30.005  40.073  29.932
    1STR   H22539808  29.988  40.246  29.912
    1STR   C22639809  29.740  40.252  29.789
    1STR   H22739810  29.779  40.254  29.687
    1STR   H22839811  29.633  40.234  29.782
    1STR   O22939812  29.767  40.375  29.855
    1STR   C23039813  29.715  40.491  29.790
    1STR   H23139814  29.733  40.485  29.682
    1STR   C23239815  29.564  40.503  29.817
    1STR   H23339816  29.543  40.505  29.924
    1STR   H23439817  29.507  40.422  29.773
    1STR   H23539818  29.525  40.596  29.775
    1STR   C23639819  29.792  40.612  29.844
    1STR   H23739820  29.775  40.622  29.952
    1STR   H23839821  29.899  40.596  29.831
    1STR   O23939822  29.750  40.730  29.776
    1STR   C24039823  29.812  40.851  29.819
    1STR   H24139824  29.816  40.854  29.928
    1STR   C24239825  29.954  40.862  29.761
    1STR   H24339826  29.952  40.854  29.652
    1STR   H24439827  30.020  40.784  29.799
    1STR   H24539828  29.999  40.957  29.787
    1STR   C24639829  29.723  40.968  29.772
    1STR   H24739830  29.718  40.969  29.663
    1STR   H24839831  29.622  40.952  29.809
    1STR   O24939832  29.776  41.091  29.822
    1STR   C25039833  29.704  41.208  29.782
    1STR   H25139834  29.678  41.202  29.676
    1STR   C25239835  29.577  41.222  29.867
    1STR   H25339836  29.601  41.223  29.974
    1STR   H25439837  29.506  41.141  29.849
    1STR   H25539838  29.525  41.315  29.844
    1STR   C25639839  29.798  41.328  29.801
    1STR   H25739840  29.825  41.338  29.906
    1STR   H25839841  29.890  41.310  29.746
    1STR   O25939842  29.734  41.447  29.754
    1STR   C26039843  29.810  41.567  29.769
    1STR   H26139844  29.857  41.569  29.867
    1STR   C26239845  29.917  41.574  29.659
    1STR   H26339846  29.872  41.566  29.560
    1STR   H26439847  29.992  41.496  29.668
    1STR   H26539848  29.970  41.669  29.663
    1STR   C26639849  29.712  41.685  29.760
    1STR   H26739850  29.664  41.686  29.662
    1STR   H26839851  29.634  41.671  29.834
    1STR   O26939852  29.782  41.808  29.783
    1STR   C27039853  29.702  41.926  29.775
    1STR   H27139854  29.636  41.921  29.689
    1STR   C27239855  29.620  41.942  29.904
    1STR   H27339856  29.684  41.942  29.992
    1STR   H27439857  29.546  41.862  29.916
    1STR   H27539858  29.565  42.036  29.903
    1STR   C27639859  29.797  42.046  29.755
    1STR   H27739860  29.865  42.055  29.840
    1STR   H27839861  29.859  42.026  29.667
    1STR   O27939862  29.722  42.166  29.737
    1STR   C28039863  29.799  42.285  29.719
    1STR   H28139864  29.882  42.287  29.790
    1STR   C28239865  29.853  42.290  29.575
    1STR   H28339866  29.772  42.282  29.502
    1STR   H28439867  29.924  42.210  29.555
    1STR   H28539868  29.904  42.384  29.556
    1STR   C28639869  29.708  42.406  29.749
    1STR   H28739870  29.624  42.408  29.679
    1STR   H28839871  29.666  42.394  29.849
    1STR   O28939872  29.783  42.528  29.740
    1STR   C29039873  29.709  42.648  29.765
    1STR   H29139874  29.614  42.645  29.712
    1STR   C29239875  29.685  42.664  29.916
    1STR   H29339876  29.779  42.661  29.971
    1STR   H29439877  29.621  42.586  29.956
    1STR   H29539878  29.637  42.759  29.937
    1STR   C29639879  29.790  42.767  29.708
    1STR   H29739880  29.887  42.773  29.758
    1STR   H29839881  29.811  42.748  29.603
    1STR   O29939882  29.719  42.890  29.724
    1STR   C30039883  29.785  43.008  29.675
    1STR   H30139884  29.890  43.006  29.706
    1STR   C30239885  29.775  43.013  29.522
    1STR   H30339886  29.671  43.006  29.489
    1STR   H30439887  29.830  42.932  29.475
    1STR   H30539888  29.817  43.106  29.484
    1STR   C30639889  29.719  43.132  29.740
    1STR   H30739890  29.615  43.139  29.708
    1STR   H30839891  29.718  43.117  29.848
    1STR   O30939892  29.790  43.253  29.707
    1STR    H1R39893  29.628  43.375  29.745
    1STR    H1S39894  29.734  43.476  29.955
    1STR    H1T39895  29.872  43.369  29.932
    1STR    H1U39896  29.713  43.302  29.969
    1STR    H1V39897  29.795  43.483  29.583
    1STR    H1W39898  29.900  43.511  29.719
    1STR    H1X39899  29.587  43.781  29.769
    1STR    H1Y39900  29.526  43.903  29.974
    1STR    H1Z39901  29.543  44.114  30.098
    1STR    H2039902  29.751  44.278  30.167
    1STR    H2139903  29.795  44.385  30.036
    1STR    H2239904  29.625  44.368  30.082
    1STR    H2339905  29.961  44.245  29.787
    1STR    H2739906  29.844  44.030  29.712
    1STR    H2839907  29.624  31.435  30.197
    1STR    H2939908  29.537  31.214  30.159
    1STR    H2A39909  29.680  30.965  29.941
    1STR    H2B39910  29.539  31.017  30.030
    1STR    H2C39911  29.667  30.930  30.115
    1STR   BCK139912  30.086  30.943  45.061
    1STR    O0339913  30.186  30.874  45.072
    1STR    N0439914  30.075  31.071  45.105
    1STR    C0539915  30.165  31.156  45.174
    1STR    C0639916  30.163  31.298  45.148
    1STR    C0739917  30.248  31.392  45.215
    1STR    N0839918  30.240  31.532  45.191
    1STR    C0939919  30.314  31.634  45.239
    1STR    O0A39920  30.411  31.621  45.313
    1STR    O0B39921  30.271  31.758  45.196
    1STR    C0C39922  30.344  31.878  45.233
    1STR    C0D39923  30.468  31.893  45.142
    1STR    C0E39924  30.257  32.006  45.228
    1STR    O0F39925  30.333  32.124  45.262
    1STR    C0G39926  30.261  32.249  45.264
    1STR    C0H39927  30.180  32.259  45.395
    1STR    C0I39928  30.358  32.369  45.252
    1STR    O0J39929  30.285  32.493  45.247
    1STR    C0K39930  30.101  43.395  45.537
    1STR    C0M39931  30.200  43.386  45.419
    1STR    C0N39932  29.999  43.510  45.511
    1STR    O0O39933  30.064  43.639  45.501
    1STR    C0P39934  30.021  43.736  45.415
    1STR    O0Q39935  29.934  43.723  45.330
    1STR    N0R39936  30.091  43.847  45.438
    1STR    C0S39937  30.100  43.976  45.380
    1STR    C0T39938  30.200  44.057  45.436
    1STR    C0U39939  30.228  44.184  45.385
    1STR    C0V39940  30.156  44.235  45.275
    1STR    C0W39941  30.204  44.367  45.216
    1STR    C0X39942  30.048  44.161  45.220
    1STR    N0Y39943  29.977  44.213  45.109
    1STR   BCK239944  29.923  44.336  45.092
    1STR    O1039945  29.906  44.417  45.182
    1STR    C1339946  30.024  44.029  45.272
    1STR    C1439947  30.338  31.339  45.310
    1STR    C1539948  30.340  31.202  45.340
    1STR    C1639949  30.252  31.111  45.278
    1STR    C1739950  30.252  30.970  45.333
    1STR    H1B39951  29.987  31.112  45.079
    1STR    H1C39952  30.095  31.335  45.073
    1STR    H1D39953  30.168  31.565  45.128
    1STR    H1E39954  30.379  31.867  45.336
    1STR    H1F39955  30.439  31.904  45.037
    1STR    H1G39956  30.526  31.980  45.170
    1STR    H1H39957  30.534  31.806  45.150
    1STR    H1I39958  30.174  31.994  45.298
    1STR    H1J39959  30.213  32.017  45.129
    1STR    H1K39960  30.193  32.253  45.179
    1STR    H1M39961  30.246  32.252  45.482
    1STR    H1N39962  30.105  32.181  45.403
    1STR    H1O39963  30.128  32.354  45.401
    1STR    H1P39964  30.427  32.370  45.337
    1STR    H1Q39965  30.418  32.358  45.162
    1STR   C01039966  30.362  32.614  45.242
    1STR   H01139967  30.443  32.610  45.315
    1STR   C01239968  30.420  32.633  45.101
    1STR   H01339969  30.341  32.633  45.025
    1STR   H01439970  30.491  32.555  45.074
    1STR   H01539971  30.472  32.728  45.093
    1STR   C01639972  30.270  32.733  45.279
    1STR   H01739973  30.187  32.739  45.209
    1STR   H01839974  30.228  32.715  45.378
    1STR   O01939975  30.344  32.857  45.279
    1STR   C02039976  30.268  32.975  45.309
    1STR   H02139977  30.173  32.972  45.255
    1STR   C02239978  30.241  32.983  45.460
    1STR   H02339979  30.334  32.981  45.517
    1STR   H02439980  30.178  32.902  45.496
    1STR   H02539981  30.189  33.076  45.485
    1STR   C02639982  30.346  33.099  45.261
    1STR   H02739983  30.442  33.105  45.313
    1STR   H02839984  30.369  33.088  45.155
    1STR   O02939985  30.270  33.218  45.283
    1STR   C03039986  30.334  33.341  45.246
    1STR   H03139987  30.438  33.340  45.280
    1STR   C03239988  30.328  33.359  45.094
    1STR   H03339989  30.225  33.356  45.058
    1STR   H03439990  30.385  33.283  45.041
    1STR   H03539991  30.370  33.456  45.065
    1STR   C03639992  30.262  33.457  45.319
    1STR   H03739993  30.157  33.461  45.287
    1STR   H03839994  30.262  33.437  45.426
    1STR   O03939995  30.327  33.581  45.291
    1STR   C04039996  30.267  33.697  45.348
    1STR   H04139997  30.159  33.693  45.336
    1STR   C04239998  30.303  33.706  45.497
    1STR   H04339999  30.411  33.705  45.512
    1STR   H04440000  30.261  33.624  45.555
    1STR   H04540001  30.265  33.798  45.541
    1STR   C04640002  30.319  33.820  45.271
    1STR   H04740003  30.427  33.828  45.282
    1STR   H04840004  30.298  33.807  45.165
    1STR   O04940005  30.255  33.938  45.321
    1STR   C05040006  30.297  34.060  45.260
    1STR   H05140007  30.406  34.062  45.250
    1STR   C05240008  30.231  34.076  45.122
    1STR   H05340009  30.122  34.071  45.130
    1STR   H05440010  30.264  34.000  45.052
    1STR   H05540011  30.256  34.173  45.079
    1STR   C05640012  30.258  34.176  45.355
    1STR   H05740013  30.149  34.179  45.367
    1STR   H05840014  30.300  34.157  45.453
    1STR   O05940015  30.306  34.299  45.302
    1STR   C06040016  30.272  34.415  45.379
    1STR   H06140017  30.168  34.410  45.411
    1STR   C06240018  30.365  34.426  45.501
    1STR   H06340019  30.470  34.426  45.470
    1STR   H06440020  30.351  34.344  45.571
    1STR   H06540021  30.346  34.518  45.556
    1STR   C06640022  30.287  34.538  45.287
    1STR   H06740023  30.390  34.547  45.253
    1STR   H06840024  30.226  34.523  45.198
    1STR   O06940025  30.246  34.655  45.356
    1STR   C07040026  30.258  34.777  45.283
    1STR   H07140027  30.354  34.779  45.230
    1STR   C07240028  30.142  34.790  45.183
    1STR   H07340029  30.046  34.783  45.234
    1STR   H07440030  30.145  34.713  45.106
    1STR   H07540031  30.146  34.887  45.132
    1STR   C07640032  30.258  34.892  45.385
    1STR   H07740033  30.164  34.894  45.439
    1STR   H07840034  30.337  34.875  45.458
    1STR   O07940035  30.280  35.016  45.317
    1STR   C08040036  30.278  35.132  45.399
    1STR   H08140037  30.196  35.126  45.471
    1STR   C08240038  30.412  35.145  45.474
    1STR   H08340039  30.496  35.146  45.405
    1STR   H08440040  30.428  35.063  45.545
    1STR   H08540041  30.415  35.238  45.531
    1STR   C08640042  30.253  35.253  45.308
    1STR   H08740043  30.334  35.263  45.236
    1STR   H08840044  30.162  35.236  45.251
    1STR   O08940045  30.241  35.371  45.388
    1STR   C09040046  30.221  35.491  45.315
    1STR   H09140047  30.287  35.494  45.228
    1STR   C09240048  30.074  35.502  45.270
    1STR   H09340049  30.007  35.495  45.355
    1STR   H09440050  30.047  35.424  45.199
    1STR   H09540051  30.056  35.598  45.221
    1STR   C09640052  30.260  35.608  45.407
    1STR   H09740053  30.195  35.609  45.495
    1STR   H09840054  30.362  35.592  45.443
    1STR   O09940055  30.251  35.731  45.336
    1STR   C10040056  30.281  35.847  45.411
    1STR   H10140057  30.234  35.842  45.510
    1STR   C10240058  30.433  35.863  45.426
    1STR   H10340059  30.482  35.864  45.329
    1STR   H10440060  30.477  35.782  45.485
    1STR   H10540061  30.457  35.956  45.477
    1STR   C10640062  30.219  35.967  45.337
    1STR   H10740063  30.265  35.977  45.239
    1STR   H10840064  30.113  35.949  45.321
    1STR   O10940065  30.238  36.086  45.414
    1STR   C11040066  30.189  36.205  45.354
    1STR   H11140067  30.215  36.208  45.248
    1STR   C11240068  30.037  36.214  45.372
    1STR   H11340069  30.009  36.207  45.477
    1STR   H11440070  29.984  36.135  45.318
    1STR   H11540071  29.999  36.309  45.334
    1STR   C11640072  30.260  36.323  45.423
    1STR   H11740073  30.235  36.325  45.529
    1STR   H11840074  30.368  36.309  45.415
    1STR   O11940075  30.221  36.445  45.360
    1STR   C12040076  30.277  36.563  45.417
    1STR   H12140077  30.273  36.558  45.526
    1STR   C12240078  30.422  36.580  45.369
    1STR   H12340079  30.428  36.581  45.261
    1STR   H12440080  30.487  36.501  45.406
    1STR   H12540081  30.463  36.675  45.405
    1STR   C12640082  30.189  36.681  45.372
    1STR   H12740083  30.192  36.691  45.264
    1STR   H12840084  30.086  36.661  45.400
    1STR   O12940085  30.235  36.801  45.435
    1STR   C13040086  30.164  36.919  45.399
    1STR   H13140087  30.146  36.920  45.291
    1STR   C13240088  30.031  36.926  45.476
    1STR   H13340089  30.048  36.919  45.583
    1STR   H13440090  29.963  36.845  45.447
    1STR   H13540091  29.980  37.020  45.456
    1STR   C13640092  30.255  37.038  45.433
    1STR   H13740093  30.275  37.041  45.540
    1STR   H13840094  30.351  37.025  45.383
    1STR   O13940095  30.192  37.159  45.390
    1STR   C14040096  30.264  37.278  45.419
    1STR   H14140097  30.305  37.274  45.520
    1STR   C14240098  30.378  37.297  45.317
    1STR   H14340099  30.340  37.296  45.215
    1STR   H14440100  30.454  37.219  45.325
    1STR   H14540101  30.429  37.392  45.333
    1STR   C14640102  30.164  37.395  45.413
    1STR   H14740103  30.123  37.403  45.312
    1STR   H14840104  30.081  37.374  45.480
    1STR   O14940105  30.230  37.516  45.451
    1STR   C15040106  30.149  37.633  45.445
    1STR   H15140107  30.089  37.633  45.354
    1STR   C15240108  30.058  37.639  45.569
    1STR   H15340109  30.116  37.634  45.661
    1STR   H15440110  29.985  37.558  45.571
    1STR   H15540111  30.001  37.732  45.570
    1STR   C15640112  30.243  37.754  45.439
    1STR   H15740113  30.304  37.758  45.530
    1STR   H15840114  30.312  37.741  45.355
    1STR   O15940115  30.167  37.873  45.424
    1STR   C16040116  30.243  37.993  45.421
    1STR   H16140117  30.321  37.991  45.498
    1STR   C16240118  30.307  38.012  45.283
    1STR   H16340119  30.231  38.010  45.204
    1STR   H16440120  30.380  37.935  45.260
    1STR   H16540121  30.358  38.108  45.276
    1STR   C16640122  30.147  38.109  45.455
    1STR   H16740123  30.069  38.115  45.379
    1STR   H16840124  30.098  38.087  45.550
    1STR   O16940125  30.220  38.231  45.463
    1STR   C17040126  30.142  38.347  45.489
    1STR   H17140127  30.051  38.345  45.430
    1STR   C17240128  30.108  38.353  45.639
    1STR   H17340129  30.198  38.350  45.700
    1STR   H17440130  30.043  38.271  45.670
    1STR   H17540131  30.055  38.446  45.663
    1STR   C17640132  30.225  38.469  45.445
    1STR   H17740133  30.317  38.475  45.504
    1STR   H17840134  30.254  38.456  45.341
    1STR   O17940135  30.147  38.587  45.461
    1STR   C18040136  30.213  38.708  45.428
    1STR   H18140137  30.315  38.707  45.467
    1STR   C18240138  30.216  38.726  45.275
    1STR   H18340139  30.115  38.722  45.233
    1STR   H18440140  30.276  38.649  45.226
    1STR   H18540141  30.259  38.822  45.248
    1STR   C18640142  30.137  38.823  45.496
    1STR   H18740143  30.035  38.827  45.458
    1STR   H18840144  30.130  38.802  45.603
    1STR   O18940145  30.205  38.946  45.473
    1STR   C19040146  30.142  39.061  45.528
    1STR   H19140147  30.035  39.057  45.510
    1STR   C19240148  30.170  39.069  45.679
    1STR   H19340149  30.277  39.068  45.699
    1STR   H19440150  30.125  38.986  45.734
    1STR   H19540151  30.130  39.161  45.721
    1STR   C19640152  30.199  39.183  45.454
    1STR   H19740153  30.306  39.191  45.471
    1STR   H19840154  30.184  39.170  45.347
    1STR   O19940155  30.132  39.301  45.499
    1STR   C20040156  30.178  39.423  45.441
    1STR   H20140157  30.287  39.424  45.436
    1STR   C20240158  30.119  39.438  45.300
    1STR   H20340159  30.010  39.433  45.302
    1STR   H20440160  30.155  39.362  45.231
    1STR   H20540161  30.146  39.535  45.257
    1STR   C20640162  30.133  39.537  45.533
    1STR   H20740163  30.024  39.540  45.539
    1STR   H20840164  30.170  39.518  45.634
    1STR   O20940165  30.185  39.661  45.484
    1STR   C21040166  30.147  39.776  45.559
    1STR   H21140167  30.041  39.771  45.585
    1STR   C21240168  30.233  39.786  45.686
    1STR   H21340169  30.339  39.786  45.662
    1STR   H21440170  30.214  39.704  45.755
    1STR   H21540171  30.212  39.878  45.740
    1STR   C21640172  30.168  39.898  45.468
    1STR   H21740173  30.273  39.907  45.440
    1STR   H21840174  30.112  39.883  45.375
    1STR   O21940175  30.123  40.016  45.535
    1STR   C22040176  30.139  40.137  45.462
    1STR   H22140177  30.237  40.140  45.414
    1STR   C22240178  30.029  40.150  45.357
    1STR   H22340179  29.930  40.143  45.402
    1STR   H22440180  30.036  40.074  45.280
    1STR   H22540181  30.035  40.247  45.306
    1STR   C22640182  30.134  40.253  45.564
    1STR   H22740183  30.036  40.254  45.613
    1STR   H22840184  30.208  40.235  45.641
    1STR   O22940185  30.159  40.376  45.497
    1STR   C23040186  30.153  40.492  45.580
    1STR   H23140187  30.067  40.487  45.647
    1STR   C23240188  30.283  40.504  45.662
    1STR   H23340189  30.370  40.505  45.597
    1STR   H23440190  30.294  40.423  45.733
    1STR   H23540191  30.283  40.597  45.720
    1STR   C23640192  30.134  40.614  45.488
    1STR   H23740193  30.219  40.624  45.421
    1STR   H23840194  30.045  40.598  45.426
    1STR   O23940195  30.118  40.732  45.567
    1STR   C24040196  30.102  40.853  45.493
    1STR   H24140197  30.172  40.856  45.410
    1STR   C24240198  29.958  40.863  45.441
    1STR   H24340199  29.886  40.855  45.522
    1STR   H24440200  29.935  40.785  45.368
    1STR   H24540201  29.941  40.959  45.391
    1STR   C24640202  30.135  40.970  45.588
    1STR   H24740203  30.066  40.971  45.672
    1STR   H24840204  30.235  40.955  45.629
    1STR   O24940205  30.129  41.094  45.516
    1STR   C25040206  30.156  41.211  45.593
    1STR   H25140207  30.104  41.205  45.689
    1STR   C25240208  30.307  41.224  45.617
    1STR   H25340209  30.362  41.225  45.522
    1STR   H25440210  30.347  41.144  45.678
    1STR   H25540211  30.330  41.318  45.668
    1STR   C25640212  30.100  41.332  45.517
    1STR   H25740213  30.151  41.342  45.420
    1STR   H25840214  29.995  41.314  45.495
    1STR   O25940215  30.116  41.452  45.594
    1STR   C26040216  30.069  41.572  45.532
    1STR   H26140217  30.101  41.575  45.427
    1STR   C26240218  29.916  41.578  45.541
    1STR   H26340219  29.882  41.569  45.644
    1STR   H26440220  29.868  41.499  45.483
    1STR   H26540221  29.879  41.673  45.502
    1STR   C26640222  30.135  41.691  45.604
    1STR   H26740223  30.105  41.692  45.709
    1STR   H26840224  30.243  41.678  45.602
    1STR   O26940225  30.098  41.815  45.541
    1STR   C27040226  30.152  41.933  45.600
    1STR   H27140227  30.143  41.928  45.709
    1STR   C27240228  30.300  41.947  45.561
    1STR   H27340229  30.312  41.946  45.452
    1STR   H27440230  30.362  41.868  45.602
    1STR   H27540231  30.341  42.042  45.597
    1STR   C27640232  30.070  42.055  45.552
    1STR   H27740233  30.077  42.063  45.443
    1STR   H27840234  29.965  42.037  45.575
    1STR   O27940235  30.115  42.176  45.614
    1STR   C28040236  30.044  42.296  45.576
    1STR   H28140237  30.031  42.298  45.468
    1STR   C28240238  29.907  42.299  45.646
    1STR   H28340239  29.918  42.289  45.754
    1STR   H28440240  29.842  42.219  45.611
    1STR   H28540241  29.856  42.393  45.626
    1STR   C28640242  30.130  42.419  45.616
    1STR   H28740243  30.145  42.420  45.724
    1STR   H28840244  30.228  42.408  45.570
    1STR   O28940245  30.068  42.542  45.573
    1STR   C29040246  30.140  42.663  45.603
    1STR   H29140247  30.175  42.661  45.706
    1STR   C29240248  30.260  42.676  45.508
    1STR   H29340249  30.228  42.671  45.404
    1STR   H29440250  30.334  42.598  45.524
    1STR   H29540251  30.310  42.771  45.522
    1STR   C29640252  30.043  42.784  45.587
    1STR   H29740253  30.005  42.786  45.485
    1STR   H29840254  29.958  42.767  45.653
    1STR   O29940255  30.107  42.909  45.618
    1STR   C30040256  30.023  43.026  45.607
    1STR   H30140257  29.964  43.019  45.515
    1STR   C30240258  29.930  43.034  45.729
    1STR   H30340259  29.987  43.030  45.822
    1STR   H30440260  29.858  42.953  45.731
    1STR   H30540261  29.874  43.127  45.728
    1STR   C30640262  30.110  43.155  45.594
    1STR   H30740263  30.162  43.174  45.689
    1STR   H30840264  30.188  43.135  45.520
    1STR   O30940265  30.032  43.270  45.555
    1STR    H1R40266  30.156  43.418  45.629
    1STR    H1S40267  30.246  43.482  45.400
    1STR    H1T40268  30.148  43.355  45.328
    1STR    H1U40269  30.281  43.316  45.438
    1STR    H1V40270  29.928  43.515  45.593
    1STR    H1W40271  29.941  43.489  45.421
    1STR    H1X40272  30.153  43.830  45.515
    1STR    H1Y40273  30.260  44.023  45.519
    1STR    H1Z40274  30.308  44.242  45.428
    1STR    H2040275  30.197  44.366  45.107
    1STR    H2140276  30.146  44.450  45.255
    1STR    H2240277  30.309  44.385  45.240
    1STR    H2340278  29.968  44.152  45.029
    1STR    H2740279  29.946  43.968  45.228
    1STR    H2840280  30.408  31.400  45.365
    1STR    H2940281  30.408  31.167  45.416
    1STR    H2A40282  30.152  30.925  45.328
    1STR    H2B40283  30.283  30.968  45.437
    1STR    H2C40284  30.322  30.908  45.277
    1STR   BCK140285  29.934  45.981  60.016
    1STR    O0340286  29.821  45.991  59.971
    1STR    N0440287  30.020  46.085  60.025
    1STR    C0540288  30.016  46.198  59.942
    1STR    C0640289  30.000  46.332  59.989
    1STR    C0740290  30.003  46.444  59.900
    1STR    N0840291  29.991  46.578  59.946
    1STR    C0940292  29.962  46.690  59.876
    1STR    O0A40293  29.927  46.690  59.758
    1STR    O0B40294  29.975  46.806  59.948
    1STR    C0C40295  29.947  46.933  59.884
    1STR    C0D40296  29.794  46.955  59.878
    1STR    C0E40297  30.016  47.053  59.953
    1STR    O0F40298  29.986  47.174  59.881
    1STR    C0G40299  30.043  47.296  59.932
    1STR    C0H40300  30.191  47.304  59.891
    1STR    C0I40301  29.965  47.417  59.875
    1STR    O0J40302  30.015  47.540  59.930
    1STR    C0K40303  30.324  58.419  59.814
    1STR    C0M40304  30.174  58.401  59.844
    1STR    C0N40305  30.372  58.550  59.882
    1STR    O0O40306  30.317  58.662  59.811
    1STR    C0P40307  30.274  58.776  59.871
    1STR    O0Q40308  30.262  58.796  59.992
    1STR    N0R40309  30.251  58.865  59.774
    1STR    C0S40310  30.214  59.000  59.764
    1STR    C0T40311  30.269  59.064  59.652
    1STR    C0U40312  30.229  59.193  59.616
    1STR    C0V40313  30.131  59.262  59.689
    1STR    C0W40314  30.087  59.392  59.627
    1STR    C0X40315  30.074  59.204  59.807
    1STR    N0Y40316  29.968  59.260  59.884
    1STR   BCK240317  29.897  59.373  59.905
    1STR    O1040318  29.797  59.364  59.975
    1STR    C1340319  30.119  59.072  59.843
    1STR    C1440320  30.024  46.417  59.763
    1STR    C1540321  30.042  46.286  59.716
    1STR    C1640322  30.041  46.177  59.804
    1STR    C1740323  30.071  46.039  59.748
    1STR    H1B40324  30.104  46.068  60.078
    1STR    H1C40325  29.984  46.348  60.095
    1STR    H1D40326  30.006  46.597  60.044
    1STR    H1E40327  29.985  46.929  59.782
    1STR    H1F40328  29.750  46.960  59.977
    1STR    H1G40329  29.771  47.048  59.826
    1STR    H1H40330  29.745  46.874  59.823
    1STR    H1I40331  30.124  47.036  59.955
    1STR    H1J40332  29.983  47.062  60.057
    1STR    H1K40333  30.034  47.298  60.041
    1STR    H1M40334  30.202  47.298  59.783
    1STR    H1N40335  30.251  47.225  59.935
    1STR    H1O40336  30.235  47.399  59.923
    1STR    H1P40337  29.972  47.418  59.766
    1STR    H1Q40338  29.859  47.405  59.900
    1STR   C01040339  29.955  47.660  59.881
    1STR   H01140340  29.944  47.656  59.773
    1STR   C01240341  29.816  47.679  59.946
    1STR   H01340342  29.824  47.679  60.055
    1STR   H01440343  29.746  47.601  59.917
    1STR   H01540344  29.773  47.774  59.916
    1STR   C01640345  30.048  47.779  59.915
    1STR   H01740346  30.061  47.785  60.023
    1STR   H01840347  30.146  47.760  59.872
    1STR   O01940348  29.994  47.902  59.865
    1STR   C02040349  30.070  48.019  59.894
    1STR   H02140350  30.104  48.017  59.998
    1STR   C02240351  30.192  48.027  59.800
    1STR   H02340352  30.161  48.025  59.695
    1STR   H02440353  30.262  47.946  59.817
    1STR   H02540354  30.247  48.120  59.816
    1STR   C02640355  29.979  48.143  59.876
    1STR   H02740356  29.944  48.149  59.773
    1STR   H02840357  29.891  48.131  59.939
    1STR   O02940358  30.050  48.261  59.912
    1STR   C03040359  29.978  48.384  59.896
    1STR   H03140360  29.925  48.383  59.801
    1STR   C03240361  29.879  48.402  60.012
    1STR   H03340362  29.931  48.398  60.108
    1STR   H03440363  29.802  48.326  60.012
    1STR   H03540364  29.829  48.499  60.005
    1STR   C03640365  30.081  48.499  59.891
    1STR   H03740366  30.136  48.504  59.985
    1STR   H03840367  30.153  48.479  59.813
    1STR   O03940368  30.013  48.623  59.867
    1STR   C04040369  30.096  48.739  59.865
    1STR   H04140370  30.168  48.735  59.947
    1STR   C04240371  30.171  48.748  59.731
    1STR   H04340372  30.101  48.747  59.647
    1STR   H04440373  30.241  48.665  59.717
    1STR   H04540374  30.228  48.840  59.724
    1STR   C04640375  30.006  48.862  59.887
    1STR   H04740376  29.934  48.870  59.806
    1STR   H04840377  29.950  48.849  59.979
    1STR   O04940378  30.087  48.980  59.894
    1STR   C05040379  30.015  49.102  59.910
    1STR   H05140380  29.927  49.103  59.844
    1STR   C05240381  29.971  49.118  60.056
    1STR   H05340382  30.056  49.112  60.124
    1STR   H05440383  29.899  49.041  60.086
    1STR   H05540384  29.923  49.214  60.072
    1STR   C05640385  30.107  49.217  59.867
    1STR   H05740386  30.195  49.220  59.931
    1STR   H05840387  30.143  49.198  59.766
    1STR   O05940388  30.037  49.340  59.873
    1STR   C06040389  30.113  49.456  59.839
    1STR   H06140390  30.212  49.451  59.885
    1STR   C06240391  30.127  49.467  59.686
    1STR   H06340392  30.029  49.467  59.638
    1STR   H06440393  30.185  49.385  59.644
    1STR   H06540394  30.178  49.559  59.659
    1STR   C06640395  30.040  49.578  59.897
    1STR   H06740396  29.941  49.588  59.852
    1STR   H06840397  30.025  49.563  60.004
    1STR   O06940398  30.117  49.696  59.874
    1STR   C07040399  30.058  49.817  59.919
    1STR   H07140400  29.952  49.820  59.894
    1STR   C07240401  30.077  49.830  60.071
    1STR   H07340402  30.182  49.824  60.099
    1STR   H07440403  30.022  49.754  60.126
    1STR   H07540404  30.040  49.927  60.106
    1STR   C07640405  30.127  49.933  59.845
    1STR   H07740406  30.234  49.934  59.869
    1STR   H07840407  30.119  49.915  59.737
    1STR   O07940408  30.065  50.056  59.880
    1STR   C08040409  30.123  50.172  59.820
    1STR   H08140410  30.232  50.166  59.823
    1STR   C08240411  30.075  50.185  59.675
    1STR   H08340412  29.966  50.186  59.669
    1STR   H08440413  30.110  50.104  59.612
    1STR   H08540414  30.111  50.278  59.630
    1STR   C08640415  30.080  50.293  59.904
    1STR   H08740416  29.971  50.303  59.902
    1STR   H08840417  30.108  50.276  60.008
    1STR   O08940418  30.142  50.411  59.854
    1STR   C09040419  30.107  50.532  59.921
    1STR   H09140420  30.000  50.534  59.940
    1STR   C09240421  30.185  50.542  60.053
    1STR   H09340422  30.293  50.535  60.036
    1STR   H09440423  30.157  50.465  60.124
    1STR   H09540424  30.166  50.638  60.102
    1STR   C09640425  30.141  50.648  59.826
    1STR   H09740426  30.249  50.649  59.806
    1STR   H09840427  30.091  50.632  59.731
    1STR   O09940428  30.099  50.771  59.885
    1STR   C10040429  30.129  50.888  59.809
    1STR   H10140430  30.230  50.882  59.768
    1STR   C10240431  30.027  50.903  59.695
    1STR   H10340432  29.925  50.904  59.734
    1STR   H10440433  30.034  50.822  59.623
    1STR   H10540434  30.043  50.996  59.642
    1STR   C10640435  30.124  51.007  59.906
    1STR   H10740436  30.024  51.017  59.947
    1STR   H10840437  30.192  50.988  59.989
    1STR   O10940438  30.162  51.126  59.836
    1STR   C11040439  30.158  51.245  59.913
    1STR   H11140440  30.067  51.248  59.974
    1STR   C11240441  30.282  51.254  60.004
    1STR   H11340442  30.374  51.247  59.945
    1STR   H11440443  30.284  51.175  60.079
    1STR   H11540444  30.284  51.349  60.057
    1STR   C11640445  30.152  51.363  59.815
    1STR   H11740446  30.242  51.365  59.754
    1STR   H11840447  30.067  51.349  59.748
    1STR   O11940448  30.138  51.485  59.888
    1STR   C12040449  30.135  51.603  59.808
    1STR   H12140450  30.212  51.598  59.730
    1STR   C12240451  29.996  51.620  59.745
    1STR   H12340452  29.918  51.621  59.821
    1STR   H12440453  29.973  51.541  59.674
    1STR   H12540454  29.990  51.715  59.690
    1STR   C12640455  30.170  51.721  59.900
    1STR   H12740456  30.095  51.731  59.979
    1STR   H12840457  30.265  51.701  59.949
    1STR   O12940458  30.178  51.841  59.823
    1STR   C13040459  30.206  51.959  59.897
    1STR   H13140460  30.147  51.960  59.989
    1STR   C13240461  30.356  51.966  59.930
    1STR   H13340462  30.417  51.959  59.840
    1STR   H13440463  30.387  51.885  59.997
    1STR   H13540464  30.380  52.060  59.980
    1STR   C13640465  30.162  52.078  59.811
    1STR   H13740466  30.220  52.081  59.719
    1STR   H13840467  30.058  52.065  59.783
    1STR   O13940468  30.179  52.199  59.885
    1STR   C14040469  30.146  52.318  59.815
    1STR   H14140470  30.185  52.314  59.713
    1STR   C14240471  29.993  52.337  59.813
    1STR   H14340472  29.952  52.336  59.914
    1STR   H14440473  29.943  52.259  59.756
    1STR   H14540474  29.967  52.432  59.767
    1STR   C14640475  30.215  52.435  59.887
    1STR   H14740476  30.178  52.443  59.989
    1STR   H14840477  30.322  52.414  59.894
    1STR   O14940478  30.193  52.556  59.815
    1STR   C15040479  30.249  52.673  59.874
    1STR   H15140480  30.231  52.673  59.982
    1STR   C15240481  30.400  52.679  59.845
    1STR   H15340482  30.419  52.674  59.737
    1STR   H15440483  30.454  52.598  59.892
    1STR   H15540484  30.442  52.772  59.882
    1STR   C15640485  30.175  52.793  59.814
    1STR   H15740486  30.192  52.798  59.706
    1STR   H15840487  30.068  52.781  59.830
    1STR   O15940488  30.221  52.913  59.877
    1STR   C16040489  30.163  53.033  59.828
    1STR   H16140490  30.158  53.031  59.719
    1STR   C16240491  30.022  53.052  59.887
    1STR   H16340492  30.025  53.050  59.996
    1STR   H16440493  29.953  52.975  59.853
    1STR   H16540494  29.980  53.148  59.856
    1STR   C16640495  30.257  53.149  59.868
    1STR   H16740496  30.263  53.155  59.977
    1STR   H16840497  30.357  53.127  59.831
    1STR   O16940498  30.208  53.271  59.812
    1STR   C17040499  30.284  53.387  59.846
    1STR   H17140500  30.311  53.385  59.951
    1STR   C17240501  30.410  53.393  59.758
    1STR   H17340502  30.385  53.390  59.652
    1STR   H17440503  30.479  53.311  59.779
    1STR   H17540504  30.465  53.486  59.777
    1STR   C17640505  30.193  53.508  59.822
    1STR   H17740506  30.165  53.514  59.717
    1STR   H17840507  30.101  53.496  59.879
    1STR   O17940508  30.261  53.627  59.863
    1STR   C18040509  30.189  53.748  59.843
    1STR   H18140510  30.141  53.747  59.745
    1STR   C18240511  30.084  53.766  59.954
    1STR   H18340512  30.130  53.762  60.053
    1STR   H18440513  30.007  53.689  59.950
    1STR   H18540514  30.034  53.862  59.944
    1STR   C18640515  30.292  53.862  59.844
    1STR   H18740516  30.341  53.867  59.942
    1STR   H18840517  30.369  53.842  59.770
    1STR   O18940518  30.226  53.985  59.815
    1STR   C19040519  30.309  54.101  59.817
    1STR   H19140520  30.377  54.097  59.903
    1STR   C19240521  30.391  54.109  59.687
    1STR   H19340522  30.325  54.108  59.599
    1STR   H19440523  30.461  54.026  59.677
    1STR   H19540524  30.449  54.201  59.683
    1STR   C19640525  30.218  54.223  59.833
    1STR   H19740526  30.150  54.231  59.748
    1STR   H19840527  30.156  54.210  59.922
    1STR   O19940528  30.298  54.341  59.845
    1STR   C20040529  30.225  54.462  59.858
    1STR   H20140530  30.141  54.463  59.788
    1STR   C20240531  30.173  54.478  60.002
    1STR   H20340532  30.255  54.473  60.074
    1STR   H20440533  30.100  54.402  60.028
    1STR   H20540534  30.124  54.575  60.015
    1STR   C20640535  30.320  54.577  59.819
    1STR   H20740536  30.404  54.580  59.889
    1STR   H20840537  30.360  54.558  59.720
    1STR   O20940538  30.248  54.700  59.821
    1STR   C21040539  30.327  54.816  59.791
    1STR   H21140540  30.423  54.811  59.842
    1STR   C21240541  30.349  54.826  59.639
    1STR   H21340542  30.254  54.826  59.585
    1STR   H21440543  30.409  54.744  59.601
    1STR   H21540544  30.401  54.918  59.614
    1STR   C21640545  30.250  54.938  59.844
    1STR   H21740546  30.154  54.947  59.794
    1STR   H21840547  30.229  54.923  59.950
    1STR   O21940548  30.329  55.055  59.825
    1STR   C22040549  30.268  55.177  59.868
    1STR   H22140550  30.163  55.179  59.837
    1STR   C22240551  30.278  55.190  60.020
    1STR   H22340552  30.381  55.183  60.054
    1STR   H22440553  30.221  55.113  60.072
    1STR   H22540554  30.239  55.286  60.053
    1STR   C22640555  30.340  55.292  59.796
    1STR   H22740556  30.445  55.294  59.826
    1STR   H22840557  30.338  55.275  59.689
    1STR   O22940558  30.277  55.416  59.828
    1STR   C23040559  30.337  55.532  59.771
    1STR   H23140560  30.446  55.526  59.780
    1STR   C23240561  30.297  55.544  59.623
    1STR   H23340562  30.189  55.545  59.612
    1STR   H23440563  30.336  55.462  59.563
    1STR   H23540564  30.335  55.637  59.580
    1STR   C23640565  30.289  55.653  59.852
    1STR   H23740566  30.181  55.663  59.845
    1STR   H23840567  30.313  55.637  59.958
    1STR   O23940568  30.354  55.771  59.805
    1STR   C24040569  30.316  55.892  59.870
    1STR   H24140570  30.208  55.895  59.884
    1STR   C24240571  30.387  55.902  60.006
    1STR   H24340572  30.495  55.894  59.995
    1STR   H24440573  30.354  55.825  60.076
    1STR   H24540574  30.365  55.998  60.054
    1STR   C24640575  30.355  56.009  59.778
    1STR   H24740576  30.464  56.010  59.763
    1STR   H24840577  30.310  55.993  59.680
    1STR   O24940578  30.311  56.132  59.835
    1STR   C25040579  30.344  56.249  59.760
    1STR   H25140580  30.447  56.243  59.724
    1STR   C25240581  30.248  56.263  59.640
    1STR   H25340582  30.144  56.264  59.673
    1STR   H25440583  30.260  56.183  59.568
    1STR   H25540584  30.266  56.357  59.587
    1STR   C25640585  30.333  56.370  59.854
    1STR   H25740586  30.231  56.380  59.891
    1STR   H25840587  30.397  56.352  59.941
    1STR   O25940588  30.374  56.489  59.787
    1STR   C26040589  30.367  56.609  59.864
    1STR   H26140590  30.273  56.612  59.919
    1STR   C26240591  30.486  56.616  59.961
    1STR   H26340592  30.580  56.608  59.907
    1STR   H26440593  30.482  56.538  60.036
    1STR   H26540594  30.486  56.711  60.014
    1STR   C26640595  30.367  56.729  59.766
    1STR   H26740596  30.460  56.729  59.709
    1STR   H26840597  30.286  56.715  59.694
    1STR   O26940598  30.351  56.852  59.837
    1STR   C27040599  30.351  56.970  59.757
    1STR   H27140600  30.431  56.965  59.683
    1STR   C27240601  30.215  56.985  59.686
    1STR   H27340602  30.133  56.984  59.758
    1STR   H27440603  30.198  56.905  59.614
    1STR   H27540604  30.211  57.079  59.631
    1STR   C27640605  30.379  57.091  59.849
    1STR   H27740606  30.300  57.099  59.924
    1STR   H27840607  30.472  57.072  59.903
    1STR   O27940608  30.389  57.212  59.773
    1STR   C28040609  30.415  57.331  59.848
    1STR   H28140610  30.352  57.333  59.937
    1STR   C28240611  30.563  57.334  59.889
    1STR   H28340612  30.628  57.325  59.802
    1STR   H28440613  30.589  57.255  59.959
    1STR   H28540614  30.587  57.429  59.938
    1STR   C28640615  30.378  57.453  59.761
    1STR   H28740616  30.440  57.455  59.671
    1STR   H28840617  30.275  57.442  59.728
    1STR   O28940618  30.395  57.575  59.834
    1STR   C29040619  30.363  57.696  59.764
    1STR   H29140620  30.407  57.694  59.664
    1STR   C29240621  30.210  57.711  59.753
    1STR   H29340622  30.163  57.707  59.851
    1STR   H29440623  30.166  57.633  59.691
    1STR   H29540624  30.184  57.806  59.708
    1STR   C29640625  30.425  57.816  59.841
    1STR   H29740626  30.384  57.820  59.942
    1STR   H29840627  30.532  57.799  59.850
    1STR   O29940628  30.400  57.941  59.773
    1STR   C30040629  30.451  58.059  59.837
    1STR   H30140630  30.431  58.054  59.944
    1STR   C30240631  30.602  58.069  59.812
    1STR   H30340632  30.625  58.064  59.706
    1STR   H30440633  30.657  57.988  59.861
    1STR   H30540634  30.642  58.163  59.851
    1STR   C30640635  30.375  58.182  59.781
    1STR   H30740636  30.403  58.198  59.677
    1STR   H30840637  30.270  58.157  59.781
    1STR   O30940638  30.397  58.303  59.858
    1STR    H1R40639  30.339  58.430  59.706
    1STR    H1S40640  30.119  58.492  59.821
    1STR    H1T40641  30.158  58.379  59.950
    1STR    H1U40642  30.128  58.321  59.786
    1STR    H1V40643  30.481  58.557  59.876
    1STR    H1W40644  30.347  58.553  59.988
    1STR    H1X40645  30.274  58.820  59.687
    1STR    H1Y40646  30.342  59.014  59.590
    1STR    H1Z40647  30.272  59.237  59.528
    1STR    H2040648  29.979  59.397  59.622
    1STR    H2140649  30.129  59.475  59.684
    1STR    H2240650  30.123  59.403  59.525
    1STR    H2340651  29.927  59.192  59.947
    1STR    H2740652  30.078  59.021  59.929
    1STR    H2840653  30.030  46.496  59.689
    1STR    H2940654  30.059  46.271  59.610
    1STR    H2A40655  30.144  45.988  59.811
    1STR    H2B40656  30.112  46.045  59.647
    1STR    H2C40657  29.980  45.980  59.745
    1STR   BCK140658  29.955  45.975  15.014
    1STR    O0340659  30.010  45.912  15.103
    1STR    N0440660  29.925  46.107  15.022
    1STR    C0540661  29.924  46.197  15.132
    1STR    C0640662  29.962  46.335  15.117
    1STR    C0740663  29.952  46.431  15.223
    1STR    N0840664  29.983  46.569  15.206
    1STR    C0940665  29.949  46.676  15.282
    1STR    O0A40666  29.877  46.670  15.381
    1STR    O0B40667  30.001  46.796  15.237
    1STR    C0C40668  29.981  46.918  15.313
    1STR    C0D40669  30.086  46.928  15.424
    1STR    C0E40670  29.982  47.046  15.225
    1STR    O0F40671  29.959  47.165  15.303
    1STR    C0G40672  29.952  47.290  15.232
    1STR    C0H40673  29.815  47.301  15.163
    1STR    C0I40674  29.973  47.410  15.328
    1STR    O0J40675  29.972  47.534  15.255
    1STR    C0K40676  29.623  58.417  15.112
    1STR    C0M40677  29.759  58.421  15.184
    1STR    C0N40678  29.611  58.537  15.015
    1STR    O0O40679  29.604  58.661  15.086
    1STR    C0P40680  29.654  58.775  15.034
    1STR    O0Q40681  29.714  58.784  14.927
    1STR    N0R40682  29.633  58.877  15.118
    1STR    C0S40683  29.676  59.011  15.118
    1STR    C0T40684  29.677  59.077  15.242
    1STR    C0U40685  29.729  59.207  15.254
    1STR    C0V40686  29.778  59.276  15.142
    1STR    C0W40687  29.855  59.405  15.166
    1STR    C0X40688  29.767  59.217  15.013
    1STR    N0Y40689  29.818  59.278  14.897
    1STR   BCK240690  29.793  59.393  14.831
    1STR    O1040691  29.850  59.412  14.724
    1STR    C1340692  29.719  59.083  15.003
    1STR    C1440693  29.909  46.383  15.349
    1STR    C1540694  29.869  46.250  15.366
    1STR    C1640695  29.872  46.158  15.259
    1STR    C1740696  29.812  46.022  15.286
    1STR    H1B40697  29.897  46.146  14.933
    1STR    H1C40698  29.998  46.368  15.021
    1STR    H1D40699  30.038  46.596  15.126
    1STR    H1E40700  29.882  46.914  15.360
    1STR    H1F40701  30.187  46.934  15.383
    1STR    H1G40702  30.070  47.017  15.485
    1STR    H1H40703  30.082  46.842  15.491
    1STR    H1I40704  29.905  47.037  15.148
    1STR    H1J40705  30.078  47.055  15.173
    1STR    H1K40706  30.031  47.294  15.157
    1STR    H1M40707  29.734  47.295  15.236
    1STR    H1N40708  29.799  47.224  15.088
    1STR    H1O40709  29.805  47.398  15.113
    1STR    H1P40710  29.895  47.412  15.404
    1STR    H1Q40711  30.068  47.399  15.380
    1STR   C01040712  29.984  47.655  15.331
    1STR   H01140713  29.918  47.651  15.418
    1STR   C01240714  30.129  47.674  15.377
    1STR   H01340715  30.198  47.674  15.292
    1STR   H01440716  30.162  47.597  15.446
    1STR   H01540717  30.141  47.770  15.428
    1STR   C01640718  29.938  47.775  15.243
    1STR   H01740719  30.001  47.781  15.154
    1STR   H01840720  29.836  47.756  15.209
    1STR   O01940721  29.944  47.898  15.316
    1STR   C02040722  29.908  48.016  15.243
    1STR   H02140723  29.954  48.014  15.144
    1STR   C02240724  29.755  48.024  15.230
    1STR   H02340725  29.707  48.022  15.328
    1STR   H02440726  29.714  47.943  15.171
    1STR   H02540727  29.726  48.117  15.181
    1STR   C02640728  29.963  48.140  15.318
    1STR   H02740729  29.919  48.146  15.417
    1STR   H02840730  30.070  48.129  15.331
    1STR   O02940731  29.934  48.259  15.243
    1STR   C03040732  29.976  48.382  15.304
    1STR   H03140733  29.952  48.381  15.410
    1STR   C03240734  30.128  48.400  15.285
    1STR   H03340735  30.155  48.397  15.179
    1STR   H03440736  30.185  48.324  15.337
    1STR   H03540737  30.160  48.497  15.324
    1STR   C03640738  29.898  48.497  15.238
    1STR   H03740739  29.920  48.502  15.131
    1STR   H03840740  29.791  48.478  15.247
    1STR   O03940741  29.931  48.621  15.301
    1STR   C04040742  29.869  48.738  15.246
    1STR   H04140743  29.871  48.734  15.137
    1STR   C04240744  29.723  48.746  15.295
    1STR   H04340745  29.718  48.746  15.404
    1STR   H04440746  29.662  48.664  15.258
    1STR   H04540747  29.677  48.839  15.261
    1STR   C04640748  29.950  48.861  15.291
    1STR   H04740749  29.949  48.869  15.400
    1STR   H04840750  30.054  48.848  15.261
    1STR   O04940751  29.895  48.979  15.232
    1STR   C05040752  29.959  49.101  15.269
    1STR   H05140753  29.979  49.102  15.376
    1STR   C05240754  30.091  49.117  15.190
    1STR   H05340755  30.073  49.111  15.083
    1STR   H05440756  30.164  49.041  15.217
    1STR   H05540757  30.136  49.214  15.211
    1STR   C05640758  29.862  49.216  15.238
    1STR   H05740759  29.840  49.219  15.131
    1STR   H05840760  29.767  49.197  15.289
    1STR   O05940761  29.918  49.340  15.281
    1STR   C06040762  29.839  49.455  15.254
    1STR   H06140763  29.797  49.450  15.153
    1STR   C06240764  29.725  49.466  15.357
    1STR   H06340765  29.765  49.467  15.459
    1STR   H06440766  29.654  49.384  15.349
    1STR   H06540767  29.669  49.559  15.343
    1STR   C06640768  29.932  49.578  15.261
    1STR   H06740769  29.974  49.587  15.361
    1STR   H06840770  30.015  49.563  15.192
    1STR   O06940771  29.859  49.695  15.226
    1STR   C07040772  29.933  49.817  15.232
    1STR   H07140773  29.994  49.819  15.323
    1STR   C07240774  30.022  49.830  15.108
    1STR   H07340775  29.963  49.824  15.016
    1STR   H07440776  30.099  49.754  15.104
    1STR   H07540777  30.073  49.927  15.107
    1STR   C07640778  29.832  49.932  15.241
    1STR   H07740779  29.770  49.934  15.151
    1STR   H07840780  29.766  49.915  15.326
    1STR   O07940781  29.901  50.056  15.256
    1STR   C08040782  29.819  50.172  15.262
    1STR   H08140783  29.740  50.166  15.186
    1STR   C08240784  29.756  50.185  15.402
    1STR   H08340785  29.833  50.186  15.479
    1STR   H08440786  29.687  50.104  15.424
    1STR   H08540787  29.699  50.278  15.410
    1STR   C08640788  29.907  50.293  15.229
    1STR   H08740789  29.986  50.303  15.303
    1STR   H08840790  29.956  50.276  15.133
    1STR   O08940791  29.827  50.411  15.224
    1STR   C09040792  29.898  50.531  15.198
    1STR   H09140793  29.991  50.534  15.256
    1STR   C09240794  29.930  50.542  15.048
    1STR   H09340795  29.839  50.535  14.988
    1STR   H09440796  29.999  50.464  15.014
    1STR   H09540797  29.977  50.638  15.025
    1STR   C09640798  29.809  50.648  15.244
    1STR   H09740799  29.717  50.649  15.187
    1STR   H09840800  29.782  50.632  15.349
    1STR   O09940801  29.880  50.771  15.229
    1STR   C10040802  29.807  50.887  15.265
    1STR   H10140803  29.705  50.882  15.227
    1STR   C10240804  29.806  50.903  15.418
    1STR   H10340805  29.907  50.904  15.459
    1STR   H10440806  29.751  50.822  15.467
    1STR   H10540807  29.757  50.996  15.447
    1STR   C10640808  29.876  51.007  15.198
    1STR   H10740809  29.978  51.017  15.235
    1STR   H10840810  29.882  50.989  15.091
    1STR   O10940811  29.801  51.126  15.223
    1STR   C11040812  29.856  51.245  15.169
    1STR   H11140813  29.964  51.248  15.186
    1STR   C11240814  29.826  51.254  15.019
    1STR   H11340815  29.718  51.247  15.000
    1STR   H11440816  29.875  51.175  14.962
    1STR   H11540817  29.860  51.349  14.978
    1STR   C11640818  29.794  51.363  15.246
    1STR   H11740819  29.686  51.365  15.230
    1STR   H11840820  29.811  51.349  15.353
    1STR   O11940821  29.853  51.485  15.202
    1STR   C12040822  29.801  51.603  15.262
    1STR   H12140823  29.692  51.598  15.268
    1STR   C12240824  29.861  51.620  15.403
    1STR   H12340825  29.970  51.621  15.399
    1STR   H12440826  29.830  51.541  15.471
    1STR   H12540827  29.829  51.715  15.447
    1STR   C12640828  29.838  51.721  15.171
    1STR   H12740829  29.947  51.731  15.164
    1STR   H12840830  29.801  51.701  15.070
    1STR   O12940831  29.780  51.841  15.222
    1STR   C13040832  29.810  51.959  15.148
    1STR   H13140833  29.915  51.960  15.120
    1STR   C13240834  29.722  51.966  15.022
    1STR   H13340835  29.616  51.959  15.048
    1STR   H13440836  29.744  51.885  14.952
    1STR   H13540837  29.737  52.060  14.970
    1STR   C13640838  29.784  52.078  15.241
    1STR   H13740839  29.679  52.081  15.270
    1STR   H13840840  29.842  52.065  15.333
    1STR   O13940841  29.821  52.199  15.175
    1STR   C14040842  29.798  52.318  15.250
    1STR   H14140843  29.701  52.314  15.299
    1STR   C14240844  29.909  52.337  15.354
    1STR   H14340845  30.008  52.336  15.308
    1STR   H14440846  29.908  52.259  15.430
    1STR   H14540847  29.898  52.432  15.406
    1STR   C14640848  29.796  52.435  15.149
    1STR   H14740849  29.892  52.443  15.099
    1STR   H14840850  29.721  52.414  15.073
    1STR   O14940851  29.764  52.556  15.218
    1STR   C15040852  29.762  52.673  15.137
    1STR   H15140853  29.848  52.673  15.069
    1STR   C15240854  29.631  52.679  15.057
    1STR   H15340855  29.544  52.674  15.123
    1STR   H15440856  29.623  52.598  14.985
    1STR   H15540857  29.625  52.772  15.001
    1STR   C15640858  29.776  52.794  15.231
    1STR   H15740859  29.692  52.798  15.299
    1STR   H15840860  29.866  52.781  15.291
    1STR   O15940861  29.785  52.913  15.153
    1STR   C16040862  29.794  53.033  15.229
    1STR   H16140863  29.725  53.031  15.313
    1STR   C16240864  29.938  53.052  15.280
    1STR   H16340865  30.010  53.050  15.198
    1STR   H16440866  29.967  52.975  15.351
    1STR   H16540867  29.949  53.148  15.331
    1STR   C16640868  29.752  53.149  15.136
    1STR   H16740869  29.821  53.155  15.052
    1STR   H16840870  29.654  53.127  15.096
    1STR   O16940871  29.751  53.271  15.210
    1STR   C17040872  29.718  53.387  15.134
    1STR   H17140873  29.769  53.385  15.038
    1STR   C17240874  29.565  53.393  15.113
    1STR   H17340875  29.512  53.390  15.208
    1STR   H17440876  29.529  53.311  15.052
    1STR   H17540877  29.538  53.486  15.063
    1STR   C17640878  29.769  53.508  15.213
    1STR   H17740879  29.718  53.514  15.309
    1STR   H17840880  29.875  53.496  15.233
    1STR   O17940881  29.746  53.627  15.136
    1STR   C18040882  29.785  53.748  15.200
    1STR   H18140883  29.755  53.747  15.305
    1STR   C18240884  29.938  53.766  15.189
    1STR   H18340885  29.971  53.762  15.086
    1STR   H18440886  29.992  53.689  15.245
    1STR   H18540887  29.968  53.862  15.230
    1STR   C18640888  29.711  53.863  15.130
    1STR   H18740889  29.740  53.867  15.025
    1STR   H18840890  29.604  53.842  15.132
    1STR   O18940891  29.739  53.985  15.196
    1STR   C19040892  29.679  54.101  15.138
    1STR   H19140893  29.688  54.097  15.029
    1STR   C19240894  29.531  54.109  15.179
    1STR   H19340895  29.520  54.108  15.287
    1STR   H19440896  29.473  54.026  15.138
    1STR   H19540897  29.486  54.201  15.142
    1STR   C19640898  29.758  54.223  15.188
    1STR   H19740899  29.750  54.231  15.296
    1STR   H19840900  29.863  54.210  15.164
    1STR   O19940901  29.707  54.341  15.125
    1STR   C20040902  29.769  54.462  15.166
    1STR   H20140903  29.783  54.463  15.274
    1STR   C20240904  29.905  54.478  15.095
    1STR   H20340905  29.893  54.473  14.986
    1STR   H20440906  29.976  54.402  15.125
    1STR   H20540907  29.949  54.575  15.118
    1STR   C20640908  29.673  54.577  15.129
    1STR   H20740909  29.658  54.580  15.021
    1STR   H20840910  29.576  54.557  15.175
    1STR   O20940911  29.727  54.700  15.176
    1STR   C21040912  29.649  54.816  15.146
    1STR   H21140913  29.613  54.811  15.043
    1STR   C21240914  29.530  54.826  15.242
    1STR   H21340915  29.564  54.826  15.346
    1STR   H21440916  29.460  54.743  15.230
    1STR   H21540917  29.474  54.918  15.226
    1STR   C21640918  29.741  54.938  15.158
    1STR   H21740919  29.778  54.947  15.260
    1STR   H21840920  29.828  54.923  15.094
    1STR   O21940921  29.671  55.055  15.119
    1STR   C22040922  29.744  55.177  15.129
    1STR   H22140923  29.801  55.179  15.223
    1STR   C22240924  29.840  55.190  15.009
    1STR   H22340925  29.786  55.183  14.915
    1STR   H22440926  29.917  55.113  15.010
    1STR   H22540927  29.891  55.286  15.011
    1STR   C22640928  29.642  55.292  15.132
    1STR   H22740929  29.585  55.294  15.040
    1STR   H22840930  29.572  55.274  15.213
    1STR   O22940931  29.711  55.415  15.152
    1STR   C23040932  29.628  55.531  15.153
    1STR   H23140933  29.554  55.525  15.073
    1STR   C23240934  29.558  55.543  15.289
    1STR   H23340935  29.630  55.545  15.371
    1STR   H23440936  29.488  55.462  15.307
    1STR   H23540937  29.500  55.636  15.295
    1STR   C23640938  29.718  55.653  15.126
    1STR   H23740939  29.793  55.663  15.204
    1STR   H23840940  29.772  55.636  15.032
    1STR   O23940941  29.638  55.770  15.117
    1STR   C24040942  29.710  55.891  15.094
    1STR   H24140943  29.799  55.894  15.157
    1STR   C24240944  29.750  55.902  14.946
    1STR   H24340945  29.663  55.894  14.881
    1STR   H24440946  29.821  55.824  14.917
    1STR   H24540947  29.798  55.998  14.926
    1STR   C24640948  29.619  56.008  15.136
    1STR   H24740949  29.529  56.009  15.074
    1STR   H24840950  29.586  55.992  15.239
    1STR   O24940951  29.690  56.131  15.124
    1STR   C25040952  29.615  56.248  15.157
    1STR   H25140953  29.515  56.242  15.114
    1STR   C25240954  29.605  56.262  15.310
    1STR   H25340955  29.704  56.263  15.356
    1STR   H25440956  29.547  56.182  15.355
    1STR   H25540957  29.555  56.356  15.337
    1STR   C25640958  29.687  56.368  15.094
    1STR   H25740959  29.787  56.378  15.137
    1STR   H25840960  29.699  56.350  14.987
    1STR   O25940961  29.611  56.487  15.116
    1STR   C26040962  29.669  56.607  15.065
    1STR   H26140963  29.776  56.610  15.087
    1STR   C26240964  29.646  56.615  14.913
    1STR   H26340965  29.540  56.607  14.889
    1STR   H26440966  29.699  56.536  14.860
    1STR   H26540967  29.682  56.710  14.873
    1STR   C26640968  29.602  56.726  15.137
    1STR   H26740969  29.495  56.727  15.116
    1STR   H26840970  29.614  56.712  15.245
    1STR   O26940971  29.663  56.849  15.096
    1STR   C27040972  29.608  56.967  15.154
    1STR   H27140973  29.499  56.962  15.155
    1STR   C27240974  29.660  56.982  15.298
    1STR   H27340975  29.769  56.982  15.301
    1STR   H27440976  29.625  56.903  15.364
    1STR   H27540977  29.627  57.077  15.342
    1STR   C27640978  29.649  57.087  15.067
    1STR   H27740979  29.758  57.096  15.065
    1STR   H27840980  29.617  57.068  14.964
    1STR   O27940981  29.590  57.207  15.116
    1STR   C28040982  29.622  57.326  15.044
    1STR   H28140983  29.729  57.328  15.021
    1STR   C28240984  29.541  57.331  14.913
    1STR   H28340985  29.434  57.323  14.933
    1STR   H28440986  29.569  57.252  14.845
    1STR   H28540987  29.558  57.425  14.861
    1STR   C28640988  29.591  57.448  15.134
    1STR   H28740989  29.484  57.449  15.158
    1STR   H28840990  29.645  57.436  15.228
    1STR   O28940991  29.629  57.570  15.069
    1STR   C29040992  29.604  57.690  15.143
    1STR   H29140993  29.504  57.686  15.187
    1STR   C29240994  29.709  57.705  15.254
    1STR   H29340995  29.810  57.703  15.213
    1STR   H29440996  29.702  57.627  15.330
    1STR   H29540997  29.697  57.801  15.306
    1STR   C29640998  29.608  57.809  15.045
    1STR   H29740999  29.707  57.815  14.999
    1STR   H29841000  29.537  57.790  14.965
    1STR   O29941001  29.577  57.933  15.111
    1STR   C30041002  29.579  58.050  15.028
    1STR   H30141003  29.667  58.047  14.963
    1STR   C30241004  29.451  58.054  14.943
    1STR   H30341005  29.362  58.048  15.006
    1STR   H30441006  29.446  57.973  14.871
    1STR   H30541007  29.446  58.147  14.886
    1STR   C30641008  29.591  58.175  15.118
    1STR   H30741009  29.502  58.184  15.181
    1STR   H30841010  29.675  58.160  15.185
    1STR   O30941011  29.609  58.294  15.039
    1STR    H1R41012  29.542  58.424  15.185
    1STR    H1S41013  29.775  58.518  15.232
    1STR    H1T41014  29.840  58.406  15.113
    1STR    H1U41015  29.767  58.346  15.262
    1STR    H1V41016  29.520  58.528  14.955
    1STR    H1W41017  29.694  58.537  14.944
    1STR    H1X41018  29.582  58.846  15.199
    1STR    H1Y41019  29.643  59.026  15.332
    1STR    H1Z41020  29.735  59.251  15.352
    1STR    H2041021  29.961  59.386  15.152
    1STR    H2141022  29.826  59.485  15.100
    1STR    H2241023  29.841  59.441  15.268
    1STR    H2341024  29.880  59.220  14.843
    1STR    H2741025  29.717  59.034  14.907
    1STR    H2841026  29.903  46.447  15.435
    1STR    H2941027  29.832  46.219  15.462
    1STR    H2A41028  29.763  45.981  15.197
    1STR    H2B41029  29.736  46.027  15.364
    1STR    H2C41030  29.889  45.952  15.319
    1STR   BCK141031  30.075  45.985  29.922
    1STR    O0341032  30.164  45.923  29.866
    1STR    N0441033  30.087  46.109  29.975
    1STR    C0541034  30.196  46.199  29.982
    1STR    C0641035  30.172  46.339  29.971
    1STR    C0741036  30.276  46.437  29.976
    1STR    N0841037  30.248  46.576  29.971
    1STR    C0941038  30.331  46.680  29.946
    1STR    O0A41039  30.449  46.669  29.915
    1STR    O0B41040  30.268  46.801  29.959
    1STR    C0C41041  30.340  46.924  29.928
    1STR    C0D41042  30.340  46.944  29.776
    1STR    C0E41043  30.280  47.048  30.000
    1STR    O0F41044  30.351  47.168  29.963
    1STR    C0G41045  30.306  47.291  30.023
    1STR    C0H41046  30.359  47.300  30.167
    1STR    C0I41047  30.355  47.412  29.940
    1STR    O0J41048  30.306  47.535  29.995
    1STR    C0K41049  30.423  58.438  30.286
    1STR    C0M41050  30.391  58.414  30.138
    1STR    C0N41051  30.343  58.562  30.336
    1STR    O0O41052  30.381  58.683  30.266
    1STR    C0P41053  30.292  58.781  30.231
    1STR    O0Q41054  30.170  58.775  30.241
    1STR    N0R41055  30.361  58.888  30.187
    1STR    C0S41056  30.332  59.017  30.139
    1STR    C0T41057  30.441  59.105  30.146
    1STR    C0U41058  30.436  59.233  30.090
    1STR    C0V41059  30.320  59.279  30.025
    1STR    C0W41060  30.330  59.411  29.951
    1STR    C0X41061  30.202  59.198  30.022
    1STR    N0Y41062  30.089  59.244  29.951
    1STR   BCK241063  30.028  59.365  29.955
    1STR    O1041064  30.045  59.448  30.044
    1STR    C1341065  30.211  59.066  30.079
    1STR    C1441066  30.408  46.389  29.992
    1STR    C1541067  30.434  46.252  30.007
    1STR    C1641068  30.330  46.157  30.007
    1STR    C1741069  30.370  46.015  30.041
    1STR    H1B41070  30.000  46.143  30.013
    1STR    H1C41071  30.070  46.373  29.957
    1STR    H1D41072  30.154  46.606  29.986
    1STR    H1E41073  30.443  46.914  29.962
    1STR    H1F41074  30.239  46.954  29.736
    1STR    H1G41075  30.396  47.033  29.748
    1STR    H1H41076  30.388  46.860  29.725
    1STR    H1I41077  30.286  47.033  30.108
    1STR    H1J41078  30.174  47.058  29.975
    1STR    H1K41079  30.197  47.293  30.024
    1STR    H1M41080  30.468  47.294  30.169
    1STR    H1N41081  30.320  47.221  30.231
    1STR    H1O41082  30.331  47.395  30.212
    1STR    H1P41083  30.464  47.413  29.937
    1STR    H1Q41084  30.321  47.400  29.837
    1STR   C01041085  30.348  47.656  29.930
    1STR   H01141086  30.455  47.652  29.910
    1STR   C01241087  30.271  47.675  29.799
    1STR   H01341088  30.163  47.674  29.815
    1STR   H01441089  30.294  47.597  29.726
    1STR   H01541090  30.296  47.770  29.752
    1STR   C01641091  30.322  47.775  30.026
    1STR   H01741092  30.215  47.781  30.049
    1STR   H01841093  30.374  47.756  30.120
    1STR   O01941094  30.367  47.898  29.968
    1STR   C02041095  30.344  48.016  30.046
    1STR   H02141096  30.243  48.014  30.088
    1STR   C02241097  30.448  48.024  30.160
    1STR   H02341098  30.549  48.022  30.120
    1STR   H02441099  30.437  47.943  30.231
    1STR   H02541100  30.436  48.117  30.216
    1STR   C02641101  30.354  48.140  29.955
    1STR   H02741102  30.453  48.146  29.911
    1STR   H02841103  30.283  48.129  29.872
    1STR   O02941104  30.325  48.259  30.029
    1STR   C03041105  30.335  48.382  29.956
    1STR   H03141106  30.425  48.381  29.894
    1STR   C03241107  30.210  48.400  29.867
    1STR   H03341108  30.119  48.396  29.927
    1STR   H03441109  30.203  48.324  29.790
    1STR   H03541110  30.213  48.497  29.817
    1STR   C03641111  30.348  48.497  30.057
    1STR   H03741112  30.259  48.502  30.120
    1STR   H03841113  30.433  48.478  30.122
    1STR   O03941114  30.366  48.621  29.988
    1STR   C04041115  30.375  48.737  30.070
    1STR   H04141116  30.299  48.734  30.149
    1STR   C04241117  30.515  48.746  30.133
    1STR   H04341118  30.593  48.746  30.056
    1STR   H04441119  30.535  48.664  30.201
    1STR   H04541120  30.526  48.839  30.190
    1STR   C04641121  30.346  48.861  29.983
    1STR   H04741122  30.420  48.869  29.903
    1STR   H04841123  30.249  48.848  29.935
    1STR   O04941124  30.346  48.979  30.063
    1STR   C05041125  30.323  49.101  29.993
    1STR   H05141126  30.381  49.102  29.901
    1STR   C05241127  30.174  49.117  29.962
    1STR   H05341128  30.114  49.111  30.053
    1STR   H05441129  30.138  49.041  29.893
    1STR   H05541130  30.154  49.214  29.915
    1STR   C05641131  30.374  49.216  30.082
    1STR   H05741132  30.318  49.219  30.175
    1STR   H05841133  30.479  49.197  30.108
    1STR   O05941134  30.362  49.340  30.012
    1STR   C06041135  30.402  49.455  30.085
    1STR   H06141136  30.365  49.450  30.187
    1STR   C06241137  30.556  49.466  30.085
    1STR   H06341138  30.596  49.467  29.984
    1STR   H06441139  30.603  49.384  30.139
    1STR   H06541140  30.588  49.558  30.134
    1STR   C06641141  30.338  49.578  30.017
    1STR   H06741142  30.375  49.587  29.915
    1STR   H06841143  30.230  49.563  30.012
    1STR   O06941144  30.368  49.695  30.092
    1STR   C07041145  30.318  49.817  30.038
    1STR   H07141146  30.334  49.819  29.930
    1STR   C07241147  30.168  49.830  30.069
    1STR   H07341148  30.150  49.823  30.176
    1STR   H07441149  30.109  49.753  30.020
    1STR   H07541150  30.130  49.927  30.035
    1STR   C07641151  30.399  49.932  30.100
    1STR   H07741152  30.384  49.934  30.208
    1STR   H07841153  30.505  49.915  30.082
    1STR   O07941154  30.358  50.056  30.041
    1STR   C08041155  30.422  50.172  30.093
    1STR   H08141156  30.429  50.166  30.202
    1STR   C08241157  30.563  50.185  30.032
    1STR   H08341158  30.559  50.186  29.923
    1STR   H08441159  30.629  50.104  30.062
    1STR   H08541160  30.610  50.278  30.064
    1STR   C08641161  30.335  50.293  30.057
    1STR   H08741162  30.327  50.303  29.949
    1STR   H08841163  30.234  50.276  30.095
    1STR   O08941164  30.390  50.411  30.115
    1STR   C09041165  30.320  50.531  30.086
    1STR   H09141166  30.292  50.534  29.981
    1STR   C09241167  30.196  50.542  30.175
    1STR   H09341168  30.222  50.535  30.281
    1STR   H09441169  30.122  50.464  30.153
    1STR   H09541170  30.146  50.638  30.160
    1STR   C09641171  30.418  50.648  30.112
    1STR   H09741172  30.447  50.649  30.217
    1STR   H09841173  30.508  50.632  30.053
    1STR   O09941174  30.355  50.771  30.075
    1STR   C10041175  30.433  50.888  30.098
    1STR   H10141176  30.483  50.882  30.195
    1STR   C10241177  30.538  50.903  29.987
    1STR   H10341178  30.491  50.904  29.888
    1STR   H10441179  30.611  50.822  29.987
    1STR   H10541180  30.593  50.996  29.998
    1STR   C10641181  30.337  51.007  30.102
    1STR   H10741182  30.287  51.017  30.005
    1STR   H10841183  30.260  50.989  30.176
    1STR   O10941184  30.410  51.126  30.133
    1STR   C11041185  30.332  51.245  30.136
    1STR   H11141186  30.264  51.248  30.051
    1STR   C11241187  30.253  51.254  30.267
    1STR   H11341188  30.320  51.247  30.354
    1STR   H11441189  30.179  51.175  30.276
    1STR   H11541190  30.200  51.349  30.274
    1STR   C11641191  30.430  51.363  30.121
    1STR   H11741192  30.499  51.365  30.206
    1STR   H11841193  30.489  51.349  30.031
    1STR   O11941194  30.356  51.485  30.114
    1STR   C12041195  30.435  51.603  30.104
    1STR   H12141196  30.520  51.598  30.173
    1STR   C12241197  30.486  51.620  29.960
    1STR   H12341198  30.403  51.621  29.889
    1STR   H12441199  30.555  51.541  29.931
    1STR   H12541200  30.540  51.715  29.949
    1STR   C12641201  30.347  51.721  30.147
    1STR   H12741202  30.262  51.731  30.079
    1STR   H12841203  30.306  51.701  30.246
    1STR   O12941204  30.424  51.841  30.148
    1STR   C13041205  30.353  51.959  30.183
    1STR   H13141206  30.256  51.960  30.132
    1STR   C13241207  30.333  51.966  30.335
    1STR   H13341208  30.428  51.959  30.387
    1STR   H13441209  30.269  51.885  30.372
    1STR   H13541210  30.286  52.060  30.364
    1STR   C13641211  30.435  52.078  30.131
    1STR   H13741212  30.532  52.081  30.181
    1STR   H13841213  30.453  52.065  30.025
    1STR   O13941214  30.362  52.199  30.155
    1STR   C14041215  30.429  52.318  30.115
    1STR   H14141216  30.534  52.314  30.145
    1STR   C14241217  30.418  52.337  29.963
    1STR   H14341218  30.314  52.336  29.931
    1STR   H14441219  30.471  52.259  29.908
    1STR   H14541220  30.462  52.432  29.933
    1STR   C14641221  30.364  52.435  30.191
    1STR   H14741222  30.259  52.443  30.163
    1STR   H14841223  30.366  52.414  30.298
    1STR   O14941224  30.433  52.556  30.162
    1STR   C15041225  30.380  52.673  30.223
    1STR   H15141226  30.271  52.673  30.215
    1STR   C15241227  30.422  52.679  30.371
    1STR   H15341228  30.531  52.674  30.381
    1STR   H15441229  30.380  52.598  30.429
    1STR   H15541230  30.389  52.772  30.417
    1STR   C15641231  30.433  52.794  30.144
    1STR   H15741232  30.542  52.798  30.151
    1STR   H15841233  30.408  52.781  30.039
    1STR   O15941234  30.374  52.913  30.196
    1STR   C16041235  30.418  53.033  30.134
    1STR   H16141236  30.526  53.031  30.119
    1STR   C16241237  30.347  53.052  29.999
    1STR   H16341238  30.239  53.050  30.011
    1STR   H16441239  30.374  52.975  29.927
    1STR   H16541240  30.373  53.148  29.954
    1STR   C16641241  30.386  53.149  30.230
    1STR   H16741242  30.279  53.155  30.246
    1STR   H16841243  30.432  53.127  30.327
    1STR   O16941244  30.437  53.271  30.177
    1STR   C17041245  30.411  53.387  30.255
    1STR   H17141246  30.308  53.385  30.292
    1STR   C17241247  30.508  53.393  30.374
    1STR   H17341248  30.612  53.390  30.340
    1STR   H17441249  30.494  53.311  30.444
    1STR   H17541250  30.495  53.486  30.430
    1STR   C17641251  30.426  53.508  30.163
    1STR   H17741252  30.529  53.514  30.126
    1STR   H17841253  30.361  53.496  30.076
    1STR   O17941254  30.391  53.627  30.234
    1STR   C18041255  30.405  53.748  30.161
    1STR   H18141256  30.499  53.747  30.104
    1STR   C18241257  30.286  53.766  30.066
    1STR   H18341258  30.191  53.762  30.120
    1STR   H18441259  30.283  53.689  29.988
    1STR   H18541260  30.291  53.862  30.015
    1STR   C18641261  30.413  53.863  30.263
    1STR   H18741262  30.320  53.867  30.321
    1STR   H18841263  30.493  53.842  30.334
    1STR   O18941264  30.436  53.986  30.195
    1STR   C19041265  30.442  54.101  30.279
    1STR   H19141266  30.362  54.097  30.353
    1STR   C19241267  30.579  54.109  30.348
    1STR   H19341268  30.660  54.108  30.275
    1STR   H19441269  30.594  54.026  30.417
    1STR   H19541270  30.587  54.201  30.406
    1STR   C19641271  30.417  54.223  30.189
    1STR   H19741272  30.496  54.231  30.114
    1STR   H19841273  30.323  54.210  30.135
    1STR   O19941274  30.412  54.341  30.269
    1STR   C20041275  30.394  54.463  30.198
    1STR   H20141276  30.456  54.464  30.108
    1STR   C20241277  30.246  54.478  30.159
    1STR   H20341278  30.181  54.473  30.247
    1STR   H20441279  30.213  54.402  30.088
    1STR   H20541280  30.228  54.575  30.111
    1STR   C20641281  30.440  54.577  30.289
    1STR   H20741282  30.379  54.580  30.379
    1STR   H20841283  30.543  54.558  30.321
    1STR   O20941284  30.432  54.701  30.218
    1STR   C21041285  30.469  54.816  30.293
    1STR   H21141286  30.426  54.811  30.394
    1STR   C21241287  30.622  54.826  30.302
    1STR   H21341288  30.668  54.826  30.203
    1STR   H21441289  30.666  54.744  30.359
    1STR   H21541290  30.652  54.918  30.352
    1STR   C21641291  30.409  54.938  30.222
    1STR   H21741292  30.451  54.947  30.122
    1STR   H21841293  30.302  54.924  30.211
    1STR   O21941294  30.436  55.056  30.298
    1STR   C22041295  30.388  55.178  30.241
    1STR   H22141296  30.409  55.180  30.134
    1STR   C22241297  30.237  55.191  30.265
    1STR   H22341298  30.213  55.183  30.371
    1STR   H22441299  30.180  55.114  30.212
    1STR   H22541300  30.200  55.287  30.229
    1STR   C22641301  30.465  55.293  30.307
    1STR   H22741302  30.445  55.295  30.415
    1STR   H22841303  30.572  55.275  30.295
    1STR   O22941304  30.428  55.417  30.247
    1STR   C23041305  30.490  55.533  30.302
    1STR   H23141306  30.491  55.527  30.411
    1STR   C23241307  30.634  55.545  30.249
    1STR   H23341308  30.635  55.545  30.140
    1STR   H23441309  30.697  55.463  30.283
    1STR   H23541310  30.680  55.637  30.283
    1STR   C23641311  30.405  55.655  30.262
    1STR   H23741312  30.403  55.664  30.153
    1STR   H23841313  30.302  55.638  30.294
    1STR   O23941314  30.458  55.773  30.322
    1STR   C24041315  30.390  55.894  30.290
    1STR   H24141316  30.366  55.897  30.183
    1STR   C24241317  30.260  55.903  30.372
    1STR   H24341318  30.281  55.895  30.479
    1STR   H24441319  30.188  55.826  30.346
    1STR   H24541320  30.211  55.999  30.355
    1STR   C24641321  30.485  56.011  30.321
    1STR   H24741322  30.509  56.012  30.427
    1STR   H24841323  30.578  55.996  30.267
    1STR   O24941324  30.424  56.135  30.282
    1STR   C25041325  30.502  56.252  30.308
    1STR   H25141326  30.546  56.246  30.408
    1STR   C25241327  30.612  56.265  30.202
    1STR   H25341328  30.570  56.265  30.101
    1STR   H25441329  30.685  56.184  30.208
    1STR   H25541330  30.667  56.358  30.215
    1STR   C25641331  30.407  56.373  30.305
    1STR   H25741332  30.361  56.383  30.207
    1STR   H25841333  30.326  56.356  30.376
    1STR   O25941334  30.478  56.493  30.339
    1STR   C26041335  30.401  56.613  30.339
    1STR   H26141336  30.337  56.616  30.251
    1STR   C26241337  30.314  56.619  30.466
    1STR   H26341338  30.376  56.610  30.556
    1STR   H26441339  30.239  56.540  30.469
    1STR   H26541340  30.261  56.714  30.472
    1STR   C26641341  30.497  56.733  30.332
    1STR   H26741342  30.563  56.734  30.419
    1STR   H26841343  30.561  56.720  30.244
    1STR   O26941344  30.425  56.857  30.323
    1STR   C27041345  30.505  56.976  30.315
    1STR   H27141346  30.586  56.970  30.389
    1STR   C27241347  30.564  56.989  30.174
    1STR   H27341348  30.485  56.987  30.098
    1STR   H27441349  30.634  56.910  30.151
    1STR   H27541350  30.618  57.083  30.163
    1STR   C27641351  30.416  57.097  30.351
    1STR   H27741352  30.334  57.105  30.279
    1STR   H27841353  30.371  57.079  30.448
    1STR   O27941354  30.493  57.219  30.353
    1STR   C28041355  30.420  57.339  30.386
    1STR   H28141356  30.326  57.341  30.331
    1STR   C28241357  30.392  57.341  30.537
    1STR   H28341358  30.485  57.331  30.594
    1STR   H28441359  30.325  57.261  30.568
    1STR   H28541360  30.345  57.435  30.566
    1STR   C28641361  30.503  57.463  30.343
    1STR   H28741362  30.598  57.464  30.396
    1STR   H28841363  30.527  57.452  30.237
    1STR   O28941364  30.432  57.586  30.367
    1STR   C29041365  30.498  57.708  30.327
    1STR   H29141366  30.601  57.706  30.363
    1STR   C29241367  30.497  57.719  30.174
    1STR   H29341368  30.395  57.713  30.135
    1STR   H29441369  30.556  57.641  30.126
    1STR   H29541370  30.539  57.815  30.142
    1STR   C29641371  30.427  57.829  30.393
    1STR   H29741372  30.322  57.831  30.362
    1STR   H29841373  30.427  57.815  30.501
    1STR   O29941374  30.489  57.955  30.359
    1STR   C30041375  30.429  58.074  30.415
    1STR   H30141376  30.321  58.066  30.406
    1STR   C30241377  30.469  58.084  30.563
    1STR   H30341378  30.577  58.080  30.575
    1STR   H30441379  30.426  58.004  30.623
    1STR   H30541380  30.434  58.178  30.607
    1STR   C30641381  30.474  58.200  30.335
    1STR   H30741382  30.579  58.221  30.355
    1STR   H30841383  30.466  58.174  30.230
    1STR   O30941384  30.394  58.318  30.362
    1STR    H1R41385  30.530  58.460  30.297
    1STR    H1S41386  30.404  58.506  30.080
    1STR    H1T41387  30.287  58.382  30.126
    1STR    H1U41388  30.455  58.340  30.091
    1STR    H1V41389  30.362  58.578  30.442
    1STR    H1W41390  30.235  58.545  30.327
    1STR    H1X41391  30.458  58.866  30.195
    1STR    H1Y41392  30.534  59.075  30.193
    1STR    H1Z41393  30.523  59.296  30.094
    1STR    H2041394  30.275  59.409  29.857
    1STR    H2141395  30.292  59.492  30.013
    1STR    H2241396  30.434  59.435  29.926
    1STR    H2341397  30.049  59.180  29.884
    1STR    H2741398  30.125  59.000  30.074
    1STR    H2841399  30.493  46.456  29.997
    1STR    H2941400  30.536  46.221  30.023
    1STR    H2A41401  30.290  45.963  30.095
    1STR    H2B41402  30.457  46.013  30.106
    1STR    H2C41403  30.394  45.959  29.951
    1STR   BCK141404  29.940  45.970  45.030
    1STR    O0341405  29.855  45.948  45.116
    1STR    N0441406  29.972  46.094  44.988
    1STR    C0541407  29.883  46.202  44.980
    1STR    C0641408  29.916  46.335  45.024
    1STR    C0741409  29.827  46.446  45.005
    1STR    N0841410  29.861  46.579  45.042
    1STR    C0941411  29.797  46.695  45.013
    1STR    O0A41412  29.695  46.703  44.945
    1STR    O0B41413  29.857  46.806  45.066
    1STR    C0C41414  29.790  46.934  45.055
    1STR    C0D41415  29.690  46.949  45.171
    1STR    C0E41416  29.886  47.056  45.047
    1STR    O0F41417  29.808  47.176  45.028
    1STR    C0G41418  29.881  47.298  45.012
    1STR    C0H41419  29.936  47.306  44.868
    1STR    C0I41420  29.786  47.418  45.040
    1STR    O0J41421  29.859  47.541  45.032
    1STR    C0K41422  29.963  58.419  44.671
    1STR    C0M41423  29.903  58.425  44.813
    1STR    C0N41424  30.056  58.541  44.647
    1STR    O0O41425  29.981  58.659  44.617
    1STR    C0P41426  29.983  58.769  44.697
    1STR    O0Q41427  30.047  58.780  44.801
    1STR    N0R41428  29.899  58.860  44.647
    1STR    C0S41429  29.848  58.976  44.707
    1STR    C0T41430  29.708  58.982  44.721
    1STR    C0U41431  29.647  59.091  44.785
    1STR    C0V41432  29.724  59.199  44.833
    1STR    C0W41433  29.656  59.301  44.923
    1STR    C0X41434  29.864  59.202  44.807
    1STR    N0Y41435  29.941  59.311  44.849
    1STR   BCK241436  29.931  59.442  44.823
    1STR    O1041437  29.997  59.522  44.889
    1STR    C1341438  29.926  59.087  44.749
    1STR    C1441439  29.701  46.416  44.947
    1STR    C1541440  29.669  46.288  44.900
    1STR    C1641441  29.760  46.183  44.912
    1STR    C1741442  29.724  46.051  44.844
    1STR    H1B41443  30.059  46.102  44.938
    1STR    H1C41444  30.012  46.351  45.071
    1STR    H1D41445  29.944  46.593  45.096
    1STR    H1E41446  29.733  46.937  44.961
    1STR    H1F41447  29.741  46.951  45.268
    1STR    H1G41448  29.633  47.042  45.162
    1STR    H1H41449  29.619  46.867  45.173
    1STR    H1I41450  29.955  47.041  44.964
    1STR    H1J41451  29.945  47.063  45.138
    1STR    H1K41452  29.963  47.302  45.084
    1STR    H1M41453  29.856  47.299  44.795
    1STR    H1N41454  30.008  47.228  44.847
    1STR    H1O41455  29.986  47.401  44.852
    1STR    H1P41456  29.704  47.418  44.968
    1STR    H1Q41457  29.742  47.406  45.139
    1STR   C01041458  29.783  47.661  45.050
    1STR   H01141459  29.691  47.656  44.992
    1STR   C01241460  29.750  47.680  45.199
    1STR   H01341461  29.840  47.680  45.260
    1STR   H01441462  29.684  47.602  45.237
    1STR   H01541463  29.699  47.775  45.216
    1STR   C01641464  29.866  47.780  44.997
    1STR   H01741465  29.960  47.787  45.052
    1STR   H01841466  29.892  47.761  44.893
    1STR   O01941467  29.793  47.902  45.008
    1STR   C02041468  29.863  48.020  44.966
    1STR   H02141469  29.965  48.018  45.003
    1STR   C02241470  29.863  48.028  44.812
    1STR   H02341471  29.761  48.025  44.773
    1STR   H02441472  29.918  47.946  44.766
    1STR   H02541473  29.909  48.121  44.778
    1STR   C02641474  29.793  48.143  45.027
    1STR   H02741475  29.690  48.149  44.992
    1STR   H02841476  29.789  48.131  45.135
    1STR   O02941477  29.865  48.262  44.993
    1STR   C03041478  29.808  48.384  45.040
    1STR   H03141479  29.700  48.384  45.025
    1STR   C03241480  29.841  48.402  45.189
    1STR   H03341481  29.948  48.399  45.207
    1STR   H03441482  29.793  48.326  45.251
    1STR   H03541483  29.805  48.499  45.225
    1STR   C03641484  29.867  48.500  44.956
    1STR   H03741485  29.975  48.504  44.970
    1STR   H03841486  29.849  48.480  44.851
    1STR   O03941487  29.807  48.623  44.995
    1STR   C04041488  29.856  48.739  44.927
    1STR   H04141489  29.965  48.735  44.920
    1STR   C04241490  29.795  48.748  44.787
    1STR   H04341491  29.686  48.747  44.791
    1STR   H04441492  29.826  48.665  44.723
    1STR   H04541493  29.825  48.840  44.737
    1STR   C04641494  29.819  48.862  45.012
    1STR   H04741495  29.710  48.870  45.020
    1STR   H04841496  29.857  48.849  45.113
    1STR   O04941497  29.873  48.980  44.953
    1STR   C05041498  29.842  49.102  45.020
    1STR   H05141499  29.737  49.103  45.049
    1STR   C05241500  29.931  49.118  45.144
    1STR   H05341501  30.037  49.112  45.117
    1STR   H05441502  29.911  49.042  45.219
    1STR   H05541503  29.914  49.215  45.191
    1STR   C05641504  29.865  49.217  44.920
    1STR   H05741505  29.969  49.220  44.889
    1STR   H05841506  29.806  49.198  44.830
    1STR   O05941507  29.826  49.340  44.980
    1STR   C06041508  29.846  49.456  44.898
    1STR   H06141509  29.943  49.451  44.848
    1STR   C06241510  29.733  49.467  44.794
    1STR   H06341511  29.635  49.467  44.842
    1STR   H06441512  29.735  49.385  44.723
    1STR   H06541513  29.742  49.559  44.737
    1STR   C06641514  29.847  49.578  44.992
    1STR   H06741515  29.751  49.588  45.043
    1STR   H06841516  29.923  49.563  45.069
    1STR   O06941517  29.876  49.696  44.916
    1STR   C07041518  29.876  49.817  44.991
    1STR   H07141519  29.791  49.820  45.059
    1STR   C07241520  30.008  49.831  45.069
    1STR   H07341521  30.094  49.824  45.002
    1STR   H07441522  30.018  49.754  45.145
    1STR   H07541523  30.013  49.927  45.119
    1STR   C07641524  29.858  49.933  44.890
    1STR   H07741525  29.942  49.935  44.821
    1STR   H07841526  29.768  49.915  44.832
    1STR   O07941527  29.849  50.056  44.961
    1STR   C08041528  29.836  50.172  44.879
    1STR   H08141529  29.905  50.166  44.795
    1STR   C08241530  29.691  50.185  44.829
    1STR   H08341531  29.621  50.187  44.912
    1STR   H08441532  29.663  50.104  44.762
    1STR   H08541533  29.678  50.278  44.773
    1STR   C08641534  29.877  50.293  44.965
    1STR   H08741535  29.809  50.303  45.050
    1STR   H08841536  29.977  50.276  45.005
    1STR   O08941537  29.875  50.411  44.884
    1STR   C09041538  29.907  50.532  44.953
    1STR   H09141539  29.857  50.534  45.050
    1STR   C09241540  30.059  50.542  44.972
    1STR   H09341541  30.111  50.535  44.876
    1STR   H09441542  30.098  50.465  45.037
    1STR   H09541543  30.086  50.638  45.016
    1STR   C09641544  29.853  50.648  44.868
    1STR   H09741545  29.902  50.649  44.771
    1STR   H09841546  29.746  50.632  44.850
    1STR   O09941547  29.874  50.771  44.937
    1STR   C10041548  29.831  50.888  44.868
    1STR   H10141549  29.861  50.882  44.763
    1STR   C10241550  29.679  50.903  44.880
    1STR   H10341551  29.648  50.904  44.984
    1STR   H10441552  29.625  50.822  44.829
    1STR   H10541553  29.646  50.996  44.834
    1STR   C10641554  29.905  51.007  44.930
    1STR   H10741555  29.877  51.017  45.035
    1STR   H10841556  30.012  50.989  44.928
    1STR   O10941557  29.873  51.126  44.858
    1STR   C11041558  29.932  51.245  44.908
    1STR   H11141559  29.925  51.248  45.017
    1STR   C11241560  30.079  51.254  44.864
    1STR   H11341561  30.088  51.247  44.756
    1STR   H11441562  30.140  51.175  44.908
    1STR   H11541563  30.123  51.349  44.895
    1STR   C11641564  29.850  51.363  44.853
    1STR   H11741565  29.856  51.365  44.744
    1STR   H11841566  29.745  51.349  44.879
    1STR   O11941567  29.899  51.485  44.909
    1STR   C12041568  29.834  51.603  44.862
    1STR   H12141569  29.819  51.598  44.754
    1STR   C12241570  29.699  51.620  44.934
    1STR   H12341571  29.712  51.621  45.042
    1STR   H12441572  29.629  51.541  44.909
    1STR   H12541573  29.653  51.715  44.906
    1STR   C12641574  29.928  51.721  44.891
    1STR   H12741575  29.945  51.731  44.998
    1STR   H12841576  30.025  51.701  44.845
    1STR   O12941577  29.872  51.841  44.837
    1STR   C13041578  29.948  51.959  44.860
    1STR   H13141579  29.985  51.960  44.963
    1STR   C13241580  30.066  51.966  44.762
    1STR   H13341581  30.031  51.959  44.659
    1STR   H13441582  30.138  51.885  44.778
    1STR   H13541583  30.120  52.060  44.773
    1STR   C13641584  29.853  52.078  44.843
    1STR   H13741585  29.815  52.081  44.740
    1STR   H13841586  29.767  52.065  44.908
    1STR   O13941587  29.922  52.199  44.874
    1STR   C14041588  29.846  52.318  44.858
    1STR   H14141589  29.789  52.314  44.765
    1STR   C14241590  29.752  52.337  44.977
    1STR   H14341591  29.807  52.337  45.071
    1STR   H14441592  29.676  52.259  44.983
    1STR   H14541593  29.699  52.432  44.970
    1STR   C14641594  29.946  52.435  44.846
    1STR   H14741595  30.004  52.443  44.938
    1STR   H14841596  30.016  52.414  44.766
    1STR   O14941597  29.875  52.556  44.820
    1STR   C15041598  29.956  52.673  44.812
    1STR   H15141599  30.031  52.673  44.891
    1STR   C15241600  30.024  52.679  44.674
    1STR   H15341601  29.951  52.674  44.594
    1STR   H15441602  30.095  52.598  44.660
    1STR   H15541603  30.080  52.772  44.663
    1STR   C15641604  29.864  52.793  44.834
    1STR   H15741605  29.788  52.798  44.755
    1STR   H15841606  29.811  52.781  44.928
    1STR   O15941607  29.941  52.913  44.836
    1STR   C16041608  29.867  53.033  44.852
    1STR   H16141609  29.777  53.031  44.789
    1STR   C16241610  29.828  53.052  44.999
    1STR   H16341611  29.916  53.050  45.064
    1STR   H16441612  29.760  52.975  45.034
    1STR   H16541613  29.779  53.148  45.014
    1STR   C16641614  29.956  53.149  44.802
    1STR   H16741615  30.046  53.155  44.863
    1STR   H16841616  29.988  53.127  44.700
    1STR   O16941617  29.882  53.271  44.807
    1STR   C17041618  29.955  53.387  44.767
    1STR   H17141619  30.055  53.385  44.810
    1STR   C17241620  29.962  53.393  44.614
    1STR   H17341621  29.863  53.390  44.569
    1STR   H17441622  30.020  53.311  44.572
    1STR   H17541623  30.010  53.486  44.582
    1STR   C17641624  29.881  53.508  44.825
    1STR   H17741625  29.780  53.514  44.783
    1STR   H17841626  29.870  53.496  44.933
    1STR   O17941627  29.955  53.627  44.796
    1STR   C18041628  29.895  53.748  44.841
    1STR   H18141629  29.788  53.747  44.819
    1STR   C18241630  29.919  53.766  44.991
    1STR   H18341631  30.025  53.762  45.015
    1STR   H18441632  29.869  53.689  45.050
    1STR   H18541633  29.881  53.862  45.025
    1STR   C18641634  29.959  53.863  44.760
    1STR   H18741635  30.066  53.867  44.780
    1STR   H18841636  29.947  53.842  44.654
    1STR   O18941637  29.895  53.985  44.794
    1STR   C19041638  29.947  54.101  44.729
    1STR   H19141639  30.056  54.097  44.728
    1STR   C19241640  29.893  54.109  44.586
    1STR   H19341641  29.784  54.108  44.584
    1STR   H19441642  29.929  54.026  44.524
    1STR   H19541643  29.926  54.201  44.537
    1STR   C19641644  29.905  54.223  44.812
    1STR   H19741645  29.796  54.231  44.814
    1STR   H19841646  29.938  54.210  44.915
    1STR   O19941647  29.963  54.341  44.756
    1STR   C20041648  29.928  54.462  44.821
    1STR   H20141649  29.821  54.463  44.845
    1STR   C20241650  30.011  54.478  44.950
    1STR   H20341651  30.117  54.473  44.929
    1STR   H20441652  29.987  54.402  45.024
    1STR   H20541653  29.991  54.575  44.997
    1STR   C20641654  29.955  54.577  44.723
    1STR   H20741655  30.062  54.580  44.698
    1STR   H20841656  29.901  54.557  44.630
    1STR   O20941657  29.913  54.700  44.780
    1STR   C21041658  29.937  54.816  44.700
    1STR   H21141659  30.036  54.811  44.655
    1STR   C21241660  29.830  54.826  44.590
    1STR   H21341661  29.730  54.826  44.632
    1STR   H21441662  29.836  54.743  44.519
    1STR   H21541663  29.842  54.918  44.533
    1STR   C21641664  29.933  54.938  44.793
    1STR   H21741665  29.834  54.947  44.838
    1STR   H21841666  30.004  54.923  44.874
    1STR   O21941667  29.965  55.055  44.719
    1STR   C22041668  29.962  55.177  44.793
    1STR   H22141669  29.874  55.179  44.858
    1STR   C22241670  30.089  55.190  44.878
    1STR   H22341671  30.179  55.183  44.816
    1STR   H22441672  30.096  55.113  44.955
    1STR   H22541673  30.092  55.286  44.929
    1STR   C22641674  29.950  55.292  44.692
    1STR   H22741675  30.037  55.294  44.627
    1STR   H22841676  29.863  55.274  44.629
    1STR   O22941677  29.936  55.415  44.762
    1STR   C23041678  29.928  55.531  44.679
    1STR   H23141679  30.001  55.525  44.599
    1STR   C23241680  29.786  55.544  44.621
    1STR   H23341681  29.711  55.545  44.700
    1STR   H23441682  29.762  55.462  44.553
    1STR   H23541683  29.775  55.636  44.565
    1STR   C23641684  29.963  55.653  44.767
    1STR   H23741685  29.891  55.663  44.848
    1STR   H23841686  30.060  55.636  44.813
    1STR   O23941687  29.965  55.771  44.686
    1STR   C24041688  29.994  55.891  44.756
    1STR   H24141689  29.938  55.894  44.850
    1STR   C24241690  30.145  55.902  44.783
    1STR   H24341691  30.202  55.894  44.690
    1STR   H24441692  30.180  55.824  44.851
    1STR   H24541693  30.169  55.998  44.829
    1STR   C24641694  29.944  56.008  44.669
    1STR   H24741695  29.998  56.009  44.574
    1STR   H24841696  29.839  55.992  44.646
    1STR   O24941697  29.962  56.131  44.739
    1STR   C25041698  29.922  56.248  44.667
    1STR   H25141699  29.957  56.242  44.564
    1STR   C25241700  29.769  56.262  44.670
    1STR   H25341701  29.732  56.263  44.773
    1STR   H25441702  29.719  56.182  44.617
    1STR   H25541703  29.738  56.356  44.623
    1STR   C25641704  29.991  56.369  44.733
    1STR   H25741705  29.958  56.379  44.837
    1STR   H25841706  30.099  56.351  44.736
    1STR   O25941707  29.963  56.488  44.660
    1STR   C26041708  30.019  56.608  44.712
    1STR   H26141709  30.006  56.610  44.821
    1STR   C26241710  30.168  56.615  44.677
    1STR   H26341711  30.184  56.607  44.569
    1STR   H26441712  30.226  56.536  44.725
    1STR   H26541713  30.211  56.710  44.709
    1STR   C26641714  29.941  56.726  44.653
    1STR   H26741715  29.953  56.727  44.544
    1STR   H26841716  29.835  56.713  44.673
    1STR   O26941717  29.988  56.849  44.709
    1STR   C27041718  29.925  56.967  44.660
    1STR   H27141719  29.915  56.962  44.551
    1STR   C27241720  29.786  56.983  44.724
    1STR   H27341721  29.793  56.982  44.833
    1STR   H27441722  29.718  56.903  44.695
    1STR   H27541723  29.740  57.077  44.695
    1STR   C27641724  30.015  57.088  44.694
    1STR   H27741725  30.027  57.096  44.802
    1STR   H27841726  30.115  57.068  44.653
    1STR   O27941727  29.961  57.208  44.639
    1STR   C28041728  30.036  57.327  44.665
    1STR   H28141729  30.068  57.329  44.769
    1STR   C28241730  30.159  57.332  44.572
    1STR   H28341731  30.130  57.323  44.467
    1STR   H28441732  30.230  57.252  44.594
    1STR   H28541733  30.213  57.426  44.584
    1STR   C28641734  29.944  57.449  44.641
    1STR   H28741735  29.910  57.450  44.537
    1STR   H28841736  29.855  57.437  44.703
    1STR   O28941737  30.012  57.571  44.673
    1STR   C29041738  29.936  57.691  44.655
    1STR   H29141739  29.884  57.688  44.559
    1STR   C29241740  29.835  57.706  44.770
    1STR   H29341741  29.885  57.703  44.867
    1STR   H29441742  29.759  57.628  44.768
    1STR   H29541743  29.783  57.802  44.762
    1STR   C29641744  30.035  57.811  44.651
    1STR   H29741745  30.090  57.816  44.745
    1STR   H29841746  30.108  57.792  44.573
    1STR   O29941747  29.966  57.934  44.627
    1STR   C30041748  30.048  58.052  44.623
    1STR   H30141749  30.120  58.049  44.705
    1STR   C30241750  30.121  58.057  44.488
    1STR   H30341751  30.051  58.051  44.405
    1STR   H30441752  30.194  57.977  44.477
    1STR   H30541753  30.176  58.151  44.478
    1STR   C30641754  29.958  58.177  44.643
    1STR   H30741755  29.888  58.185  44.560
    1STR   H30841756  29.899  58.161  44.733
    1STR   O30941757  30.037  58.297  44.655
    1STR    H1R41758  29.883  58.422  44.597
    1STR    H1S41759  29.855  58.522  44.831
    1STR    H1T41760  29.980  58.413  44.889
    1STR    H1U41761  29.827  58.349  44.829
    1STR    H1V41762  30.118  58.521  44.560
    1STR    H1W41763  30.125  58.555  44.730
    1STR    H1X41764  29.857  58.830  44.561
    1STR    H1Y41765  29.646  58.900  44.687
    1STR    H1Z41766  29.541  59.090  44.802
    1STR    H2041767  29.693  59.289  45.025
    1STR    H2141768  29.675  59.404  44.894
    1STR    H2241769  29.548  59.288  44.925
    1STR    H2341770  30.017  59.290  44.912
    1STR    H2741771  30.033  59.084  44.737
    1STR    H2841772  29.624  46.490  44.933
    1STR    H2941773  29.574  46.273  44.851
    1STR    H2A41774  29.810  46.010  44.792
    1STR    H2B41775  29.646  46.065  44.770
    1STR    H2C41776  29.689  45.979  44.918
    1STR   BCK141777  45.077   0.865  60.144
    1STR    O0341778  45.169   0.796   0.026
    1STR    N0441779  45.055   0.994   0.020
    1STR    C0541780  45.120   1.078   0.114
    1STR    C0641781  45.135   1.219   0.087
    1STR    C0741782  45.194   1.311   0.180
    1STR    N0841783  45.202   1.451   0.153
    1STR    C0941784  45.240   1.554   0.232
    1STR    O0A41785  45.278   1.542   0.349
    1STR    O0B41786  45.233   1.676   0.170
    1STR    C0C41787  45.278   1.796   0.239
    1STR    C0D41788  45.431   1.808   0.227
    1STR    C0E41789  45.209   1.926   0.187
    1STR    O0F41790  45.256   2.044   0.255
    1STR    C0G41791  45.195   2.169   0.219
    1STR    C0H41792  45.057   2.179   0.286
    1STR    C0I41793  45.284   2.289   0.261
    1STR    O0J41794  45.225   2.413   0.217
    1STR    C0K41795  44.904  13.312   0.382
    1STR    C0M41796  45.048  13.309   0.328
    1STR    C0N41797  44.826  13.429   0.315
    1STR    O0O41798  44.883  13.558   0.345
    1STR    C0P41799  44.876  13.661   0.257
    1STR    O0Q41800  44.830  13.654   0.144
    1STR    N0R41801  44.928  13.772   0.312
    1STR    C0S41802  44.953  13.902   0.264
    1STR    C0T41803  45.018  13.989   0.353
    1STR    C0U41804  45.058  14.118   0.312
    1STR    C0V41805  45.034  14.164   0.181
    1STR    C0W41806  45.099  14.295   0.141
    1STR    C0X41807  44.960  14.083   0.090
    1STR    N0Y41808  44.937  14.117  60.115
    1STR   BCK241809  44.900  14.224  60.042
    1STR    O1041810  44.887  14.210  59.921
    1STR    C1341811  44.923  13.951   0.133
    1STR    C1441812  45.242   1.256   0.301
    1STR    C1541813  45.226   1.121   0.331
    1STR    C1641814  45.162   1.032   0.242
    1STR    C1741815  45.136   0.892   0.295
    1STR    H1B41816  44.981   1.036  60.127
    1STR    H1C41817  45.100   1.257  60.153
    1STR    H1D41818  45.174   1.483   0.062
    1STR    H1E41819  45.253   1.788   0.345
    1STR    H1F41820  45.462   1.818   0.123
    1STR    H1G41821  45.467   1.896   0.281
    1STR    H1H41822  45.481   1.721   0.269
    1STR    H1I41823  45.101   1.915   0.201
    1STR    H1J41824  45.226   1.936   0.080
    1STR    H1K41825  45.184   2.173   0.110
    1STR    H1M41826  45.066   2.172   0.394
    1STR    H1N41827  44.988   2.102   0.253
    1STR    H1O41828  45.011   2.275   0.263
    1STR    H1P41829  45.297   2.290   0.369
    1STR    H1Q41830  45.383   2.277   0.217
    1STR   C01041831  45.293   2.534   0.254
    1STR   H01141832  45.322   2.530   0.359
    1STR   C01241833  45.417   2.553   0.166
    1STR   H01341834  45.391   2.553   0.060
    1STR   H01441835  45.492   2.475   0.183
    1STR   H01541836  45.466   2.648   0.188
    1STR   C01641837  45.195   2.653   0.237
    1STR   H01741838  45.163   2.659   0.133
    1STR   H01841839  45.106   2.635   0.297
    1STR   O01941840  45.257   2.777   0.276
    1STR   C02041841  45.177   2.895   0.260
    1STR   H02141842  45.126   2.892   0.164
    1STR   C02241843  45.073   2.903   0.373
    1STR   H02341844  45.121   2.901   0.471
    1STR   H02441845  45.001   2.821   0.369
    1STR   H02541846  45.016   2.996   0.366
    1STR   C02641847  45.269   3.019   0.262
    1STR   H02741848  45.322   3.025   0.357
    1STR   H02841849  45.345   3.008   0.184
    1STR   O02941850  45.193   3.138   0.239
    1STR   C03041851  45.266   3.261   0.243
    1STR   H03141852  45.335   3.260   0.327
    1STR   C03241853  45.343   3.279   0.111
    1STR   H03341854  45.276   3.276   0.025
    1STR   H03441855  45.420   3.203   0.097
    1STR   H03541856  45.393   3.376   0.109
    1STR   C03641857  45.166   3.377   0.265
    1STR   H03741858  45.095   3.381   0.182
    1STR   H03841859  45.109   3.357   0.355
    1STR   O03941860  45.237   3.501   0.277
    1STR   C04041861  45.155   3.617   0.293
    1STR   H04141862  45.070   3.613   0.225
    1STR   C04241863  45.106   3.626   0.438
    1STR   H04341864  45.189   3.625   0.509
    1STR   H04441865  45.039   3.544   0.464
    1STR   H04541866  45.050   3.718   0.454
    1STR   C04641867  45.240   3.740   0.256
    1STR   H04741868  45.326   3.748   0.323
    1STR   H04841869  45.279   3.727   0.155
    1STR   O04941870  45.160   3.858   0.263
    1STR   C05041871  45.228   3.981   0.235
    1STR   H05141872  45.325   3.982   0.284
    1STR   C05241873  45.246   3.997   0.083
    1STR   H05341874  45.150   3.991   0.032
    1STR   H05441875  45.311   3.920   0.041
    1STR   H05541876  45.290   4.093   0.060
    1STR   C05641877  45.144   4.096   0.294
    1STR   H05741878  45.046   4.099   0.246
    1STR   H05841879  45.127   4.077   0.400
    1STR   O05941880  45.213   4.219   0.275
    1STR   C06041881  45.144   4.335   0.322
    1STR   H06141882  45.038   4.330   0.293
    1STR   C06241883  45.156   4.346   0.474
    1STR   H06341884  45.261   4.347   0.505
    1STR   H06441885  45.107   4.264   0.526
    1STR   H06541886  45.111   4.438   0.511
    1STR   C06641887  45.205   4.458   0.252
    1STR   H06741888  45.311   4.467   0.279
    1STR   H06841889  45.201   4.443   0.144
    1STR   O06941890  45.133   4.575   0.288
    1STR   C07041891  45.183   4.697   0.233
    1STR   H07141892  45.292   4.699   0.240
    1STR   C07241893  45.138   4.710   0.087
    1STR   H07341894  45.030   4.703   0.078
    1STR   H07441895  45.182   4.633   0.023
    1STR   H07541896  45.169   4.807   0.046
    1STR   C07641897  45.129   4.812   0.319
    1STR   H07741898  45.020   4.814   0.314
    1STR   H07841899  45.156   4.795   0.423
    1STR   O07941900  45.183   4.936   0.273
    1STR   C08041901  45.137   5.052   0.342
    1STR   H08141902  45.029   5.046   0.358
    1STR   C08241903  45.210   5.065   0.477
    1STR   H08341904  45.318   5.066   0.463
    1STR   H08441905  45.186   4.983   0.545
    1STR   H08541906  45.182   5.158   0.527
    1STR   C08641907  45.165   5.173   0.252
    1STR   H08741908  45.272   5.183   0.235
    1STR   H08841909  45.118   5.156   0.154
    1STR   O08941910  45.112   5.291   0.312
    1STR   C09041911  45.135   5.411   0.240
    1STR   H09141912  45.237   5.414   0.202
    1STR   C09241913  45.035   5.422   0.123
    1STR   H09341914  44.932   5.415   0.159
    1STR   H09441915  45.050   5.344   0.049
    1STR   H09541916  45.045   5.518   0.072
    1STR   C09641917  45.117   5.528   0.339
    1STR   H09741918  45.015   5.529   0.378
    1STR   H09841919  45.184   5.512   0.424
    1STR   O09941920  45.148   5.651   0.274
    1STR   C10041921  45.133   5.767   0.354
    1STR   H10141922  45.040   5.761   0.411
    1STR   C10241923  45.253   5.783   0.448
    1STR   H10341924  45.347   5.784   0.392
    1STR   H10441925  45.259   5.702   0.521
    1STR   H10541926  45.247   5.876   0.504
    1STR   C10641927  45.121   5.887   0.258
    1STR   H10741928  45.212   5.897   0.199
    1STR   H10841929  45.040   5.868   0.188
    1STR   O10941930  45.096   6.006   0.333
    1STR   C11041931  45.086   6.125   0.256
    1STR   H11141932  45.165   6.128   0.180
    1STR   C11241933  44.948   6.134   0.189
    1STR   H11341934  44.868   6.127   0.263
    1STR   H11441935  44.933   6.055   0.115
    1STR   H11541936  44.937   6.229   0.137
    1STR   C11641937  45.109   6.243   0.352
    1STR   H11741938  45.031   6.245   0.428
    1STR   H11841939  45.204   6.229   0.404
    1STR   O11941940  45.110   6.365   0.278
    1STR   C12041941  45.127   6.483   0.356
    1STR   H12141942  45.065   6.478   0.446
    1STR   C12241943  45.275   6.500   0.394
    1STR   H12341944  45.338   6.501   0.306
    1STR   H12441945  45.310   6.421   0.460
    1STR   H12541946  45.290   6.595   0.447
    1STR   C12641947  45.077   6.601   0.272
    1STR   H12741948  45.137   6.611   0.181
    1STR   H12841949  44.974   6.581   0.240
    1STR   O12941950  45.082   6.721   0.349
    1STR   C13041951  45.042   6.839   0.281
    1STR   H13141952  45.084   6.840   0.180
    1STR   C13241953  44.888   6.846   0.274
    1STR   H13341954  44.844   6.839   0.374
    1STR   H13441955  44.846   6.766   0.214
    1STR   H13541956  44.856   6.940   0.230
    1STR   C13641957  45.100   6.958   0.358
    1STR   H13741958  45.059   6.961   0.459
    1STR   H13841959  45.208   6.945   0.367
    1STR   O13941960  45.070   7.079   0.288
    1STR   C14041961  45.115   7.198   0.351
    1STR   H14141962  45.095   7.194   0.458
    1STR   C14241963  45.266   7.217   0.327
    1STR   H14341964  45.289   7.216   0.220
    1STR   H14441965  45.325   7.139   0.374
    1STR   H14541966  45.300   7.312   0.367
    1STR   C14641967  45.034   7.315   0.292
    1STR   H14741968  45.053   7.323   0.185
    1STR   H14841969  44.928   7.294   0.304
    1STR   O14941970  45.069   7.436   0.359
    1STR   C15041971  45.004   7.553   0.311
    1STR   H15141972  45.002   7.553   0.202
    1STR   C15241973  44.860   7.559   0.366
    1STR   H15341974  44.860   7.554   0.475
    1STR   H15441975  44.798   7.478   0.329
    1STR   H15541976  44.812   7.652   0.337
    1STR   C15641977  45.087   7.674   0.357
    1STR   H15741978  45.089   7.678   0.466
    1STR   H15841979  45.189   7.661   0.323
    1STR   O15941980  45.030   7.793   0.303
    1STR   C16041981  45.096   7.913   0.342
    1STR   H16141982  45.120   7.911   0.448
    1STR   C16241983  45.224   7.932   0.259
    1STR   H16341984  45.202   7.930   0.152
    1STR   H16441985  45.298   7.855   0.280
    1STR   H16541986  45.271   8.028   0.281
    1STR   C16641987  44.997   8.029   0.319
    1STR   H16741988  44.972   8.035   0.213
    1STR   H16841989  44.904   8.007   0.372
    1STR   O16941990  45.055   8.151   0.364
    1STR   C17041991  44.974   8.267   0.345
    1STR   H17141992  44.929   8.265   0.245
    1STR   C17241993  44.865   8.273   0.453
    1STR   H17341994  44.908   8.270   0.553
    1STR   H17441995  44.794   8.191   0.444
    1STR   H17541996  44.808   8.366   0.444
    1STR   C17641997  45.067   8.388   0.352
    1STR   H17741998  45.113   8.394   0.451
    1STR   H17841999  45.148   8.376   0.280
    1STR   O17942000  44.993   8.507   0.324
    1STR   C18042001  45.068   8.628   0.331
    1STR   H18142002  45.132   8.627   0.419
    1STR   C18242003  45.152   8.646   0.204
    1STR   H18342004  45.089   8.642   0.114
    1STR   H18442005  45.229   8.569   0.194
    1STR   H18542006  45.203   8.742   0.204
    1STR   C18642007  44.967   8.743   0.348
    1STR   H18742008  44.901   8.747   0.261
    1STR   H18842009  44.903   8.722   0.434
    1STR   O18942010  45.036   8.866   0.365
    1STR   C19042011  44.954   8.981   0.378
    1STR   H19142012  44.873   8.977   0.305
    1STR   C19242013  44.897   8.989   0.520
    1STR   H19342014  44.976   8.988   0.595
    1STR   H19442015  44.829   8.906   0.542
    1STR   H19542016  44.840   9.081   0.534
    1STR   C19642017  45.041   9.103   0.345
    1STR   H19742018  45.123   9.111   0.418
    1STR   H19842019  45.086   9.090   0.247
    1STR   O19942020  44.961   9.221   0.348
    1STR   C20042021  45.030   9.343   0.323
    1STR   H20142022  45.125   9.344   0.378
    1STR   C20242023  45.056   9.358   0.172
    1STR   H20342024  44.963   9.353   0.116
    1STR   H20442025  45.124   9.282   0.134
    1STR   H20542026  45.102   9.455   0.151
    1STR   C20642027  44.943   9.457   0.377
    1STR   H20742028  44.848   9.460   0.324
    1STR   H20842029  44.920   9.438   0.482
    1STR   O20942030  45.013   9.581   0.363
    1STR   C21042031  44.942   9.696   0.406
    1STR   H21142032  44.838   9.691   0.372
    1STR   C21242033  44.946   9.706   0.560
    1STR   H21342034  45.049   9.706   0.596
    1STR   H21442035  44.893   9.624   0.608
    1STR   H21542036  44.899   9.798   0.594
    1STR   C21642037  45.007   9.818   0.340
    1STR   H21742038  45.111   9.827   0.374
    1STR   H21842039  45.010   9.803   0.232
    1STR   O21942040  44.933   9.936   0.373
    1STR   C22042041  44.986  10.057   0.321
    1STR   H22142042  45.095  10.059   0.333
    1STR   C22242043  44.950  10.070   0.172
    1STR   H22342044  44.842  10.063   0.157
    1STR   H22442045  44.997   9.993   0.111
    1STR   H22542046  44.982  10.167   0.133
    1STR   C22642047  44.927  10.172   0.403
    1STR   H22742048  44.818  10.174   0.393
    1STR   H22842049  44.948  10.155   0.509
    1STR   O22942050  44.984  10.296   0.361
    1STR   C23042051  44.935  10.412   0.428
    1STR   H23142052  44.826  10.406   0.438
    1STR   C23242053  45.000  10.424   0.566
    1STR   H23342054  45.109  10.425   0.559
    1STR   H23442055  44.972  10.343   0.633
    1STR   H23542056  44.970  10.517   0.615
    1STR   C23642057  44.968  10.534   0.339
    1STR   H23742058  45.076  10.543   0.328
    1STR   H23842059  44.926  10.517   0.240
    1STR   O23942060  44.912  10.652   0.397
    1STR   C24042061  44.938  10.773   0.327
    1STR   H24142062  45.042  10.775   0.294
    1STR   C24242063  44.845  10.783   0.205
    1STR   H24342064  44.740  10.775   0.234
    1STR   H24442065  44.865  10.705   0.131
    1STR   H24542066  44.858  10.878   0.154
    1STR   C24642067  44.916  10.890   0.424
    1STR   H24742068  44.812  10.891   0.458
    1STR   H24842069  44.977  10.874   0.512
    1STR   O24942070  44.949  11.013   0.361
    1STR   C25042071  44.930  11.130   0.440
    1STR   H25142072  44.835  11.124   0.493
    1STR   C25242073  45.045  11.144   0.541
    1STR   H25342074  45.142  11.144   0.491
    1STR   H25442075  45.046  11.063   0.614
    1STR   H25542076  45.036  11.237   0.597
    1STR   C25642077  44.924  11.251   0.345
    1STR   H25742078  45.019  11.261   0.291
    1STR   H25842079  44.847  11.233   0.271
    1STR   O25942080  44.896  11.370   0.419
    1STR   C26042081  44.890  11.490   0.342
    1STR   H26142082  44.972  11.493   0.270
    1STR   C26242083  44.756  11.497   0.267
    1STR   H26342084  44.672  11.488   0.336
    1STR   H26442085  44.746  11.418   0.192
    1STR   H26542086  44.745  11.592   0.214
    1STR   C26642087  44.906  11.610   0.438
    1STR   H26742088  44.825  11.610   0.511
    1STR   H26842089  44.999  11.597   0.494
    1STR   O26942090  44.909  11.733   0.365
    1STR   C27042091  44.923  11.852   0.444
    1STR   H27142092  44.857  11.846   0.531
    1STR   C27242093  45.069  11.866   0.490
    1STR   H27342094  45.138  11.865   0.405
    1STR   H27442095  45.099  11.786   0.558
    1STR   H27542096  45.084  11.960   0.543
    1STR   C27642097  44.880  11.973   0.358
    1STR   H27742098  44.944  11.981   0.271
    1STR   H27842099  44.779  11.954   0.322
    1STR   O27942100  44.884  12.094   0.435
    1STR   C28042101  44.845  12.213   0.366
    1STR   H28142102  44.892  12.215   0.267
    1STR   C28242103  44.692  12.217   0.351
    1STR   H28342104  44.643  12.207   0.448
    1STR   H28442105  44.655  12.137   0.287
    1STR   H28542106  44.660  12.311   0.307
    1STR   C28642107  44.896  12.336   0.445
    1STR   H28742108  44.851  12.337   0.545
    1STR   H28842109  45.003  12.325   0.460
    1STR   O28942110  44.867  12.458   0.377
    1STR   C29042111  44.911  12.579   0.440
    1STR   H29142112  44.885  12.576   0.546
    1STR   C29242113  45.064  12.593   0.424
    1STR   H29342114  45.093  12.589   0.319
    1STR   H29442115  45.118  12.515   0.477
    1STR   H29542116  45.098  12.688   0.465
    1STR   C29642117  44.838  12.700   0.376
    1STR   H29742118  44.860  12.704   0.269
    1STR   H29842119  44.731  12.683   0.385
    1STR   O29942120  44.873  12.825   0.438
    1STR   C30042121  44.809  12.942   0.385
    1STR   H30142122  44.808  12.937   0.276
    1STR   C30242123  44.664  12.947   0.437
    1STR   H30342124  44.661  12.942   0.546
    1STR   H30442125  44.603  12.866   0.398
    1STR   H30542126  44.616  13.040   0.407
    1STR   C30642127  44.887  13.070   0.425
    1STR   H30742128  44.882  13.085   0.533
    1STR   H30842129  44.992  13.053   0.401
    1STR   O30942130  44.838  13.187   0.355
    1STR    H1R42131  44.906  13.329   0.490
    1STR    H1S42132  45.096  13.406   0.339
    1STR    H1T42133  45.049  13.283   0.222
    1STR    H1U42134  45.111  13.237   0.380
    1STR    H1V42135  44.722  13.429   0.350
    1STR    H1W42136  44.821  13.413   0.207
    1STR    H1X42137  44.956  13.752   0.406
    1STR    H1Y42138  45.041  13.959   0.454
    1STR    H1Z42139  45.111  14.180   0.382
    1STR    H2042140  45.132  14.292   0.037
    1STR    H2142141  45.030  14.378   0.156
    1STR    H2242142  45.187  14.315   0.202
    1STR    H2342143  44.944  14.038  60.053
    1STR    H2742144  44.872  13.886   0.065
    1STR    H2842145  45.291   1.316   0.376
    1STR    H2942146  45.261   1.085   0.427
    1STR    H2A42147  45.044   0.851   0.254
    1STR    H2B42148  45.126   0.892   0.403
    1STR    H2C42149  45.219   0.827   0.269
    1STR   BCK142150  45.026   0.859  14.864
    1STR    O0342151  44.958   0.865  14.762
    1STR    N0442152  45.099   0.963  14.911
    1STR    C0542153  45.148   1.072  14.837
    1STR    C0642154  45.115   1.209  14.864
    1STR    C0742155  45.175   1.317  14.791
    1STR    N0842156  45.146   1.453  14.820
    1STR    C0942157  45.168   1.563  14.744
    1STR    O0A42158  45.207   1.559  14.627
    1STR    O0B42159  45.141   1.682  14.808
    1STR    C0C42160  45.156   1.807  14.737
    1STR    C0D42161  45.033   1.830  14.647
    1STR    C0E42162  45.178   1.930  14.831
    1STR    O0F42163  45.191   2.051  14.754
    1STR    C0G42164  45.212   2.173  14.826
    1STR    C0H42165  45.358   2.181  14.872
    1STR    C0I42166  45.176   2.294  14.737
    1STR    O0J42167  45.189   2.417  14.810
    1STR    C0K42168  45.499  13.309  14.871
    1STR    C0M42169  45.357  13.283  14.818
    1STR    C0N42170  45.497  13.443  14.952
    1STR    O0O42171  45.473  13.554  14.863
    1STR    C0P42172  45.396  13.662  14.896
    1STR    O0Q42173  45.328  13.675  14.998
    1STR    N0R42174  45.410  13.755  14.801
    1STR    C0S42175  45.367  13.888  14.779
    1STR    C0T42176  45.456  13.964  14.702
    1STR    C0U42177  45.427  14.097  14.670
    1STR    C0V42178  45.308  14.159  14.712
    1STR    C0W42179  45.296  14.306  14.680
    1STR    C0X42180  45.211  14.086  14.786
    1STR    N0Y42181  45.091  14.142  14.837
    1STR   BCK242182  45.000  14.240  14.813
    1STR    O1042183  44.915  14.259  14.899
    1STR    C1342184  45.245  13.950  14.821
    1STR    C1442185  45.269   1.283  14.692
    1STR    C1542186  45.304   1.150  14.666
    1STR    C1642187  45.247   1.045  14.739
    1STR    C1742188  45.296   0.903  14.713
    1STR    H1B42189  45.139   0.949  15.003
    1STR    H1C42190  45.043   1.230  14.941
    1STR    H1D42191  45.104   1.475  14.908
    1STR    H1E42192  45.244   1.801  14.673
    1STR    H1F42193  44.941   1.838  14.706
    1STR    H1G42194  45.044   1.922  14.589
    1STR    H1H42195  45.021   1.749  14.576
    1STR    H1I42196  45.267   1.913  14.891
    1STR    H1J42197  45.094   1.939  14.900
    1STR    H1K42198  45.146   2.175  14.913
    1STR    H1M42199  45.426   2.176  14.787
    1STR    H1N42200  45.385   2.102  14.941
    1STR    H1O42201  45.377   2.276  14.923
    1STR    H1P42202  45.240   2.296  14.649
    1STR    H1Q42203  45.074   2.283  14.701
    1STR   C01042204  45.164   2.538  14.737
    1STR   H01142205  45.213   2.534  14.640
    1STR   C01242206  45.013   2.557  14.718
    1STR   H01342207  44.960   2.557  14.814
    1STR   H01442208  44.969   2.480  14.655
    1STR   H01542209  44.992   2.653  14.669
    1STR   C01642210  45.224   2.657  14.816
    1STR   H01742211  45.178   2.664  14.914
    1STR   H01842212  45.331   2.638  14.832
    1STR   O01942213  45.206   2.780  14.745
    1STR   C02042214  45.255   2.898  14.810
    1STR   H02142215  45.227   2.896  14.916
    1STR   C02242216  45.407   2.906  14.796
    1STR   H02342217  45.438   2.904  14.692
    1STR   H02442218  45.458   2.825  14.848
    1STR   H02542219  45.445   2.999  14.839
    1STR   C02642220  45.187   3.022  14.747
    1STR   H02742221  45.213   3.028  14.641
    1STR   H02842222  45.079   3.010  14.752
    1STR   O02942223  45.228   3.141  14.815
    1STR   C03042224  45.176   3.263  14.762
    1STR   H03142225  45.182   3.263  14.653
    1STR   C03242226  45.030   3.281  14.807
    1STR   H03342227  45.022   3.278  14.916
    1STR   H03442228  44.964   3.205  14.766
    1STR   H03542229  44.992   3.378  14.775
    1STR   C03642230  45.265   3.379  14.814
    1STR   H03742231  45.261   3.383  14.922
    1STR   H03842232  45.368   3.359  14.786
    1STR   O03942233  45.221   3.502  14.757
    1STR   C04042234  45.292   3.618  14.800
    1STR   H04142235  45.309   3.615  14.908
    1STR   C04242236  45.427   3.627  14.726
    1STR   H04342237  45.413   3.626  14.618
    1STR   H04442238  45.493   3.545  14.752
    1STR   H04542239  45.479   3.719  14.752
    1STR   C04642240  45.204   3.741  14.770
    1STR   H04742241  45.187   3.749  14.663
    1STR   H04842242  45.107   3.728  14.818
    1STR   O04942243  45.268   3.859  14.819
    1STR   C05042244  45.199   3.981  14.794
    1STR   H05142245  45.161   3.983  14.692
    1STR   C05242246  45.083   3.997  14.894
    1STR   H05342247  45.119   3.992  14.997
    1STR   H05442248  45.007   3.921  14.881
    1STR   H05542249  45.035   4.094  14.881
    1STR   C05642250  45.301   4.096  14.807
    1STR   H05742251  45.340   4.099  14.909
    1STR   H05842252  45.385   4.078  14.741
    1STR   O05942253  45.238   4.220  14.774
    1STR   C06042254  45.320   4.336  14.787
    1STR   H06142255  45.378   4.331  14.879
    1STR   C06242256  45.414   4.346  14.665
    1STR   H06342257  45.357   4.347  14.572
    1STR   H06442258  45.485   4.264  14.661
    1STR   H06542259  45.472   4.439  14.670
    1STR   C06642260  45.227   4.458  14.797
    1STR   H06742261  45.168   4.467  14.705
    1STR   H06842262  45.157   4.443  14.879
    1STR   O06942263  45.305   4.576  14.818
    1STR   C07042264  45.231   4.697  14.825
    1STR   H07142265  45.155   4.700  14.747
    1STR   C07242266  45.165   4.710  14.964
    1STR   H07342267  45.239   4.704  15.043
    1STR   H07442268  45.090   4.634  14.981
    1STR   H07542269  45.115   4.807  14.973
    1STR   C07642270  45.329   4.812  14.799
    1STR   H07742271  45.406   4.814  14.876
    1STR   H07842272  45.380   4.795  14.704
    1STR   O07942273  45.258   4.936  14.796
    1STR   C08042274  45.339   5.052  14.776
    1STR   H08142275  45.429   5.046  14.837
    1STR   C08242276  45.376   5.065  14.628
    1STR   H08342277  45.287   5.066  14.565
    1STR   H08442278  45.440   4.984  14.594
    1STR   H08542279  45.431   5.158  14.610
    1STR   C08642280  45.257   5.173  14.824
    1STR   H08742281  45.166   5.183  14.764
    1STR   H08842282  45.225   5.156  14.927
    1STR   O08942283  45.337   5.291  14.815
    1STR   C09042284  45.271   5.411  14.853
    1STR   H09142285  45.170   5.414  14.812
    1STR   C09242286  45.266   5.422  15.006
    1STR   H09342287  45.366   5.415  15.050
    1STR   H09442288  45.204   5.344  15.051
    1STR   H09542289  45.224   5.518  15.037
    1STR   C09642290  45.351   5.528  14.792
    1STR   H09742291  45.452   5.529  14.832
    1STR   H09842292  45.359   5.512  14.684
    1STR   O09942293  45.284   5.651  14.819
    1STR   C10042294  45.349   5.767  14.771
    1STR   H10142295  45.457   5.762  14.790
    1STR   C10242296  45.324   5.783  14.620
    1STR   H10342297  45.218   5.784  14.597
    1STR   H10442298  45.370   5.702  14.562
    1STR   H10542299  45.367   5.876  14.583
    1STR   C10642300  45.293   5.887  14.849
    1STR   H10742301  45.186   5.897  14.830
    1STR   H10842302  45.306   5.868  14.956
    1STR   O10942303  45.363   6.006  14.811
    1STR   C11042304  45.318   6.125  14.874
    1STR   H11142305  45.209   6.128  14.877
    1STR   C11242306  45.374   6.134  15.017
    1STR   H11342307  45.483   6.127  15.016
    1STR   H11442308  45.336   6.055  15.081
    1STR   H11542309  45.348   6.229  15.063
    1STR   C11642310  45.366   6.243  14.788
    1STR   H11742311  45.475   6.245  14.784
    1STR   H11842312  45.330   6.229  14.686
    1STR   O11942313  45.315   6.365  14.842
    1STR   C12042314  45.355   6.483  14.773
    1STR   H12142315  45.462   6.478  14.748
    1STR   C12242316  45.272   6.500  14.645
    1STR   H12342317  45.165   6.501  14.667
    1STR   H12442318  45.291   6.421  14.573
    1STR   H12542319  45.296   6.595  14.596
    1STR   C12642320  45.336   6.601  14.869
    1STR   H12742321  45.230   6.611  14.895
    1STR   H12842322  45.390   6.581  14.962
    1STR   O12942323  45.384   6.721  14.808
    1STR   C13042324  45.367   6.839  14.886
    1STR   H13142325  45.268   6.840  14.932
    1STR   C13242326  45.476   6.846  14.995
    1STR   H13342327  45.576   6.839  14.951
    1STR   H13442328  45.466   6.766  15.068
    1STR   H13542329  45.470   6.940  15.049
    1STR   C13642330  45.376   6.958  14.790
    1STR   H13742331  45.475   6.961  14.743
    1STR   H13842332  45.303   6.945  14.710
    1STR   O13942333  45.351   7.079  14.862
    1STR   C14042334  45.361   7.198  14.784
    1STR   H14142335  45.448   7.194  14.719
    1STR   C14242336  45.233   7.217  14.701
    1STR   H14342337  45.144   7.216  14.764
    1STR   H14442338  45.221   7.139  14.626
    1STR   H14542339  45.235   7.312  14.648
    1STR   C14642340  45.381   7.315  14.883
    1STR   H14742341  45.294   7.323  14.949
    1STR   H14842342  45.467   7.294  14.945
    1STR   O14942343  45.400   7.436  14.810
    1STR   C15042344  45.416   7.553  14.889
    1STR   H15142345  45.344   7.553  14.971
    1STR   C15242346  45.559   7.559  14.945
    1STR   H15342347  45.633   7.554  14.865
    1STR   H15442348  45.580   7.478  15.015
    1STR   H15542349  45.575   7.652  14.999
    1STR   C15642350  45.386   7.674  14.799
    1STR   H15742351  45.458   7.678  14.717
    1STR   H15842352  45.287   7.661  14.755
    1STR   O15942353  45.391   7.793  14.877
    1STR   C16042354  45.369   7.913  14.804
    1STR   H16142355  45.423   7.911  14.710
    1STR   C16242356  45.218   7.932  14.779
    1STR   H16342357  45.162   7.930  14.872
    1STR   H16442358  45.178   7.855  14.714
    1STR   H16542359  45.199   8.028  14.731
    1STR   C16642360  45.426   8.029  14.888
    1STR   H16742361  45.373   8.035  14.984
    1STR   H16842362  45.530   8.007  14.911
    1STR   O16942363  45.414   8.151  14.816
    1STR   C17042364  45.461   8.267  14.884
    1STR   H17142365  45.427   8.265  14.988
    1STR   C17242366  45.614   8.273  14.879
    1STR   H17342367  45.650   8.270  14.776
    1STR   H17442368  45.661   8.191  14.933
    1STR   H17542369  45.650   8.366  14.923
    1STR   C17642370  45.397   8.388  14.816
    1STR   H17742371  45.429   8.394  14.712
    1STR   H17842372  45.288   8.376  14.815
    1STR   O17942373  45.432   8.507  14.887
    1STR   C18042374  45.382   8.628  14.831
    1STR   H18142375  45.394   8.627  14.723
    1STR   C18242376  45.234   8.646  14.868
    1STR   H18342377  45.220   8.642  14.976
    1STR   H18442378  45.171   8.569  14.823
    1STR   H18542379  45.197   8.742  14.834
    1STR   C18642380  45.468   8.743  14.887
    1STR   H18742381  45.458   8.747  14.996
    1STR   H18842382  45.573   8.722  14.866
    1STR   O18942383  45.428   8.866  14.827
    1STR   C19042384  45.498   8.981  14.874
    1STR   H19142385  45.508   8.978  14.982
    1STR   C19242386  45.636   8.989  14.808
    1STR   H19342387  45.628   8.988  14.699
    1STR   H19442388  45.701   8.907  14.837
    1STR   H19542389  45.687   9.081  14.836
    1STR   C19642390  45.412   9.103  14.838
    1STR   H19742391  45.400   9.111  14.730
    1STR   H19842392  45.312   9.090  14.880
    1STR   O19942393  45.472   9.221  14.891
    1STR   C20042394  45.404   9.343  14.862
    1STR   H20142395  45.371   9.344  14.758
    1STR   C20242396  45.283   9.358  14.956
    1STR   H20342397  45.314   9.353  15.061
    1STR   H20442398  45.208   9.282  14.939
    1STR   H20542399  45.235   9.455  14.941
    1STR   C20642400  45.505   9.457  14.881
    1STR   H20742401  45.539   9.460  14.985
    1STR   H20842402  45.593   9.438  14.819
    1STR   O20942403  45.444   9.581  14.844
    1STR   C21042404  45.526   9.696  14.861
    1STR   H21142405  45.579   9.691  14.956
    1STR   C21242406  45.627   9.706  14.745
    1STR   H21342407  45.576   9.706  14.649
    1STR   H21442408  45.698   9.624  14.745
    1STR   H21542409  45.684   9.798  14.752
    1STR   C21642410  45.433   9.818  14.865
    1STR   H21742411  45.379   9.827  14.771
    1STR   H21842412  45.358   9.803  14.943
    1STR   O21942413  45.510   9.936  14.891
    1STR   C22042414  45.435  10.057  14.894
    1STR   H22142415  45.364  10.060  14.812
    1STR   C22242416  45.362  10.070  15.028
    1STR   H22342417  45.432  10.063  15.112
    1STR   H22442418  45.286   9.994  15.041
    1STR   H22542419  45.311  10.167  15.035
    1STR   C22642420  45.535  10.173  14.873
    1STR   H22742421  45.608  10.174  14.954
    1STR   H22842422  45.590  10.155  14.781
    1STR   O22942423  45.464  10.296  14.866
    1STR   C23042424  45.546  10.412  14.850
    1STR   H23142425  45.632  10.406  14.916
    1STR   C23242426  45.591  10.424  14.704
    1STR   H23342427  45.506  10.425  14.636
    1STR   H23442428  45.657  10.343  14.674
    1STR   H23542429  45.647  10.517  14.688
    1STR   C23642430  45.462  10.534  14.893
    1STR   H23742431  45.375  10.544  14.828
    1STR   H23842432  45.425  10.518  14.994
    1STR   O23942433  45.542  10.652  14.887
    1STR   C24042434  45.475  10.773  14.922
    1STR   H24142435  45.376  10.776  14.876
    1STR   C24242436  45.461  10.783  15.075
    1STR   H24342437  45.559  10.775  15.123
    1STR   H24442438  45.397  10.705  15.116
    1STR   H24542439  45.418  10.879  15.104
    1STR   C24642440  45.557  10.890  14.865
    1STR   H24742441  45.657  10.891  14.911
    1STR   H24842442  45.571  10.875  14.758
    1STR   O24942443  45.490  11.014  14.890
    1STR   C25042444  45.557  11.131  14.844
    1STR   H25142445  45.663  11.125  14.869
    1STR   C25242446  45.540  11.144  14.692
    1STR   H25342447  45.435  11.145  14.664
    1STR   H25442448  45.589  11.063  14.637
    1STR   H25542449  45.584  11.237  14.656
    1STR   C25642450  45.498  11.252  14.918
    1STR   H25742451  45.392  11.261  14.894
    1STR   H25842452  45.505  11.234  15.025
    1STR   O25942453  45.568  11.371  14.882
    1STR   C26042454  45.521  11.492  14.943
    1STR   H26142455  45.411  11.494  14.940
    1STR   C26242456  45.569  11.498  15.089
    1STR   H26342457  45.678  11.489  15.095
    1STR   H26442458  45.526  11.419  15.151
    1STR   H26542459  45.541  11.593  15.135
    1STR   C26642460  45.574  11.611  14.862
    1STR   H26742461  45.683  11.612  14.863
    1STR   H26842462  45.543  11.598  14.758
    1STR   O26942463  45.522  11.735  14.913
    1STR   C27042464  45.565  11.853  14.846
    1STR   H27142465  45.672  11.848  14.826
    1STR   C27242466  45.488  11.867  14.713
    1STR   H27342467  45.381  11.866  14.729
    1STR   H27442468  45.513  11.788  14.643
    1STR   H27542469  45.513  11.962  14.664
    1STR   C27642470  45.539  11.975  14.938
    1STR   H27742471  45.432  11.983  14.959
    1STR   H27842472  45.589  11.956  15.033
    1STR   O27942473  45.588  12.096  14.879
    1STR   C28042474  45.570  12.215  14.957
    1STR   H28142475  45.469  12.217  14.998
    1STR   C28242476  45.673  12.218  15.071
    1STR   H28342477  45.774  12.209  15.032
    1STR   H28442478  45.657  12.138  15.143
    1STR   H28542479  45.667  12.312  15.126
    1STR   C28642480  45.586  12.339  14.864
    1STR   H28742481  45.686  12.340  14.821
    1STR   H28842482  45.516  12.328  14.781
    1STR   O28942483  45.561  12.462  14.935
    1STR   C29042484  45.571  12.583  14.859
    1STR   H29142485  45.662  12.581  14.798
    1STR   C29242486  45.448  12.596  14.767
    1STR   H29342487  45.356  12.591  14.824
    1STR   H29442488  45.445  12.518  14.691
    1STR   H29542489  45.449  12.691  14.714
    1STR   C29642490  45.581  12.705  14.955
    1STR   H29742491  45.493  12.707  15.019
    1STR   H29842492  45.667  12.689  15.021
    1STR   O29942493  45.594  12.829  14.884
    1STR   C30042494  45.602  12.949  14.964
    1STR   H30142495  45.527  12.944  15.043
    1STR   C30242496  45.742  12.960  15.025
    1STR   H30342497  45.819  12.954  14.948
    1STR   H30442498  45.762  12.880  15.096
    1STR   H30542499  45.755  13.054  15.078
    1STR   C30642500  45.569  13.073  14.875
    1STR   H30742501  45.649  13.089  14.803
    1STR   H30842502  45.481  13.046  14.817
    1STR   O30942503  45.543  13.195  14.949
    1STR    H1R42504  45.568  13.321  14.788
    1STR    H1S42505  45.318  13.372  14.768
    1STR    H1T42506  45.289  13.259  14.900
    1STR    H1U42507  45.352  13.202  14.745
    1STR    H1V42508  45.594  13.458  14.999
    1STR    H1W42509  45.424  13.439  15.032
    1STR    H1X42510  45.475  13.720  14.733
    1STR    H1Y42511  45.550  13.923  14.669
    1STR    H1Z42512  45.500  14.153  14.613
    1STR    H2042513  45.241  14.319  14.587
    1STR    H2142514  45.248  14.361  14.761
    1STR    H2242515  45.394  14.352  14.664
    1STR    H2342516  45.060  14.095  14.921
    1STR    H2742517  45.177  13.891  14.881
    1STR    H2842518  45.321   1.358  14.634
    1STR    H2942519  45.378   1.129  14.590
    1STR    H2A42520  45.321   0.854  14.807
    1STR    H2B42521  45.385   0.902  14.651
    1STR    H2C42522  45.219   0.845  14.663
    1STR   BCK142523  44.975   0.854  30.019
    1STR    O0342524  44.989   0.799  30.128
    1STR    N0442525  44.952   0.987  30.003
    1STR    C0542526  44.903   1.081  30.097
    1STR    C0642527  44.951   1.217  30.100
    1STR    C0742528  44.893   1.317  30.184
    1STR    N0842529  44.935   1.453  30.182
    1STR    C0942530  44.868   1.564  30.222
    1STR    O0A42531  44.753   1.562  30.264
    1STR    O0B42532  44.941   1.680  30.211
    1STR    C0C42533  44.887   1.804  30.262
    1STR    C0D42534  44.918   1.816  30.413
    1STR    C0E42535  44.937   1.930  30.186
    1STR    O0F42536  44.877   2.050  30.239
    1STR    C0G42537  44.909   2.173  30.173
    1STR    C0H42538  44.830   2.184  30.042
    1STR    C0I42539  44.875   2.294  30.265
    1STR    O0J42540  44.914   2.417  30.203
    1STR    C0K42541  44.690  13.287  29.895
    1STR    C0M42542  44.769  13.295  30.027
    1STR    C0N42543  44.725  13.407  29.805
    1STR    O0O42544  44.670  13.525  29.862
    1STR    C0P42545  44.736  13.642  29.859
    1STR    O0Q42546  44.845  13.663  29.807
    1STR    N0R42547  44.665  13.731  29.929
    1STR    C0S42548  44.694  13.861  29.971
    1STR    C0T42549  44.638  13.899  30.094
    1STR    C0U42550  44.665  14.026  30.146
    1STR    C0V42551  44.742  14.120  30.075
    1STR    C0W42552  44.769  14.250  30.148
    1STR    C0X42553  44.788  14.089  29.943
    1STR    N0Y42554  44.837  14.181  29.848
    1STR   BCK242555  44.857  14.314  29.843
    1STR    O1042556  44.874  14.390  29.937
    1STR    C1342557  44.768  13.956  29.896
    1STR    C1442558  44.790   1.276  30.271
    1STR    C1542559  44.741   1.145  30.269
    1STR    C1642560  44.793   1.049  30.180
    1STR    C1742561  44.720   0.916  30.174
    1STR    H1B42562  44.965   1.019  29.909
    1STR    H1C42563  45.032   1.244  30.034
    1STR    H1D42564  45.026   1.475  30.144
    1STR    H1E42565  44.778   1.804  30.250
    1STR    H1F42566  45.025   1.819  30.431
    1STR    H1G42567  44.874   1.906  30.455
    1STR    H1H42568  44.877   1.731  30.468
    1STR    H1I42569  44.913   1.919  30.081
    1STR    H1J42570  45.046   1.937  30.194
    1STR    H1K42571  45.016   2.177  30.153
    1STR    H1M42572  44.723   2.177  30.060
    1STR    H1N42573  44.858   2.106  29.970
    1STR    H1O42574  44.849   2.280  29.993
    1STR    H1P42575  44.769   2.295  30.287
    1STR    H1Q42576  44.927   2.282  30.360
    1STR   C01042577  44.883   2.538  30.274
    1STR   H01142578  44.781   2.533  30.312
    1STR   C01242579  44.981   2.557  30.390
    1STR   H01342580  45.085   2.557  30.355
    1STR   H01442581  44.971   2.479  30.466
    1STR   H01542582  44.964   2.652  30.440
    1STR   C01642583  44.892   2.657  30.175
    1STR   H01742584  44.992   2.663  30.134
    1STR   H01842585  44.824   2.638  30.092
    1STR   O01942586  44.857   2.780  30.240
    1STR   C02042587  44.865   2.898  30.159
    1STR   H02142588  44.957   2.896  30.100
    1STR   C02242589  44.743   2.906  30.065
    1STR   H02342590  44.650   2.904  30.122
    1STR   H02442591  44.741   2.824  29.993
    1STR   H02542592  44.745   2.999  30.008
    1STR   C02642593  44.872   3.021  30.251
    1STR   H02742594  44.781   3.028  30.312
    1STR   H02842595  44.955   3.010  30.320
    1STR   O02942596  44.888   3.140  30.173
    1STR   C03042597  44.891   3.263  30.247
    1STR   H03142598  44.813   3.263  30.323
    1STR   C03242599  45.029   3.281  30.312
    1STR   H03342600  45.108   3.277  30.238
    1STR   H03442601  45.049   3.205  30.387
    1STR   H03542602  45.035   3.378  30.362
    1STR   C03642603  44.860   3.379  30.149
    1STR   H03742604  44.937   3.383  30.071
    1STR   H03842605  44.765   3.359  30.100
    1STR   O03942606  44.855   3.502  30.221
    1STR   C04042607  44.831   3.618  30.141
    1STR   H04142608  44.892   3.614  30.050
    1STR   C04242609  44.682   3.627  30.104
    1STR   H04342610  44.619   3.626  30.193
    1STR   H04442611  44.650   3.545  30.040
    1STR   H04542612  44.661   3.719  30.050
    1STR   C04642613  44.875   3.741  30.222
    1STR   H04742614  44.816   3.749  30.313
    1STR   H04842615  44.979   3.728  30.253
    1STR   O04942616  44.861   3.859  30.143
    1STR   C05042617  44.896   3.981  30.208
    1STR   H05142618  44.855   3.983  30.309
    1STR   C05242619  45.048   3.997  30.212
    1STR   H05342620  45.091   3.992  30.112
    1STR   H05442621  45.096   3.921  30.274
    1STR   H05542622  45.076   4.094  30.255
    1STR   C05642623  44.830   4.096  30.130
    1STR   H05742624  44.869   4.099  30.028
    1STR   H05842625  44.723   4.078  30.122
    1STR   O05942626  44.854   4.220  30.196
    1STR   C06042627  44.801   4.336  30.132
    1STR   H06142628  44.821   4.331  30.024
    1STR   C06242629  44.650   4.347  30.158
    1STR   H06342630  44.629   4.347  30.265
    1STR   H06442631  44.595   4.265  30.113
    1STR   H06542632  44.610   4.439  30.116
    1STR   C06642633  44.877   4.458  30.187
    1STR   H06742634  44.859   4.467  30.294
    1STR   H06842635  44.984   4.443  30.174
    1STR   O06942636  44.834   4.576  30.118
    1STR   C07042637  44.893   4.697  30.163
    1STR   H07142638  44.896   4.700  30.272
    1STR   C07242639  45.035   4.711  30.106
    1STR   H07342640  45.035   4.704  29.997
    1STR   H07442641  45.102   4.634  30.144
    1STR   H07542642  45.079   4.807  30.133
    1STR   C07642643  44.803   4.812  30.116
    1STR   H07742644  44.799   4.814  30.007
    1STR   H07842645  44.702   4.795  30.152
    1STR   O07942646  44.853   4.936  30.167
    1STR   C08042647  44.781   5.052  30.127
    1STR   H08142648  44.755   5.046  30.021
    1STR   C08242649  44.653   5.065  30.211
    1STR   H08342650  44.676   5.066  30.318
    1STR   H08442651  44.583   4.984  30.193
    1STR   H08542652  44.600   5.158  30.188
    1STR   C08642653  44.873   5.173  30.147
    1STR   H08742654  44.899   5.183  30.252
    1STR   H08842655  44.966   5.156  30.092
    1STR   O08942656  44.808   5.291  30.099
    1STR   C09042657  44.882   5.411  30.116
    1STR   H09142658  44.929   5.414  30.215
    1STR   C09242659  44.990   5.422  30.007
    1STR   H09342660  44.946   5.415  29.907
    1STR   H09442661  45.066   5.344  30.016
    1STR   H09542662  45.042   5.518  30.013
    1STR   C09642663  44.782   5.528  30.107
    1STR   H09742664  44.735   5.529  30.009
    1STR   H09842665  44.703   5.512  30.181
    1STR   O09942666  44.850   5.651  30.133
    1STR   C10042667  44.769   5.767  30.124
    1STR   H10142668  44.703   5.762  30.037
    1STR   C10242669  44.685   5.783  30.252
    1STR   H10342670  44.749   5.784  30.340
    1STR   H10442671  44.613   5.702  30.264
    1STR   H10542672  44.629   5.876  30.250
    1STR   C10642673  44.863   5.887  30.104
    1STR   H10742674  44.929   5.897  30.190
    1STR   H10842675  44.926   5.869  30.017
    1STR   O10942676  44.786   6.006  30.085
    1STR   C11042677  44.862   6.125  30.069
    1STR   H11142678  44.944   6.128  30.141
    1STR   C11242679  44.917   6.134  29.925
    1STR   H11342680  44.836   6.127  29.852
    1STR   H11442681  44.989   6.055  29.904
    1STR   H11542682  44.968   6.229  29.909
    1STR   C11642683  44.768   6.243  30.100
    1STR   H11742684  44.685   6.245  30.029
    1STR   H11842685  44.725   6.229  30.199
    1STR   O11942686  44.842   6.365  30.095
    1STR   C12042687  44.766   6.483  30.118
    1STR   H12142688  44.671   6.478  30.064
    1STR   C12242689  44.741   6.500  30.269
    1STR   H12342690  44.835   6.501  30.324
    1STR   H12442691  44.678   6.421  30.309
    1STR   H12542692  44.690   6.595  30.289
    1STR   C12642693  44.846   6.601  30.060
    1STR   H12742694  44.941   6.611  30.113
    1STR   H12842695  44.869   6.581  29.956
    1STR   O12942696  44.769   6.721  30.073
    1STR   C13042697  44.834   6.839  30.026
    1STR   H13142698  44.938   6.840  30.059
    1STR   C13242699  44.827   6.846  29.873
    1STR   H13342700  44.724   6.839  29.838
    1STR   H13442701  44.884   6.765  29.826
    1STR   H13542702  44.869   6.940  29.837
    1STR   C13642703  44.762   6.958  30.091
    1STR   H13742704  44.658   6.961  30.059
    1STR   H13842705  44.762   6.945  30.199
    1STR   O13942706  44.829   7.079  30.055
    1STR   C14042707  44.770   7.198  30.106
    1STR   H14142708  44.661   7.194  30.095
    1STR   C14242709  44.807   7.217  30.254
    1STR   H14342710  44.916   7.216  30.267
    1STR   H14442711  44.765   7.139  30.317
    1STR   H14542712  44.770   7.312  30.291
    1STR   C14642713  44.821   7.315  30.020
    1STR   H14742714  44.930   7.323  30.030
    1STR   H14842715  44.800   7.294  29.915
    1STR   O14942716  44.758   7.436  30.060
    1STR   C15042717  44.800   7.553  29.991
    1STR   H15142718  44.909   7.553  29.980
    1STR   C15242719  44.732   7.559  29.853
    1STR   H15342720  44.624   7.554  29.862
    1STR   H15442721  44.764   7.478  29.788
    1STR   H15542722  44.757   7.652  29.802
    1STR   C15642723  44.761   7.673  30.078
    1STR   H15742724  44.653   7.678  30.090
    1STR   H15842725  44.804   7.661  30.177
    1STR   O15942726  44.810   7.793  30.017
    1STR   C16042727  44.778   7.913  30.086
    1STR   H16142728  44.674   7.911  30.119
    1STR   C16242729  44.871   7.932  30.206
    1STR   H16342730  44.976   7.930  30.175
    1STR   H16442731  44.857   7.855  30.282
    1STR   H16542732  44.853   8.028  30.255
    1STR   C16642733  44.792   8.029  29.985
    1STR   H16742734  44.895   8.035  29.951
    1STR   H16842735  44.730   8.007  29.898
    1STR   O16942736  44.751   8.151  30.047
    1STR   C17042737  44.764   8.267  29.965
    1STR   H17142738  44.859   8.265  29.911
    1STR   C17242739  44.647   8.273  29.865
    1STR   H17342740  44.551   8.270  29.917
    1STR   H17442741  44.649   8.191  29.794
    1STR   H17542742  44.650   8.366  29.808
    1STR   C17642743  44.765   8.388  30.059
    1STR   H17742744  44.670   8.394  30.113
    1STR   H17842745  44.844   8.376  30.133
    1STR   O17942746  44.786   8.507  29.982
    1STR   C18042747  44.786   8.628  30.057
    1STR   H18142748  44.704   8.627  30.129
    1STR   C18242749  44.920   8.646  30.130
    1STR   H18342750  45.003   8.642  30.060
    1STR   H18442751  44.936   8.569  30.205
    1STR   H18542752  44.924   8.742  30.180
    1STR   C18642753  44.760   8.743  29.958
    1STR   H18742754  44.841   8.747  29.885
    1STR   H18842755  44.669   8.722  29.902
    1STR   O18942756  44.749   8.865  30.029
    1STR   C19042757  44.729   8.981  29.948
    1STR   H19142758  44.795   8.977  29.860
    1STR   C19242759  44.582   8.989  29.903
    1STR   H19342760  44.515   8.988  29.988
    1STR   H19442761  44.555   8.906  29.837
    1STR   H19542762  44.564   9.081  29.847
    1STR   C19642763  44.769   9.103  30.032
    1STR   H19742764  44.704   9.111  30.119
    1STR   H19842765  44.871   9.090  30.068
    1STR   O19942766  44.760   9.221  29.952
    1STR   C20042767  44.791   9.342  30.019
    1STR   H20142768  44.744   9.343  30.118
    1STR   C20242769  44.943   9.358  30.032
    1STR   H20342770  44.991   9.353  29.934
    1STR   H20442771  44.987   9.282  30.095
    1STR   H20542772  44.968   9.455  30.076
    1STR   C20642773  44.729   9.457  29.937
    1STR   H20742774  44.774   9.460  29.838
    1STR   H20842775  44.623   9.437  29.923
    1STR   O20942776  44.749   9.580  30.005
    1STR   C21042777  44.699   9.696  29.938
    1STR   H21142778  44.725   9.691  29.832
    1STR   C21242779  44.547   9.706  29.955
    1STR   H21342780  44.520   9.706  30.061
    1STR   H21442781  44.494   9.623  29.907
    1STR   H21542782  44.509   9.798  29.911
    1STR   C21642783  44.771   9.818  29.998
    1STR   H21742784  44.747   9.827  30.104
    1STR   H21842785  44.879   9.803  29.990
    1STR   O21942786  44.732   9.935  29.927
    1STR   C22042787  44.789  10.057  29.975
    1STR   H22142788  44.786  10.059  30.084
    1STR   C22242789  44.934  10.070  29.925
    1STR   H22342790  44.939  10.063  29.816
    1STR   H22442791  44.999   9.993  29.967
    1STR   H22542792  44.976  10.166  29.954
    1STR   C22642793  44.701  10.172  29.923
    1STR   H22742794  44.703  10.174  29.814
    1STR   H22842795  44.598  10.154  29.953
    1STR   O22942796  44.748  10.295  29.976
    1STR   C23042797  44.678  10.411  29.933
    1STR   H23142798  44.658  10.405  29.825
    1STR   C23242799  44.545  10.423  30.010
    1STR   H23342800  44.562  10.425  30.117
    1STR   H23442801  44.477  10.342  29.987
    1STR   H23542802  44.494  10.516  29.983
    1STR   C23642803  44.769  10.532  29.958
    1STR   H23742804  44.789  10.542  30.064
    1STR   H23842805  44.864  10.516  29.908
    1STR   O23942806  44.706  10.650  29.907
    1STR   C24042807  44.779  10.771  29.927
    1STR   H24142808  44.820  10.774  30.028
    1STR   C24242809  44.892  10.782  29.824
    1STR   H24342810  44.853  10.774  29.722
    1STR   H24442811  44.967  10.704  29.837
    1STR   H24542812  44.943  10.877  29.833
    1STR   C24642813  44.679  10.887  29.913
    1STR   H24742814  44.637  10.889  29.813
    1STR   H24842815  44.597  10.871  29.983
    1STR   O24942816  44.745  11.010  29.942
    1STR   C25042817  44.665  11.127  29.929
    1STR   H25142818  44.604  11.121  29.839
    1STR   C25242819  44.574  11.142  30.053
    1STR   H25342820  44.633  11.143  30.145
    1STR   H25442821  44.501  11.061  30.060
    1STR   H25542822  44.518  11.235  30.048
    1STR   C25642823  44.759  11.248  29.915
    1STR   H25742824  44.821  11.257  30.004
    1STR   H25842825  44.827  11.229  29.831
    1STR   O25942826  44.683  11.366  29.892
    1STR   C26042827  44.760  11.486  29.880
    1STR   H26142828  44.838  11.489  29.956
    1STR   C26242829  44.822  11.494  29.740
    1STR   H26342830  44.746  11.486  29.662
    1STR   H26442831  44.896  11.415  29.723
    1STR   H26542832  44.874  11.589  29.726
    1STR   C26642833  44.665  11.604  29.906
    1STR   H26742834  44.586  11.606  29.830
    1STR   H26842835  44.616  11.590  30.002
    1STR   O26942836  44.738  11.727  29.904
    1STR   C27042837  44.660  11.845  29.923
    1STR   H27142838  44.568  11.840  29.865
    1STR   C27242839  44.627  11.861  30.073
    1STR   H27342840  44.718  11.861  30.133
    1STR   H27442841  44.562  11.781  30.109
    1STR   H27542842  44.575  11.955  30.091
    1STR   C27642843  44.743  11.964  29.871
    1STR   H27742844  44.835  11.973  29.928
    1STR   H27842845  44.771  11.945  29.768
    1STR   O27942846  44.666  12.084  29.881
    1STR   C28042847  44.732  12.203  29.837
    1STR   H28142848  44.834  12.205  29.876
    1STR   C28242849  44.734  12.209  29.684
    1STR   H28342850  44.633  12.201  29.643
    1STR   H28442851  44.794  12.129  29.640
    1STR   H28542852  44.776  12.303  29.649
    1STR   C28642853  44.657  12.324  29.897
    1STR   H28742854  44.554  12.326  29.860
    1STR   H28842855  44.652  12.312  30.005
    1STR   O28942856  44.724  12.445  29.864
    1STR   C29042857  44.663  12.565  29.912
    1STR   H29142858  44.555  12.561  29.895
    1STR   C29242859  44.693  12.582  30.062
    1STR   H29342860  44.800  12.580  30.081
    1STR   H29442861  44.646  12.504  30.122
    1STR   H29542862  44.654  12.677  30.098
    1STR   C29642863  44.720  12.683  29.830
    1STR   H29742864  44.828  12.690  29.845
    1STR   H29842865  44.703  12.663  29.724
    1STR   O29942866  44.657  12.806  29.868
    1STR   C30042867  44.703  12.922  29.800
    1STR   H30142868  44.812  12.920  29.793
    1STR   C30242869  44.641  12.928  29.660
    1STR   H30342870  44.532  12.923  29.664
    1STR   H30442871  44.676  12.847  29.596
    1STR   H30542872  44.668  13.021  29.609
    1STR   C30642873  44.664  13.046  29.883
    1STR   H30742874  44.556  13.054  29.889
    1STR   H30842875  44.700  13.031  29.985
    1STR   O30942876  44.721  13.165  29.827
    1STR    H1R42877  44.583  13.290  29.916
    1STR    H1S42878  44.754  13.391  30.076
    1STR    H1T42879  44.876  13.284  30.010
    1STR    H1U42880  44.739  13.218  30.099
    1STR    H1V42881  44.683  13.394  29.705
    1STR    H1W42882  44.833  13.415  29.791
    1STR    H1X42883  44.580  13.689  29.962
    1STR    H1Y42884  44.578  13.831  30.151
    1STR    H1Z42885  44.625  14.052  30.243
    1STR    H2042886  44.876  14.272  30.146
    1STR    H2142887  44.712  14.332  30.106
    1STR    H2242888  44.742  14.244  30.254
    1STR    H2342889  44.849  14.141  29.756
    1STR    H2742890  44.806  13.926  29.800
    1STR    H2842891  44.745   1.344  30.342
    1STR    H2942892  44.658   1.120  30.334
    1STR    H2A42893  44.717   0.876  30.073
    1STR    H2B42894  44.617   0.925  30.207
    1STR    H2C42895  44.769   0.843  30.239
    1STR   BCK142896  45.133   0.863  45.023
    1STR    O0342897  45.235   0.797  45.006
    1STR    N0442898  45.130   0.989  45.073
    1STR    C0542899  45.232   1.075  45.120
    1STR    C0642900  45.221   1.217  45.098
    1STR    C0742901  45.319   1.311  45.143
    1STR    N0842902  45.302   1.451  45.124
    1STR    C0942903  45.388   1.554  45.146
    1STR    O0A42904  45.504   1.541  45.182
    1STR    O0B42905  45.332   1.677  45.122
    1STR    C0C42906  45.412   1.798  45.134
    1STR    C0D42907  45.496   1.815  45.006
    1STR    C0E42908  45.326   1.925  45.161
    1STR    O0F42909  45.408   2.044  45.166
    1STR    C0G42910  45.340   2.168  45.193
    1STR    C0H42911  45.309   2.178  45.343
    1STR    C0I42912  45.427   2.289  45.149
    1STR    O0J42913  45.356   2.413  45.169
    1STR    C0K42914  45.287  13.317  45.492
    1STR    C0M42915  45.341  13.302  45.349
    1STR    C0N42916  45.185  13.436  45.495
    1STR    O0O42917  45.246  13.561  45.459
    1STR    C0P42918  45.180  13.658  45.388
    1STR    O0Q42919  45.070  13.646  45.335
    1STR    N0R42920  45.255  13.769  45.386
    1STR    C0S42921  45.247  13.898  45.329
    1STR    C0T42922  45.351  13.984  45.370
    1STR    C0U42923  45.365  14.112  45.314
    1STR    C0V42924  45.276  14.158  45.216
    1STR    C0W42925  45.312  14.290  45.148
    1STR    C0X42926  45.163  14.080  45.178
    1STR    N0Y42927  45.075  14.129  45.079
    1STR   BCK242928  45.017  14.251  45.068
    1STR    O1042929  45.013  14.333  45.159
    1STR    C1342930  45.152  13.948  45.234
    1STR    C1442931  45.431   1.259  45.211
    1STR    C1542932  45.443   1.122  45.237
    1STR    C1642933  45.344   1.030  45.196
    1STR    C1742934  45.361   0.888  45.245
    1STR    H1B42935  45.037   1.028  45.073
    1STR    H1C42936  45.136   1.254  45.044
    1STR    H1D42937  45.214   1.484  45.089
    1STR    H1E42938  45.480   1.787  45.218
    1STR    H1F42939  45.433   1.827  44.918
    1STR    H1G42940  45.560   1.903  45.013
    1STR    H1H42941  45.561   1.729  44.990
    1STR    H1I42942  45.273   1.912  45.255
    1STR    H1J42943  45.251   1.936  45.082
    1STR    H1K42944  45.247   2.172  45.136
    1STR    H1M42945  45.400   2.172  45.403
    1STR    H1N42946  45.241   2.100  45.377
    1STR    H1O42947  45.261   2.273  45.366
    1STR    H1P42948  45.521   2.290  45.205
    1STR    H1Q42949  45.453   2.278  45.044
    1STR   C01042950  45.426   2.534  45.138
    1STR   H01142951  45.528   2.530  45.178
    1STR   C01242952  45.432   2.553  44.985
    1STR   H01342953  45.332   2.553  44.942
    1STR   H01442954  45.491   2.475  44.936
    1STR   H01542955  45.479   2.648  44.960
    1STR   C01642956  45.354   2.653  45.205
    1STR   H01742957  45.251   2.659  45.168
    1STR   H01842958  45.347   2.635  45.312
    1STR   O01942959  45.422   2.777  45.179
    1STR   C02042960  45.361   2.895  45.233
    1STR   H02142961  45.253   2.892  45.215
    1STR   C02242962  45.388   2.903  45.384
    1STR   H02342963  45.495   2.901  45.406
    1STR   H02442964  45.341   2.822  45.439
    1STR   H02542965  45.348   2.996  45.426
    1STR   C02642966  45.418   3.019  45.161
    1STR   H02742967  45.526   3.025  45.177
    1STR   H02842968  45.403   3.008  45.054
    1STR   O02942969  45.354   3.138  45.208
    1STR   C03042970  45.401   3.261  45.152
    1STR   H03142971  45.511   3.260  45.148
    1STR   C03242972  45.344   3.279  45.010
    1STR   H03342973  45.235   3.276  45.011
    1STR   H03442974  45.380   3.203  44.941
    1STR   H03542975  45.373   3.376  44.969
    1STR   C03642976  45.359   3.377  45.244
    1STR   H03742977  45.250   3.381  45.250
    1STR   H03842978  45.395   3.357  45.345
    1STR   O03942979  45.411   3.501  45.195
    1STR   C04042980  45.374   3.617  45.270
    1STR   H04142981  45.268   3.613  45.296
    1STR   C04242982  45.459   3.626  45.398
    1STR   H04342983  45.565   3.625  45.375
    1STR   H04442984  45.439   3.544  45.467
    1STR   H04542985  45.438   3.718  45.452
    1STR   C04642986  45.396   3.740  45.180
    1STR   H04742987  45.501   3.748  45.153
    1STR   H04842988  45.340   3.727  45.088
    1STR   O04942989  45.353   3.858  45.248
    1STR   C05042990  45.372   3.981  45.177
    1STR   H05142991  45.471   3.982  45.130
    1STR   C05242992  45.262   3.997  45.071
    1STR   H05342993  45.163   3.991  45.115
    1STR   H05442994  45.269   3.920  44.993
    1STR   H05542995  45.271   4.093  45.021
    1STR   C05642996  45.368   4.096  45.279
    1STR   H05742997  45.270   4.099  45.328
    1STR   H05842998  45.441   4.077  45.357
    1STR   O05942999  45.395   4.219  45.214
    1STR   C06043000  45.390   4.335  45.297
    1STR   H06143001  45.303   4.330  45.363
    1STR   C06243002  45.519   4.346  45.380
    1STR   H06343003  45.607   4.347  45.316
    1STR   H06443004  45.529   4.264  45.451
    1STR   H06543005  45.520   4.438  45.438
    1STR   C06643006  45.372   4.458  45.206
    1STR   H06743007  45.457   4.467  45.139
    1STR   H06843008  45.284   4.443  45.143
    1STR   O06943009  45.357   4.575  45.285
    1STR   C07043010  45.343   4.697  45.212
    1STR   H07143011  45.415   4.699  45.129
    1STR   C07243012  45.200   4.710  45.158
    1STR   H07343013  45.127   4.703  45.239
    1STR   H07443014  45.176   4.633  45.085
    1STR   H07543015  45.186   4.807  45.109
    1STR   C07643016  45.378   4.812  45.307
    1STR   H07743017  45.308   4.814  45.391
    1STR   H07843018  45.477   4.795  45.349
    1STR   O07943019  45.375   4.936  45.236
    1STR   C08043020  45.402   5.052  45.314
    1STR   H08143021  45.349   5.046  45.410
    1STR   C08243022  45.553   5.065  45.339
    1STR   H08343023  45.608   5.066  45.245
    1STR   H08443024  45.593   4.983  45.399
    1STR   H08543025  45.576   5.158  45.391
    1STR   C08643026  45.347   5.173  45.237
    1STR   H08743027  45.399   5.183  45.142
    1STR   H08843028  45.242   5.156  45.215
    1STR   O08943029  45.363   5.291  45.316
    1STR   C09043030  45.319   5.411  45.255
    1STR   H09143031  45.352   5.414  45.150
    1STR   C09243032  45.166   5.422  45.263
    1STR   H09343033  45.132   5.415  45.366
    1STR   H09443034  45.117   5.344  45.205
    1STR   H09543035  45.132   5.518  45.223
    1STR   C09643036  45.388   5.528  45.328
    1STR   H09743037  45.356   5.529  45.433
    1STR   H09843038  45.496   5.512  45.327
    1STR   O09943039  45.355   5.651  45.264
    1STR   C10043040  45.409   5.767  45.325
    1STR   H10143041  45.398   5.761  45.434
    1STR   C10243042  45.557   5.783  45.287
    1STR   H10343043  45.569   5.784  45.179
    1STR   H10443044  45.618   5.702  45.327
    1STR   H10543045  45.597   5.876  45.326
    1STR   C10643046  45.325   5.887  45.276
    1STR   H10743047  45.335   5.897  45.168
    1STR   H10843048  45.220   5.868  45.298
    1STR   O10943049  45.369   6.006  45.342
    1STR   C11043050  45.303   6.125  45.303
    1STR   H11143051  45.291   6.128  45.194
    1STR   C11243052  45.165   6.133  45.371
    1STR   H11343053  45.175   6.126  45.480
    1STR   H11443054  45.098   6.055  45.338
    1STR   H11543055  45.117   6.228  45.349
    1STR   C11643056  45.393   6.243  45.343
    1STR   H11743057  45.406   6.245  45.451
    1STR   H11843058  45.491   6.229  45.299
    1STR   O11943059  45.335   6.365  45.297
    1STR   C12043060  45.407   6.483  45.331
    1STR   H12143061  45.441   6.478  45.435
    1STR   C12243062  45.527   6.500  45.237
    1STR   H12343063  45.495   6.501  45.133
    1STR   H12443064  45.601   6.421  45.250
    1STR   H12543065  45.578   6.595  45.257
    1STR   C12643066  45.309   6.601  45.320
    1STR   H12743067  45.274   6.611  45.217
    1STR   H12843068  45.221   6.581  45.382
    1STR   O12943069  45.374   6.721  45.362
    1STR   C13043070  45.295   6.839  45.353
    1STR   H13143071  45.240   6.840  45.258
    1STR   C13243072  45.196   6.846  45.471
    1STR   H13343073  45.249   6.840  45.566
    1STR   H13443074  45.123   6.766  45.467
    1STR   H13543075  45.141   6.940  45.469
    1STR   C13643076  45.392   6.958  45.354
    1STR   H13743077  45.447   6.961  45.448
    1STR   H13843078  45.465   6.945  45.274
    1STR   O13943079  45.318   7.079  45.335
    1STR   C14043080  45.396   7.198  45.338
    1STR   H14143081  45.468   7.194  45.419
    1STR   C14243082  45.468   7.217  45.203
    1STR   H14343083  45.398   7.216  45.120
    1STR   H14443084  45.542   7.139  45.185
    1STR   H14543085  45.522   7.312  45.201
    1STR   C14643086  45.300   7.315  45.366
    1STR   H14743087  45.227   7.323  45.285
    1STR   H14843088  45.244   7.294  45.457
    1STR   O14943089  45.374   7.436  45.379
    1STR   C15043090  45.296   7.553  45.402
    1STR   H15143091  45.208   7.553  45.337
    1STR   C15243092  45.253   7.559  45.549
    1STR   H15343093  45.339   7.554  45.616
    1STR   H15443094  45.185   7.478  45.576
    1STR   H15543095  45.200   7.652  45.570
    1STR   C15643096  45.383   7.674  45.364
    1STR   H15743097  45.471   7.678  45.428
    1STR   H15843098  45.419   7.661  45.262
    1STR   O15943099  45.306   7.793  45.376
    1STR   C16043100  45.377   7.913  45.347
    1STR   H16143101  45.476   7.911  45.393
    1STR   C16243102  45.389   7.932  45.195
    1STR   H16343103  45.291   7.930  45.147
    1STR   H16443104  45.450   7.855  45.149
    1STR   H16543105  45.435   8.028  45.171
    1STR   C16643106  45.298   8.029  45.412
    1STR   H16743107  45.198   8.035  45.367
    1STR   H16843108  45.284   8.007  45.518
    1STR   O16943109  45.369   8.151  45.394
    1STR   C17043110  45.305   8.267  45.446
    1STR   H17143111  45.199   8.265  45.421
    1STR   C17243112  45.324   8.273  45.598
    1STR   H17343113  45.430   8.270  45.625
    1STR   H17443114  45.274   8.191  45.650
    1STR   H17543115  45.283   8.366  45.638
    1STR   C17643116  45.368   8.389  45.376
    1STR   H17743117  45.474   8.395  45.400
    1STR   H17843118  45.359   8.376  45.268
    1STR   O17943119  45.300   8.507  45.418
    1STR   C18043120  45.351   8.628  45.363
    1STR   H18143121  45.460   8.628  45.365
    1STR   C18243122  45.301   8.646  45.219
    1STR   H18343123  45.192   8.642  45.214
    1STR   H18443124  45.341   8.569  45.152
    1STR   H18543125  45.332   8.742  45.179
    1STR   C18643126  45.302   8.743  45.453
    1STR   H18743127  45.193   8.747  45.452
    1STR   H18843128  45.333   8.722  45.556
    1STR   O18943129  45.359   8.866  45.409
    1STR   C19043130  45.319   8.981  45.482
    1STR   H19143131  45.211   8.978  45.502
    1STR   C19243132  45.397   8.989  45.614
    1STR   H19343133  45.504   8.988  45.596
    1STR   H19443134  45.373   8.907  45.681
    1STR   H19543135  45.373   9.081  45.667
    1STR   C19643136  45.346   9.103  45.393
    1STR   H19743137  45.453   9.111  45.372
    1STR   H19843138  45.296   9.090  45.297
    1STR   O19943139  45.299   9.221  45.458
    1STR   C20043140  45.322   9.343  45.388
    1STR   H20143141  45.422   9.344  45.346
    1STR   C20243142  45.218   9.358  45.275
    1STR   H20343143  45.116   9.353  45.315
    1STR   H20443144  45.228   9.282  45.198
    1STR   H20543145  45.229   9.455  45.226
    1STR   C20643146  45.312   9.457  45.490
    1STR   H20743147  45.211   9.460  45.532
    1STR   H20843148  45.381   9.438  45.572
    1STR   O20943149  45.343   9.581  45.426
    1STR   C21043150  45.334   9.696  45.509
    1STR   H21143151  45.244   9.691  45.570
    1STR   C21243152  45.458   9.706  45.599
    1STR   H21343153  45.550   9.706  45.540
    1STR   H21443154  45.464   9.624  45.670
    1STR   H21543155  45.456   9.798  45.657
    1STR   C21643156  45.322   9.818  45.417
    1STR   H21743157  45.411   9.828  45.355
    1STR   H21843158  45.237   9.804  45.349
    1STR   O21943159  45.303   9.936  45.495
    1STR   C22043160  45.293  10.058  45.421
    1STR   H22143161  45.369  10.060  45.343
    1STR   C22243162  45.153  10.071  45.360
    1STR   H22343163  45.076  10.064  45.437
    1STR   H22443164  45.133   9.994  45.285
    1STR   H22543165  45.141  10.167  45.310
    1STR   C22643166  45.323  10.173  45.519
    1STR   H22743167  45.248  10.175  45.598
    1STR   H22843168  45.419  10.155  45.566
    1STR   O22943169  45.324  10.297  45.448
    1STR   C23043170  45.347  10.413  45.528
    1STR   H23143171  45.289  10.407  45.620
    1STR   C23243172  45.496  10.425  45.560
    1STR   H23343173  45.556  10.425  45.469
    1STR   H23443174  45.532  10.343  45.623
    1STR   H23543175  45.517  10.517  45.614
    1STR   C23643176  45.297  10.534  45.448
    1STR   H23743177  45.353  10.544  45.355
    1STR   H23843178  45.193  10.518  45.420
    1STR   O23943179  45.309  10.652  45.527
    1STR   C24043180  45.268  10.773  45.463
    1STR   H24143181  45.306  10.776  45.361
    1STR   C24243182  45.115  10.783  45.463
    1STR   H24343183  45.075  10.775  45.564
    1STR   H24443184  45.069  10.706  45.402
    1STR   H24543185  45.083  10.879  45.422
    1STR   C24643186  45.332  10.891  45.540
    1STR   H24743187  45.295  10.892  45.643
    1STR   H24843188  45.440  10.875  45.545
    1STR   O24943189  45.302  11.014  45.475
    1STR   C25043190  45.354  11.131  45.539
    1STR   H25143191  45.337  11.125  45.647
    1STR   C25243192  45.504  11.145  45.509
    1STR   H25343193  45.522  11.145  45.401
    1STR   H25443194  45.562  11.064  45.553
    1STR   H25543195  45.543  11.238  45.549
    1STR   C25643196  45.275  11.253  45.486
    1STR   H25743197  45.289  11.262  45.378
    1STR   H25843198  45.168  11.235  45.502
    1STR   O25943199  45.316  11.372  45.552
    1STR   C26043200  45.251  11.492  45.511
    1STR   H26143201  45.245  11.495  45.402
    1STR   C26243202  45.110  11.499  45.572
    1STR   H26343203  45.114  11.490  45.680
    1STR   H26443204  45.045  11.420  45.534
    1STR   H26543205  45.062  11.594  45.548
    1STR   C26643206  45.337  11.612  45.556
    1STR   H26743207  45.345  11.613  45.665
    1STR   H26843208  45.438  11.599  45.517
    1STR   O26943209  45.281  11.736  45.510
    1STR   C27043210  45.352  11.855  45.547
    1STR   H27143211  45.381  11.850  45.652
    1STR   C27243212  45.478  11.868  45.459
    1STR   H27343213  45.452  11.867  45.353
    1STR   H27443214  45.550  11.789  45.477
    1STR   H27543215  45.529  11.963  45.479
    1STR   C27643216  45.258  11.976  45.529
    1STR   H27743217  45.228  11.984  45.425
    1STR   H27843218  45.168  11.958  45.587
    1STR   O27943219  45.322  12.098  45.572
    1STR   C28043220  45.243  12.217  45.561
    1STR   H28143221  45.193  12.220  45.464
    1STR   C28243222  45.138  12.220  45.673
    1STR   H28343223  45.185  12.210  45.771
    1STR   H28443224  45.064  12.141  45.663
    1STR   H28543225  45.083  12.314  45.673
    1STR   C28643226  45.336  12.341  45.569
    1STR   H28743227  45.388  12.342  45.665
    1STR   H28843228  45.413  12.330  45.493
    1STR   O28943229  45.264  12.464  45.550
    1STR   C29043230  45.341  12.585  45.553
    1STR   H29143231  45.409  12.584  45.639
    1STR   C29243232  45.421  12.598  45.423
    1STR   H29343233  45.356  12.592  45.336
    1STR   H29443234  45.497  12.520  45.413
    1STR   H29543235  45.474  12.693  45.419
    1STR   C29643236  45.245  12.707  45.571
    1STR   H29743237  45.173  12.708  45.489
    1STR   H29843238  45.188  12.691  45.662
    1STR   O29943239  45.315  12.833  45.577
    1STR   C30043240  45.233  12.950  45.593
    1STR   H30143241  45.146  12.942  45.528
    1STR   C30243242  45.188  12.959  45.740
    1STR   H30343243  45.273  12.956  45.808
    1STR   H30443244  45.121  12.878  45.767
    1STR   H30543245  45.135  13.053  45.759
    1STR   C30643246  45.311  13.078  45.551
    1STR   H30743247  45.391  13.099  45.622
    1STR   H30843248  45.360  13.055  45.456
    1STR   O30943249  45.226  13.194  45.535
    1STR    H1R43250  45.369  13.341  45.559
    1STR    H1S43251  45.379  13.397  45.311
    1STR    H1T43252  45.262  13.269  45.281
    1STR    H1U43253  45.423  13.231  45.342
    1STR    H1V43254  45.145  13.446  45.596
    1STR    H1W43255  45.099  13.414  45.431
    1STR    H1X43256  45.337  13.751  45.440
    1STR    H1Y43257  45.423  13.953  45.444
    1STR    H1Z43258  45.448  14.173  45.345
    1STR    H2043259  45.284  14.288  45.043
    1STR    H2143260  45.261  14.373  45.197
    1STR    H2243261  45.419  14.308  45.152
    1STR    H2343262  45.054  14.066  45.003
    1STR    H2743263  45.071  13.884  45.204
    1STR    H2843264  45.511   1.322  45.248
    1STR    H2943265  45.529   1.087  45.292
    1STR    H2A43266  45.265   0.840  45.264
    1STR    H2B43267  45.417   0.884  45.338
    1STR    H2C43268  45.416   0.829  45.172
    1STR   BCK143269  44.965  15.895  60.045
    1STR    O0343270  44.843  15.900  60.052
    1STR    N0443271  45.042  16.004  60.027
    1STR    C0543272  45.000  16.119  59.956
    1STR    C0643273  45.001  16.251  60.011
    1STR    C0743274  44.963  16.365  59.932
    1STR    N0843275  44.968  16.498  59.982
    1STR    C0943276  44.913  16.611  59.931
    1STR    O0A43277  44.836  16.612  59.836
    1STR    O0B43278  44.952  16.726  59.996
    1STR    C0C43279  44.902  16.853  59.948
    1STR    C0D43280  44.757  16.874  59.996
    1STR    C0E43281  44.991  16.974  59.989
    1STR    O0F43282  44.938  17.095  59.932
    1STR    C0G43283  45.008  17.216  59.959
    1STR    C0H43284  45.133  17.224  59.870
    1STR    C0I43285  44.915  17.337  59.933
    1STR    O0J43286  44.981  17.460  59.966
    1STR    C0K43287  45.246  28.340  59.748
    1STR    C0M43288  45.113  28.331  59.824
    1STR    C0N43289  45.324  28.466  59.795
    1STR    O0O43290  45.269  28.584  59.734
    1STR    C0P43291  45.230  28.695  59.803
    1STR    O0Q43292  45.228  28.709  59.925
    1STR    N0R43293  45.193  28.785  59.712
    1STR    C0S43294  45.135  28.913  59.708
    1STR    C0T43295  45.113  28.959  59.577
    1STR    C0U43296  45.039  29.075  59.553
    1STR    C0V43297  44.985  29.150  59.658
    1STR    C0W43298  44.882  29.253  59.618
    1STR    C0X43299  45.018  29.118  59.793
    1STR    N0Y43300  44.967  29.191  59.903
    1STR   BCK243301  44.935  29.319  59.931
    1STR    O1043302  44.871  29.343  60.033
    1STR    C1343303  45.091  28.995  59.816
    1STR    C1443304  44.926  16.341  59.798
    1STR    C1543305  44.927  16.212  59.743
    1STR    C1643306  44.966  16.102  59.820
    1STR    C1743307  44.976  15.966  59.751
    1STR    H1B43308  45.141  15.991  60.041
    1STR    H1C43309  45.030  16.265  60.114
    1STR    H1D43310  45.019  16.515  60.067
    1STR    H1E43311  44.902  16.851  59.839
    1STR    H1F43312  44.751  16.879  60.105
    1STR    H1G43313  44.717  16.968  59.956
    1STR    H1H43314  44.692  16.794  59.962
    1STR    H1I43315  45.093  16.957  59.954
    1STR    H1J43316  44.996  16.982  60.098
    1STR    H1K43317  45.038  17.219  60.064
    1STR    H1M43318  45.106  17.219  59.764
    1STR    H1N43319  45.205  17.145  59.891
    1STR    H1O43320  45.185  17.319  59.884
    1STR    H1P43321  44.884  17.338  59.828
    1STR    H1Q43322  44.824  17.325  59.992
    1STR   C01043323  44.907  17.580  59.941
    1STR   H01143324  44.860  17.576  59.843
    1STR   C01243325  44.799  17.599  60.049
    1STR   H01343326  44.843  17.599  60.149
    1STR   H01443327  44.723  17.522  60.046
    1STR   H01543328  44.748  17.695  60.036
    1STR   C01643329  45.006  17.699  59.941
    1STR   H01743330  45.055  17.706  60.038
    1STR   H01843331  45.084  17.680  59.867
    1STR   O01943332  44.938  17.822  59.912
    1STR   C02043333  45.020  17.939  59.913
    1STR   H02143334  45.086  17.938  59.999
    1STR   C02243335  45.102  17.947  59.783
    1STR   H02343336  45.037  17.945  59.696
    1STR   H02443337  45.174  17.866  59.775
    1STR   H02543338  45.159  18.040  59.780
    1STR   C02643339  44.928  18.063  59.928
    1STR   H02743340  44.860  18.069  59.843
    1STR   H02843341  44.866  18.051  60.017
    1STR   O02943342  45.007  18.182  59.937
    1STR   C03043343  44.934  18.304  59.947
    1STR   H03143344  44.851  18.304  59.876
    1STR   C03243345  44.881  18.322  60.090
    1STR   H03343346  44.962  18.318   0.002
    1STR   H03443347  44.808  18.246  60.117
    1STR   H03543348  44.831  18.419  60.100
    1STR   C03643349  45.028  18.419  59.908
    1STR   H03743350  45.112  18.424  59.977
    1STR   H03843351  45.070  18.400  59.809
    1STR   O03943352  44.957  18.543  59.908
    1STR   C04043353  45.034  18.659  59.877
    1STR   H04143354  45.130  18.655  59.930
    1STR   C04243355  45.058  18.668  59.726
    1STR   H04343356  44.963  18.667  59.671
    1STR   H04443357  45.119  18.585  59.688
    1STR   H04543358  45.110  18.760  59.700
    1STR   C04643359  44.957  18.782  59.929
    1STR   H04743360  44.861  18.790  59.878
    1STR   H04843361  44.936  18.769  60.035
    1STR   O04943362  45.035  18.900  59.908
    1STR   C05043363  44.973  19.022  59.948
    1STR   H05143364  44.868  19.023  59.916
    1STR   C05243365  44.982  19.038  60.100
    1STR   H05343366  45.085  19.032  60.134
    1STR   H05443367  44.925  18.962  60.153
    1STR   H05543368  44.942  19.134  60.131
    1STR   C05643369  45.045  19.137  59.875
    1STR   H05743370  45.150  19.140  59.906
    1STR   H05843371  45.044  19.118  59.768
    1STR   O05943372  44.981  19.260  59.905
    1STR   C06043373  45.041  19.376  59.847
    1STR   H06143374  45.149  19.371  59.857
    1STR   C06243375  45.001  19.387  59.699
    1STR   H06343376  44.893  19.387  59.687
    1STR   H06443377  45.041  19.304  59.640
    1STR   H06543378  45.040  19.479  59.655
    1STR   C06643379  44.992  19.498  59.927
    1STR   H06743380  44.884  19.508  59.918
    1STR   H06843381  45.014  19.483  60.032
    1STR   O06943382  45.057  19.616  59.878
    1STR   C07043383  45.017  19.737  59.941
    1STR   H07143384  44.909  19.740  59.954
    1STR   C07243385  45.087  19.750  60.078
    1STR   H07343386  45.195  19.744  60.068
    1STR   H07443387  45.054  19.674  60.148
    1STR   H07543388  45.064  19.847  60.123
    1STR   C07643389  45.056  19.853  59.847
    1STR   H07743390  45.164  19.854  59.834
    1STR   H07843391  45.012  19.835  59.749
    1STR   O07943392  45.010  19.976  59.902
    1STR   C08043393  45.044  20.092  59.826
    1STR   H08143394  45.147  20.086  59.792
    1STR   C08243395  44.949  20.105  59.706
    1STR   H08343396  44.844  20.106  59.738
    1STR   H08443397  44.961  20.024  59.635
    1STR   H08543398  44.967  20.198  59.652
    1STR   C08643399  45.032  20.213  59.920
    1STR   H08743400  44.929  20.223  59.955
    1STR   H08843401  45.094  20.196  60.008
    1STR   O08943402  45.073  20.331  59.851
    1STR   C09043403  45.064  20.452  59.926
    1STR   H09143404  44.969  20.454  59.981
    1STR   C09243405  45.182  20.462  60.024
    1STR   H09343406  45.277  20.455  59.971
    1STR   H09443407  45.180  20.385  60.100
    1STR   H09543408  45.180  20.558  60.076
    1STR   C09643409  45.063  20.568  59.826
    1STR   H09743410  45.157  20.569  59.770
    1STR   H09843411  44.983  20.552  59.753
    1STR   O09943412  45.044  20.691  59.895
    1STR   C10043413  45.046  20.808  59.814
    1STR   H10143414  45.127  20.802  59.741
    1STR   C10243415  44.911  20.823  59.742
    1STR   H10343416  44.828  20.824  59.813
    1STR   H10443417  44.892  20.742  59.671
    1STR   H10543418  44.907  20.916  59.686
    1STR   C10643419  45.074  20.927  59.906
    1STR   H10743420  44.994  20.938  59.980
    1STR   H10843421  45.166  20.909  59.961
    1STR   O10943422  45.086  21.046  59.828
    1STR   C11043423  45.109  21.165  59.902
    1STR   H11143424  45.044  21.168  59.990
    1STR   C11243425  45.256  21.174  59.944
    1STR   H11343426  45.322  21.167  59.857
    1STR   H11443427  45.284  21.095  60.014
    1STR   H11543428  45.277  21.269  59.993
    1STR   C11643429  45.069  21.283  59.811
    1STR   H11743430  45.133  21.285  59.723
    1STR   H11843431  44.967  21.269  59.777
    1STR   O11943432  45.081  21.405  59.884
    1STR   C12043433  45.051  21.523  59.810
    1STR   H12143434  45.096  21.518  59.711
    1STR   C12243435  44.899  21.540  59.799
    1STR   H12343436  44.852  21.541  59.897
    1STR   H12443437  44.853  21.461  59.740
    1STR   H12543438  44.875  21.635  59.750
    1STR   C12643439  45.116  21.641  59.885
    1STR   H12743440  45.072  21.651  59.985
    1STR   H12843441  45.222  21.621  59.899
    1STR   O12943442  45.097  21.761  59.810
    1STR   C13043443  45.149  21.879  59.870
    1STR   H13143444  45.125  21.880  59.977
    1STR   C13243445  45.301  21.886  59.850
    1STR   H13343446  45.327  21.879  59.744
    1STR   H13443447  45.353  21.805  59.902
    1STR   H13543448  45.340  21.980  59.888
    1STR   C13643449  45.078  21.998  59.804
    1STR   H13743450  45.101  22.001  59.698
    1STR   H13843451  44.970  21.985  59.814
    1STR   O13943452  45.119  22.119  59.868
    1STR   C14043453  45.064  22.238  59.813
    1STR   H14143454  45.065  22.234  59.704
    1STR   C14243455  44.920  22.257  59.864
    1STR   H14343456  44.915  22.256  59.973
    1STR   H14443457  44.853  22.179  59.827
    1STR   H14543458  44.879  22.352  59.830
    1STR   C14643459  45.154  22.355  59.857
    1STR   H14743460  45.153  22.363  59.966
    1STR   H14843461  45.256  22.334  59.827
    1STR   O14943462  45.108  22.476  59.797
    1STR   C15043463  45.180  22.593  59.833
    1STR   H15143464  45.201  22.593  59.941
    1STR   C15243465  45.312  22.599  59.754
    1STR   H15343466  45.294  22.594  59.647
    1STR   H15443467  45.380  22.518  59.781
    1STR   H15543468  45.365  22.692  59.775
    1STR   C15643469  45.091  22.714  59.803
    1STR   H15743470  45.069  22.718  59.696
    1STR   H15843471  44.995  22.701  59.854
    1STR   O15943472  45.155  22.833  59.846
    1STR   C16043473  45.084  22.953  59.819
    1STR   H16143474  45.042  22.951  59.719
    1STR   C16243475  44.972  22.972  59.923
    1STR   H16343476  45.012  22.970  60.025
    1STR   H16443477  44.896  22.895  59.915
    1STR   H16543478  44.922  23.068  59.909
    1STR   C16643479  45.186  23.069  59.825
    1STR   H16743480  45.229  23.075  59.925
    1STR   H16843481  45.267  23.047  59.756
    1STR   O16943482  45.121  23.191  59.790
    1STR   C17043483  45.203  23.307  59.795
    1STR   H17143484  45.265  23.305  59.885
    1STR   C17243485  45.292  23.313  59.670
    1STR   H17343486  45.232  23.310  59.579
    1STR   H17443487  45.364  23.231  59.665
    1STR   H17543488  45.350  23.406  59.668
    1STR   C17643489  45.110  23.429  59.804
    1STR   H17743490  45.048  23.435  59.715
    1STR   H17843491  45.043  23.416  59.889
    1STR   O17943492  45.188  23.547  59.819
    1STR   C18043493  45.114  23.668  59.825
    1STR   H18143494  45.035  23.668  59.750
    1STR   C18243495  45.053  23.686  59.965
    1STR   H18343496  45.130  23.682  60.042
    1STR   H18443497  44.979  23.609  59.988
    1STR   H18543498  45.003  23.782  59.974
    1STR   C18643499  45.211  23.783  59.791
    1STR   H18743500  45.290  23.787  59.866
    1STR   H18843501  45.258  23.762  59.695
    1STR   O18943502  45.139  23.906  59.786
    1STR   C19043503  45.218  24.021  59.759
    1STR   H19143504  45.311  24.017  59.817
    1STR   C19243505  45.249  24.029  59.609
    1STR   H19343506  45.158  24.028  59.550
    1STR   H19443507  45.312  23.946  59.576
    1STR   H19543508  45.303  24.121  59.586
    1STR   C19643509  45.138  24.143  59.806
    1STR   H19743510  45.045  24.151  59.750
    1STR   H19843511  45.110  24.130  59.911
    1STR   O19943512  45.217  24.261  59.790
    1STR   C20043513  45.152  24.382  59.827
    1STR   H20143514  45.049  24.383  59.789
    1STR   C20243515  45.153  24.398  59.980
    1STR   H20343516  45.254  24.393  60.019
    1STR   H20443517  45.093  24.322  60.029
    1STR   H20543518  45.111  24.495  60.008
    1STR   C20643519  45.228  24.497  59.758
    1STR   H20743520  45.331  24.500  59.794
    1STR   H20843521  45.232  24.478  59.651
    1STR   O20943522  45.162  24.620  59.784
    1STR   C21043523  45.225  24.736  59.729
    1STR   H21143524  45.333  24.731  59.744
    1STR   C21243525  45.194  24.746  59.578
    1STR   H21343526  45.086  24.746  59.560
    1STR   H21443527  45.237  24.663  59.522
    1STR   H21543528  45.234  24.838  59.537
    1STR   C21643529  45.171  24.858  59.805
    1STR   H21743530  45.064  24.867  59.790
    1STR   H21843531  45.188  24.843  59.912
    1STR   O21943532  45.239  24.975  59.760
    1STR   C22043533  45.196  25.097  59.821
    1STR   H22143534  45.087  25.099  59.828
    1STR   C22243535  45.258  25.110  59.961
    1STR   H22343536  45.367  25.103  59.956
    1STR   H22443537  45.222  25.033  60.029
    1STR   H22543538  45.233  25.206  60.005
    1STR   C22643539  45.240  25.212  59.729
    1STR   H22743540  45.348  25.214  59.721
    1STR   H22843541  45.200  25.194  59.629
    1STR   O22943542  45.191  25.336  59.781
    1STR   C23043543  45.228  25.452  59.707
    1STR   H23143544  45.333  25.446  59.678
    1STR   C23243545  45.140  25.464  59.581
    1STR   H23343546  45.034  25.465  59.608
    1STR   H23443547  45.156  25.382  59.511
    1STR   H23543548  45.161  25.557  59.528
    1STR   C23643549  45.211  25.573  59.799
    1STR   H23743550  45.107  25.583  59.829
    1STR   H23843551  45.269  25.556  59.890
    1STR   O23943552  45.256  25.691  59.733
    1STR   C24043553  45.242  25.812  59.807
    1STR   H24143554  45.145  25.815  59.857
    1STR   C24243555  45.355  25.822  59.911
    1STR   H24343556  45.453  25.814  59.863
    1STR   H24443557  45.349  25.744  59.987
    1STR   H24543558  45.351  25.918  59.963
    1STR   C24643559  45.248  25.929  59.707
    1STR   H24743560  45.344  25.930  59.656
    1STR   H24843561  45.171  25.913  59.630
    1STR   O24943562  45.225  26.052  59.775
    1STR   C25043563  45.230  26.169  59.693
    1STR   H25143564  45.315  26.163  59.625
    1STR   C25243565  45.099  26.183  59.614
    1STR   H25343566  45.013  26.184  59.681
    1STR   H25443567  45.086  26.102  59.542
    1STR   H25543568  45.099  26.276  59.558
    1STR   C25643569  45.253  26.290  59.786
    1STR   H25743570  45.169  26.299  59.856
    1STR   H25843571  45.342  26.271  59.846
    1STR   O25943572  45.268  26.409  59.709
    1STR   C26043573  45.287  26.529  59.784
    1STR   H26143574  45.218  26.531  59.868
    1STR   C26243575  45.432  26.536  59.834
    1STR   H26343576  45.503  26.528  59.751
    1STR   H26443577  45.455  26.457  59.906
    1STR   H26543578  45.451  26.631  59.884
    1STR   C26643579  45.254  26.648  59.691
    1STR   H26743580  45.322  26.648  59.606
    1STR   H26843581  45.153  26.634  59.652
    1STR   O26943582  45.263  26.770  59.764
    1STR   C27043583  45.236  26.889  59.689
    1STR   H27143584  45.286  26.883  59.592
    1STR   C27243585  45.084  26.904  59.668
    1STR   H27343586  45.032  26.903  59.764
    1STR   H27443587  45.043  26.824  59.607
    1STR   H27543588  45.061  26.998  59.619
    1STR   C27643589  45.294  27.009  59.765
    1STR   H27743590  45.246  27.018  59.863
    1STR   H27843591  45.400  26.990  59.784
    1STR   O27943592  45.277  27.130  59.690
    1STR   C28043593  45.328  27.249  59.752
    1STR   H28143594  45.299  27.251  59.857
    1STR   C28243595  45.481  27.253  59.740
    1STR   H28343596  45.512  27.244  59.636
    1STR   H28443597  45.529  27.173  59.797
    1STR   H28543598  45.520  27.347  59.778
    1STR   C28643599  45.263  27.371  59.683
    1STR   H28743600  45.290  27.372  59.577
    1STR   H28843601  45.155  27.360  59.687
    1STR   O28943602  45.303  27.493  59.746
    1STR   C29043603  45.250  27.614  59.691
    1STR   H29143604  45.257  27.611  59.582
    1STR   C29243605  45.102  27.629  59.732
    1STR   H29343606  45.092  27.625  59.841
    1STR   H29443607  45.039  27.551  59.690
    1STR   H29543608  45.062  27.724  59.699
    1STR   C29643609  45.334  27.733  59.742
    1STR   H29743610  45.330  27.737  59.851
    1STR   H29843611  45.438  27.716  59.714
    1STR   O29943612  45.288  27.858  59.687
    1STR   C30043613  45.359  27.976  59.730
    1STR   H30143614  45.378  27.970  59.837
    1STR   C30243615  45.492  27.984  59.654
    1STR   H30343616  45.477  27.980  59.546
    1STR   H30443617  45.560  27.903  59.680
    1STR   H30543618  45.544  28.077  59.676
    1STR   C30643619  45.271  28.101  59.704
    1STR   H30743620  45.260  28.116  59.596
    1STR   H30843621  45.172  28.079  59.742
    1STR   O30943622  45.323  28.220  59.767
    1STR    H1R43623  45.227  28.351  59.641
    1STR    H1S43624  45.059  28.425  59.819
    1STR    H1T43625  45.131  28.309  59.929
    1STR    H1U43626  45.047  28.254  59.784
    1STR    H1V43627  45.428  28.459  59.762
    1STR    H1W43628  45.327  28.474  59.904
    1STR    H1X43629  45.211  28.744  59.623
    1STR    H1Y43630  45.148  28.902  59.492
    1STR    H1Z43631  45.018  29.102  59.451
    1STR    H2043632  44.811  29.272  59.698
    1STR    H2143633  44.931  29.346  59.588
    1STR    H2243634  44.824  29.218  59.533
    1STR    H2343635  44.948  29.135  59.985
    1STR    H2743636  45.110  28.962  59.917
    1STR    H2843637  44.898  16.420  59.730
    1STR    H2943638  44.899  16.199  59.640
    1STR    H2A43639  45.069  15.916  59.777
    1STR    H2B43640  44.973  15.976  59.643
    1STR    H2C43641  44.892  15.903  59.782
    1STR   BCK143642  45.020  15.896  15.031
    1STR    O0343643  45.092  15.829  15.104
    1STR    N0443644  44.993  16.028  15.050
    1STR    C0543645  45.020  16.116  15.159
    1STR    C0643646  45.049  16.255  15.137
    1STR    C0743647  45.068  16.350  15.244
    1STR    N0843648  45.091  16.488  15.220
    1STR    C0943649  45.084  16.594  15.305
    1STR    O0A43650  45.051  16.585  15.423
    1STR    O0B43651  45.116  16.715  15.247
    1STR    C0C43652  45.121  16.836  15.328
    1STR    C0D43653  45.257  16.846  15.398
    1STR    C0E43654  45.092  16.965  15.246
    1STR    O0F43655  45.097  17.083  15.328
    1STR    C0G43656  45.065  17.208  15.264
    1STR    C0H43657  44.913  17.220  15.247
    1STR    C0I43658  45.118  17.329  15.347
    1STR    O0J43659  45.092  17.453  15.279
    1STR    C0K43660  44.719  28.342  15.257
    1STR    C0M43661  44.871  28.345  15.282
    1STR    C0N43662  44.678  28.460  15.164
    1STR    O0O43663  44.698  28.586  15.229
    1STR    C0P43664  44.735  28.696  15.158
    1STR    O0Q43665  44.761  28.697  15.038
    1STR    N0R43666  44.740  28.803  15.239
    1STR    C0S43667  44.783  28.935  15.218
    1STR    C0T43668  44.813  29.011  15.333
    1STR    C0U43669  44.867  29.140  15.322
    1STR    C0V43670  44.890  29.199  15.195
    1STR    C0W43671  44.970  29.328  15.193
    1STR    C0X43672  44.851  29.130  15.077
    1STR    N0Y43673  44.876  29.177  14.947
    1STR   BCK243674  44.851  29.289  14.876
    1STR    O1043675  44.883  29.290  14.758
    1STR    C1343676  44.801  28.997  15.091
    1STR    C1443677  45.063  16.298  15.375
    1STR    C1543678  45.032  16.164  15.400
    1STR    C1643679  45.006  16.074  15.295
    1STR    C1743680  44.957  15.936  15.336
    1STR    H1B43681  44.945  16.069  14.972
    1STR    H1C43682  45.056  16.290  15.036
    1STR    H1D43683  45.116  16.517  15.127
    1STR    H1E43684  45.043  16.830  15.405
    1STR    H1F43685  45.339  16.853  15.326
    1STR    H1G43686  45.262  16.934  15.462
    1STR    H1H43687  45.276  16.759  15.461
    1STR    H1I43688  44.993  16.955  15.200
    1STR    H1J43689  45.164  16.974  15.165
    1STR    H1K43690  45.114  17.212  15.167
    1STR    H1M43691  44.862  17.213  15.343
    1STR    H1N43692  44.872  17.143  15.182
    1STR    H1O43693  44.886  17.316  15.203
    1STR    H1P43694  45.071  17.330  15.446
    1STR    H1Q43695  45.225  17.317  15.364
    1STR   C01043696  45.129  17.574  15.346
    1STR   H01143697  45.098  17.570  15.451
    1STR   C01243698  45.282  17.593  15.339
    1STR   H01343699  45.316  17.593  15.236
    1STR   H01443700  45.336  17.515  15.393
    1STR   H01543701  45.311  17.688  15.383
    1STR   C01643702  45.056  17.694  15.280
    1STR   H01743703  45.084  17.700  15.175
    1STR   H01843704  44.949  17.675  15.283
    1STR   O01943705  45.087  17.817  15.346
    1STR   C02043706  45.028  17.935  15.290
    1STR   H02143707  45.037  17.933  15.181
    1STR   C02243708  44.880  17.943  15.330
    1STR   H02343709  44.868  17.941  15.438
    1STR   H02443710  44.821  17.862  15.288
    1STR   H02543711  44.836  18.036  15.294
    1STR   C02643712  45.105  18.059  15.341
    1STR   H02743713  45.099  18.065  15.449
    1STR   H02843714  45.211  18.048  15.316
    1STR   O02943715  45.053  18.178  15.281
    1STR   C03043716  45.113  18.301  15.323
    1STR   H03143717  45.126  18.301  15.432
    1STR   C03243718  45.249  18.320  15.254
    1STR   H03343719  45.238  18.316  15.145
    1STR   H03443720  45.321  18.244  15.283
    1STR   H03543721  45.292  18.417  15.279
    1STR   C03643722  45.017  18.417  15.288
    1STR   H03743723  45.001  18.421  15.180
    1STR   H03843724  44.920  18.398  15.334
    1STR   O03943725  45.070  18.541  15.336
    1STR   C04043726  44.992  18.657  15.306
    1STR   H04143727  44.957  18.653  15.203
    1STR   C04243728  44.872  18.666  15.402
    1STR   H04343729  44.905  18.665  15.506
    1STR   H04443730  44.802  18.584  15.388
    1STR   H04543731  44.817  18.758  15.385
    1STR   C04643732  45.084  18.780  15.320
    1STR   H04743733  45.120  18.788  15.423
    1STR   H04843734  45.171  18.767  15.256
    1STR   O04943735  45.012  18.898  15.283
    1STR   C05043736  45.085  19.021  15.296
    1STR   H05143737  45.140  19.022  15.390
    1STR   C05243738  45.181  19.037  15.177
    1STR   H05343739  45.128  19.031  15.082
    1STR   H05443740  45.259  18.961  15.177
    1STR   H05543741  45.232  19.133  15.182
    1STR   C05643742  44.983  19.136  15.300
    1STR   H05743743  44.926  19.139  15.207
    1STR   H05843744  44.911  19.117  15.381
    1STR   O05943745  45.051  19.260  15.322
    1STR   C06043746  44.967  19.375  15.324
    1STR   H06143747  44.894  19.370  15.243
    1STR   C06243748  44.896  19.386  15.460
    1STR   H06343749  44.968  19.387  15.542
    1STR   H06443750  44.827  19.304  15.477
    1STR   H06543751  44.838  19.478  15.466
    1STR   C06643752  45.057  19.498  15.298
    1STR   H06743753  45.131  19.507  15.378
    1STR   H06843754  45.111  19.483  15.205
    1STR   O06943755  44.976  19.615  15.290
    1STR   C07043756  45.048  19.737  15.271
    1STR   H07143757  45.137  19.739  15.335
    1STR   C07243758  45.089  19.750  15.123
    1STR   H07343759  45.002  19.743  15.058
    1STR   H07443760  45.160  19.674  15.093
    1STR   H07543761  45.137  19.847  15.105
    1STR   C07643762  44.956  19.852  15.314
    1STR   H07743763  44.867  19.854  15.251
    1STR   H07843764  44.923  19.835  15.416
    1STR   O07943765  45.027  19.976  15.305
    1STR   C08043766  44.951  20.092  15.338
    1STR   H08143767  44.851  20.086  15.294
    1STR   C08243768  44.940  20.105  15.491
    1STR   H08343769  45.038  20.106  15.537
    1STR   H08443770  44.883  20.023  15.535
    1STR   H08543771  44.889  20.198  15.518
    1STR   C08643772  45.023  20.213  15.276
    1STR   H08743773  45.122  20.223  15.320
    1STR   H08843774  45.036  20.196  15.170
    1STR   O08943775  44.946  20.331  15.299
    1STR   C09043776  45.004  20.451  15.251
    1STR   H09143777  45.110  20.454  15.274
    1STR   C09243778  44.983  20.462  15.099
    1STR   H09343779  44.877  20.455  15.073
    1STR   H09443780  45.036  20.384  15.044
    1STR   H09543781  45.019  20.558  15.061
    1STR   C09643782  44.936  20.568  15.325
    1STR   H09743783  44.829  20.569  15.303
    1STR   H09843784  44.946  20.552  15.432
    1STR   O09943785  44.997  20.691  15.286
    1STR   C10043786  44.941  20.807  15.345
    1STR   H10143787  44.832  20.802  15.345
    1STR   C10243788  44.992  20.823  15.490
    1STR   H10343789  45.101  20.824  15.493
    1STR   H10443790  44.958  20.742  15.554
    1STR   H10543791  44.957  20.916  15.533
    1STR   C10643792  44.982  20.927  15.258
    1STR   H10743793  45.091  20.937  15.258
    1STR   H10843794  44.952  20.908  15.155
    1STR   O10943795  44.921  21.046  15.308
    1STR   C11043796  44.954  21.165  15.238
    1STR   H11143797  45.061  21.168  15.217
    1STR   C11243798  44.874  21.174  15.107
    1STR   H11343799  44.767  21.167  15.127
    1STR   H11443800  44.901  21.095  15.037
    1STR   H11543801  44.892  21.269  15.057
    1STR   C11643802  44.922  21.283  15.331
    1STR   H11743803  44.815  21.285  15.354
    1STR   H11843804  44.974  21.269  15.426
    1STR   O11943805  44.963  21.405  15.270
    1STR   C12043806  44.935  21.523  15.344
    1STR   H12143807  44.834  21.518  15.387
    1STR   C12243808  45.039  21.540  15.456
    1STR   H12343809  45.140  21.541  15.415
    1STR   H12443810  45.033  21.461  15.530
    1STR   H12543811  45.024  21.635  15.508
    1STR   C12643812  44.938  21.641  15.246
    1STR   H12743813  45.037  21.651  15.202
    1STR   H12843814  44.868  21.621  15.164
    1STR   O12943815  44.901  21.761  15.314
    1STR   C13043816  44.903  21.879  15.235
    1STR   H13143817  44.993  21.880  15.172
    1STR   C13243818  44.777  21.886  15.147
    1STR   H13343819  44.687  21.879  15.207
    1STR   H13443820  44.774  21.806  15.073
    1STR   H13543821  44.774  21.980  15.092
    1STR   C13643822  44.911  21.998  15.331
    1STR   H13743823  44.822  22.001  15.394
    1STR   H13843824  44.997  21.985  15.397
    1STR   O13943825  44.923  22.119  15.256
    1STR   C14043826  44.927  22.238  15.334
    1STR   H14143827  44.853  22.234  15.413
    1STR   C14243828  45.068  22.257  15.394
    1STR   H14343829  45.144  22.256  15.316
    1STR   H14443830  45.092  22.179  15.466
    1STR   H14543831  45.075  22.352  15.447
    1STR   C14643832  44.891  22.355  15.240
    1STR   H14743833  44.965  22.363  15.160
    1STR   H14843834  44.795  22.334  15.193
    1STR   O14943835  44.884  22.476  15.316
    1STR   C15043836  44.855  22.593  15.240
    1STR   H15143837  44.912  22.593  15.147
    1STR   C15243838  44.704  22.599  15.210
    1STR   H15343839  44.645  22.594  15.301
    1STR   H15443840  44.672  22.518  15.145
    1STR   H15543841  44.679  22.692  15.159
    1STR   C15643842  44.900  22.713  15.323
    1STR   H15743843  44.844  22.718  15.417
    1STR   H15843844  45.005  22.701  15.350
    1STR   O15943845  44.882  22.833  15.248
    1STR   C16043846  44.916  22.953  15.315
    1STR   H16143847  44.880  22.951  15.418
    1STR   C16243848  45.069  22.972  15.314
    1STR   H16343849  45.108  22.970  15.212
    1STR   H16443850  45.120  22.895  15.371
    1STR   H16543851  45.096  23.068  15.358
    1STR   C16643852  44.845  23.069  15.243
    1STR   H16743853  44.881  23.075  15.140
    1STR   H16843854  44.738  23.047  15.239
    1STR   O16943855  44.869  23.191  15.312
    1STR   C17043856  44.812  23.307  15.253
    1STR   H17143857  44.827  23.305  15.145
    1STR   C17243858  44.662  23.313  15.285
    1STR   H17343859  44.644  23.310  15.393
    1STR   H17443860  44.606  23.231  15.240
    1STR   H17543861  44.618  23.406  15.247
    1STR   C17643862  44.887  23.429  15.309
    1STR   H17743863  44.872  23.434  15.417
    1STR   H17843864  44.994  23.416  15.291
    1STR   O17943865  44.839  23.547  15.245
    1STR   C18043866  44.898  23.668  15.291
    1STR   H18143867  44.905  23.667  15.400
    1STR   C18243868  45.038  23.686  15.229
    1STR   H18343869  45.033  23.682  15.120
    1STR   H18443870  45.107  23.609  15.263
    1STR   H18543871  45.080  23.782  15.257
    1STR   C18643872  44.804  23.783  15.251
    1STR   H18743873  44.795  23.787  15.142
    1STR   H18843874  44.704  23.762  15.290
    1STR   O18943875  44.853  23.906  15.303
    1STR   C19043876  44.777  24.021  15.269
    1STR   H19143877  44.748  24.017  15.164
    1STR   C19243878  44.652  24.029  15.359
    1STR   H19343879  44.679  24.028  15.464
    1STR   H19443880  44.583  23.946  15.341
    1STR   H19543881  44.597  24.121  15.340
    1STR   C19643882  44.868  24.143  15.289
    1STR   H19743883  44.898  24.151  15.394
    1STR   H19843884  44.959  24.130  15.231
    1STR   O19943885  44.799  24.261  15.248
    1STR   C20043886  44.871  24.382  15.264
    1STR   H20143887  44.922  24.383  15.361
    1STR   C20243888  44.974  24.398  15.151
    1STR   H20343889  44.926  24.393  15.053
    1STR   H20443890  45.051  24.322  15.155
    1STR   H20543891  45.024  24.495  15.158
    1STR   C20643892  44.769  24.497  15.263
    1STR   H20743893  44.717  24.500  15.167
    1STR   H20843894  44.693  24.478  15.340
    1STR   O20943895  44.835  24.620  15.289
    1STR   C21043896  44.751  24.736  15.287
    1STR   H21143897  44.682  24.731  15.203
    1STR   C21243898  44.673  24.746  15.419
    1STR   H21343899  44.740  24.746  15.505
    1STR   H21443900  44.603  24.664  15.431
    1STR   H21543901  44.615  24.838  15.422
    1STR   C21643902  44.842  24.858  15.267
    1STR   H21743903  44.912  24.867  15.350
    1STR   H21843904  44.902  24.843  15.177
    1STR   O21943905  44.762  24.975  15.255
    1STR   C22043906  44.835  25.097  15.239
    1STR   H22143907  44.920  25.099  15.307
    1STR   C22243908  44.884  25.110  15.094
    1STR   H22343909  44.801  25.103  15.024
    1STR   H22443910  44.956  25.033  15.067
    1STR   H22543911  44.932  25.207  15.078
    1STR   C22643912  44.741  25.212  15.277
    1STR   H22743913  44.655  25.214  15.210
    1STR   H22843914  44.702  25.194  15.377
    1STR   O22943915  44.812  25.336  15.272
    1STR   C23043916  44.734  25.451  15.302
    1STR   H23143917  44.637  25.446  15.252
    1STR   C23243918  44.715  25.464  15.454
    1STR   H23343919  44.811  25.465  15.505
    1STR   H23443920  44.655  25.382  15.494
    1STR   H23543921  44.663  25.556  15.478
    1STR   C23643922  44.809  25.573  15.245
    1STR   H23743923  44.906  25.583  15.293
    1STR   H23843924  44.828  25.556  15.138
    1STR   O23943925  44.731  25.691  15.264
    1STR   C24043926  44.791  25.812  15.218
    1STR   H24143927  44.896  25.815  15.246
    1STR   C24243928  44.778  25.822  15.065
    1STR   H24343929  44.673  25.814  15.034
    1STR   H24443930  44.834  25.744  15.013
    1STR   H24543931  44.816  25.918  15.029
    1STR   C24643932  44.720  25.929  15.288
    1STR   H24743933  44.614  25.930  15.261
    1STR   H24843934  44.725  25.913  15.396
    1STR   O24943935  44.782  26.052  15.253
    1STR   C25043936  44.723  26.169  15.309
    1STR   H25143937  44.615  26.163  15.303
    1STR   C25243938  44.766  26.183  15.456
    1STR   H25343939  44.875  26.183  15.466
    1STR   H25443940  44.728  26.102  15.519
    1STR   H25543941  44.729  26.276  15.499
    1STR   C25643942  44.770  26.289  15.226
    1STR   H25743943  44.878  26.299  15.231
    1STR   H25843944  44.744  26.271  15.121
    1STR   O25943945  44.706  26.408  15.273
    1STR   C26043946  44.742  26.528  15.204
    1STR   H26143947  44.850  26.531  15.189
    1STR   C26243948  44.669  26.535  15.069
    1STR   H26343949  44.561  26.527  15.082
    1STR   H26443950  44.701  26.457  15.001
    1STR   H26543951  44.689  26.631  15.020
    1STR   C26643952  44.704  26.647  15.295
    1STR   H26743953  44.597  26.648  15.312
    1STR   H26843954  44.752  26.634  15.392
    1STR   O26943955  44.747  26.770  15.235
    1STR   C27043956  44.716  26.889  15.309
    1STR   H27143957  44.614  26.883  15.347
    1STR   C27243958  44.814  26.904  15.426
    1STR   H27343959  44.917  26.903  15.391
    1STR   H27443960  44.803  26.824  15.500
    1STR   H27543961  44.798  26.998  15.479
    1STR   C27643962  44.725  27.009  15.213
    1STR   H27743963  44.826  27.018  15.174
    1STR   H27843964  44.660  26.990  15.128
    1STR   O27943965  44.687  27.130  15.280
    1STR   C28043966  44.692  27.249  15.201
    1STR   H28143967  44.784  27.251  15.143
    1STR   C28243968  44.571  27.253  15.106
    1STR   H28343969  44.477  27.244  15.161
    1STR   H28443970  44.573  27.174  15.032
    1STR   H28543971  44.568  27.347  15.051
    1STR   C28643972  44.692  27.371  15.296
    1STR   H28743973  44.601  27.372  15.355
    1STR   H28843974  44.775  27.359  15.366
    1STR   O28943975  44.706  27.493  15.222
    1STR   C29043976  44.708  27.613  15.300
    1STR   H29143977  44.629  27.610  15.376
    1STR   C29243978  44.845  27.628  15.368
    1STR   H29343979  44.926  27.625  15.295
    1STR   H29443980  44.864  27.550  15.442
    1STR   H29543981  44.852  27.723  15.421
    1STR   C29643982  44.679  27.733  15.206
    1STR   H29743983  44.756  27.738  15.129
    1STR   H29843984  44.584  27.714  15.156
    1STR   O29943985  44.674  27.857  15.278
    1STR   C30043986  44.647  27.974  15.199
    1STR   H30143987  44.706  27.970  15.108
    1STR   C30243988  44.497  27.978  15.165
    1STR   H30343989  44.436  27.973  15.254
    1STR   H30443990  44.468  27.897  15.099
    1STR   H30543991  44.473  28.071  15.113
    1STR   C30643992  44.690  28.100  15.278
    1STR   H30743993  44.628  28.111  15.367
    1STR   H30843994  44.792  28.085  15.312
    1STR   O30943995  44.682  28.218  15.196
    1STR    H1R43996  44.665  28.353  15.351
    1STR    H1S43997  44.902  28.442  15.319
    1STR    H1T43998  44.926  28.326  15.190
    1STR    H1U43999  44.902  28.271  15.356
    1STR    H1V44000  44.573  28.452  15.137
    1STR    H1W44001  44.734  28.454  15.070
    1STR    H1X44002  44.713  28.777  15.332
    1STR    H1Y44003  44.800  28.969  15.431
    1STR    H1Z44004  44.894  29.192  15.412
    1STR    H2044005  45.059  29.316  15.131
    1STR    H2144006  44.912  29.411  15.154
    1STR    H2244007  45.003  29.357  15.292
    1STR    H2344008  44.916  29.108  14.886
    1STR    H2744009  44.777  28.941  15.002
    1STR    H2844010  45.081  16.360  15.462
    1STR    H2944011  45.025  16.131  15.502
    1STR    H2A44012  44.887  15.896  15.264
    1STR    H2B44013  44.906  15.940  15.432
    1STR    H2C44014  45.042  15.868  15.346
    1STR   BCK144015  45.082  15.902  29.892
    1STR    O0344016  45.155  15.843  29.814
    1STR    N0444017  45.105  16.025  29.944
    1STR    C0544018  45.209  16.118  29.924
    1STR    C0644019  45.179  16.258  29.924
    1STR    C0744020  45.279  16.359  29.902
    1STR    N0844021  45.247  16.497  29.909
    1STR    C0944022  45.315  16.603  29.860
    1STR    O0A44023  45.416  16.594  29.790
    1STR    O0B44024  45.259  16.723  29.896
    1STR    C0C44025  45.314  16.846  29.844
    1STR    C0D44026  45.261  16.868  29.701
    1STR    C0E44027  45.282  16.969  29.934
    1STR    O0F44028  45.335  17.090  29.876
    1STR    C0G44029  45.313  17.212  29.949
    1STR    C0H44030  45.412  17.220  30.066
    1STR    C0I44031  45.331  17.333  29.854
    1STR    O0J44032  45.302  17.456  29.923
    1STR    C0K44033  45.522  28.357  30.146
    1STR    C0M44034  45.435  28.331  30.021
    1STR    C0N44035  45.471  28.487  30.216
    1STR    O0O44036  45.489  28.603  30.132
    1STR    C0P44037  45.399  28.706  30.125
    1STR    O0Q44038  45.290  28.710  30.180
    1STR    N0R44039  45.450  28.804  30.050
    1STR    C0S44040  45.410  28.933  30.009
    1STR    C0T44041  45.516  29.016  29.969
    1STR    C0U44042  45.492  29.145  29.921
    1STR    C0V44043  45.362  29.198  29.911
    1STR    C0W44044  45.352  29.340  29.861
    1STR    C0X44045  45.250  29.119  29.950
    1STR    N0Y44046  45.115  29.164  29.953
    1STR   BCK244047  45.029  29.259  29.908
    1STR    O1044048  44.916  29.258  29.955
    1STR    C1344049  45.278  28.986  30.000
    1STR    C1444050  45.411  16.315  29.880
    1STR    C1544051  45.444  16.179  29.885
    1STR    C1644052  45.346  16.081  29.911
    1STR    C1744053  45.397  15.939  29.932
    1STR    H1B44054  45.029  16.057  30.003
    1STR    H1C44055  45.077  16.289  29.939
    1STR    H1D44056  45.163  16.524  29.956
    1STR    H1E44057  45.423  16.837  29.840
    1STR    H1F44058  45.152  16.877  29.700
    1STR    H1G44059  45.302  16.959  29.658
    1STR    H1H44060  45.288  16.785  29.636
    1STR    H1I44061  45.325  16.952  30.033
    1STR    H1J44062  45.174  16.978  29.947
    1STR    H1K44063  45.210  17.214  29.986
    1STR    H1M44064  45.515  17.215  30.031
    1STR    H1N44065  45.397  17.141  30.139
    1STR    H1O44066  45.400  17.315  30.119
    1STR    H1P44067  45.432  17.335  29.814
    1STR    H1Q44068  45.264  17.322  29.768
    1STR   C01044069  45.320  17.577  29.848
    1STR   H01144070  45.414  17.573  29.792
    1STR   C01244071  45.203  17.596  29.750
    1STR   H01344072  45.107  17.595  29.803
    1STR   H01444073  45.199  17.518  29.674
    1STR   H01544074  45.211  17.691  29.698
    1STR   C01644075  45.328  17.696  29.947
    1STR   H01744076  45.236  17.702  30.005
    1STR   H01844077  45.409  17.677  30.017
    1STR   O01944078  45.351  17.819  29.877
    1STR   C02044079  45.357  17.937  29.958
    1STR   H02144080  45.276  17.935  30.032
    1STR   C02244081  45.493  17.945  30.029
    1STR   H02344082  45.575  17.943  29.957
    1STR   H02444083  45.508  17.863  30.099
    1STR   H02544084  45.501  18.038  30.085
    1STR   C02644085  45.334  18.061  29.868
    1STR   H02744086  45.413  18.067  29.793
    1STR   H02844087  45.240  18.049  29.815
    1STR   O02944088  45.332  18.180  29.948
    1STR   C03044089  45.316  18.302  29.876
    1STR   H03144090  45.380  18.302  29.787
    1STR   C03244091  45.169  18.321  29.835
    1STR   H03344092  45.104  18.317  29.923
    1STR   H03444093  45.136  18.245  29.765
    1STR   H03544094  45.154  18.417  29.787
    1STR   C03644095  45.364  18.418  29.966
    1STR   H03744096  45.302  18.422  30.056
    1STR   H03844097  45.466  18.398  29.999
    1STR   O03944098  45.357  18.542  29.895
    1STR   C04044099  45.394  18.658  29.970
    1STR   H04144100  45.350  18.654  30.070
    1STR   C04244101  45.547  18.666  29.980
    1STR   H04344102  45.593  18.666  29.882
    1STR   H04444103  45.589  18.584  30.038
    1STR   H04544104  45.577  18.759  30.030
    1STR   C04644105  45.336  18.781  29.897
    1STR   H04744106  45.379  18.789  29.797
    1STR   H04844107  45.229  18.768  29.885
    1STR   O04944108  45.364  18.899  29.973
    1STR   C05044109  45.319  19.021  29.915
    1STR   H05144110  45.342  19.022  29.808
    1STR   C05244111  45.168  19.037  29.937
    1STR   H05344112  45.142  19.031  30.043
    1STR   H05444113  45.110  18.961  29.884
    1STR   H05544114  45.133  19.134  29.900
    1STR   C05644115  45.397  19.136  29.981
    1STR   H05744116  45.376  19.139  30.088
    1STR   H05844117  45.504  19.117  29.970
    1STR   O05944118  45.362  19.260  29.919
    1STR   C06044119  45.425  19.376  29.974
    1STR   H06144120  45.424  19.370  30.083
    1STR   C06244121  45.569  19.386  29.922
    1STR   H06344122  45.571  19.387  29.813
    1STR   H06444123  45.631  19.304  29.957
    1STR   H06544124  45.615  19.479  29.956
    1STR   C06644125  45.341  19.498  29.932
    1STR   H06744126  45.340  19.507  29.824
    1STR   H06844127  45.238  19.483  29.964
    1STR   O06944128  45.395  19.615  29.992
    1STR   C07044129  45.329  19.737  29.959
    1STR   H07144130  45.307  19.739  29.852
    1STR   C07244131  45.199  19.750  30.040
    1STR   H07344132  45.218  19.744  30.147
    1STR   H07444133  45.126  19.674  30.014
    1STR   H07544134  45.152  19.847  30.021
    1STR   C07644135  45.426  19.852  29.989
    1STR   H07744136  45.449  19.854  30.096
    1STR   H07844137  45.520  19.835  29.936
    1STR   O07944138  45.368  19.976  29.948
    1STR   C08044139  45.446  20.092  29.975
    1STR   H08144140  45.489  20.086  30.075
    1STR   C08244141  45.557  20.105  29.869
    1STR   H08344142  45.516  20.106  29.768
    1STR   H08444143  45.629  20.023  29.875
    1STR   H08544144  45.613  20.198  29.883
    1STR   C08644145  45.351  20.213  29.971
    1STR   H08744146  45.307  20.223  29.872
    1STR   H08844147  45.270  20.196  30.041
    1STR   O08944148  45.424  20.331  30.007
    1STR   C09044149  45.348  20.451  30.003
    1STR   H09144150  45.285  20.454  29.914
    1STR   C09244151  45.261  20.462  30.130
    1STR   H09344152  45.322  20.455  30.220
    1STR   H09444153  45.185  20.384  30.134
    1STR   H09544154  45.209  20.558  30.133
    1STR   C09644155  45.448  20.568  29.994
    1STR   H09744156  45.512  20.569  30.083
    1STR   H09844157  45.513  20.552  29.908
    1STR   O09944158  45.377  20.691  29.981
    1STR   C10044159  45.458  20.807  29.976
    1STR   H10144160  45.538  20.802  30.050
    1STR   C10244161  45.518  20.823  29.835
    1STR   H10344162  45.440  20.824  29.759
    1STR   H10444163  45.587  20.742  29.810
    1STR   H10544164  45.574  20.916  29.827
    1STR   C10644165  45.369  20.927  30.012
    1STR   H10744166  45.289  20.937  29.939
    1STR   H10844167  45.322  20.909  30.108
    1STR   O10944168  45.448  21.046  30.017
    1STR   C11044169  45.376  21.165  30.046
    1STR   H11144170  45.283  21.168  29.989
    1STR   C11244171  45.347  21.174  30.197
    1STR   H11344172  45.439  21.167  30.255
    1STR   H11444173  45.280  21.095  30.230
    1STR   H11544174  45.300  21.269  30.221
    1STR   C11644175  45.463  21.283  29.999
    1STR   H11744176  45.557  21.285  30.054
    1STR   H11844177  45.488  21.269  29.894
    1STR   O11944178  45.391  21.405  30.017
    1STR   C12044179  45.462  21.523  29.981
    1STR   H12144180  45.565  21.518  30.017
    1STR   C12244181  45.461  21.540  29.828
    1STR   H12344182  45.359  21.541  29.790
    1STR   H12444183  45.515  21.461  29.777
    1STR   H12544184  45.507  21.635  29.800
    1STR   C12644185  45.394  21.641  30.052
    1STR   H12744186  45.291  21.651  30.017
    1STR   H12844187  45.389  21.621  30.159
    1STR   O12944188  45.467  21.761  30.026
    1STR   C13044189  45.411  21.879  30.083
    1STR   H13144190  45.303  21.880  30.069
    1STR   C13244191  45.445  21.886  30.233
    1STR   H13344192  45.552  21.880  30.249
    1STR   H13444193  45.397  21.806  30.289
    1STR   H13544194  45.410  21.980  30.276
    1STR   C13644195  45.471  21.998  30.007
    1STR   H13744196  45.579  22.001  30.020
    1STR   H13844197  45.452  21.985  29.900
    1STR   O13944198  45.411  22.119  30.054
    1STR   C14044199  45.460  22.238  29.993
    1STR   H14144200  45.569  22.234  29.985
    1STR   C14244201  45.398  22.257  29.854
    1STR   H14344202  45.289  22.256  29.860
    1STR   H14444203  45.428  22.179  29.785
    1STR   H14544204  45.428  22.352  29.811
    1STR   C14644205  45.424  22.355  30.087
    1STR   H14744206  45.316  22.363  30.096
    1STR   H14844207  45.464  22.334  30.187
    1STR   O14944208  45.480  22.476  30.036
    1STR   C15044209  45.451  22.593  30.112
    1STR   H15144210  45.346  22.593  30.142
    1STR   C15244211  45.541  22.599  30.236
    1STR   H15344212  45.646  22.594  30.208
    1STR   H15444213  45.521  22.518  30.306
    1STR   H15544214  45.526  22.692  30.290
    1STR   C15644215  45.473  22.714  30.019
    1STR   H15744216  45.578  22.718  29.989
    1STR   H15844217  45.414  22.701  29.929
    1STR   O15944218  45.436  22.833  30.088
    1STR   C16044219  45.456  22.953  30.014
    1STR   H16144220  45.553  22.951  29.963
    1STR   C16244221  45.343  22.972  29.912
    1STR   H16344222  45.245  22.970  29.961
    1STR   H16444223  45.344  22.895  29.835
    1STR   H16544224  45.352  23.068  29.861
    1STR   C16644225  45.460  23.069  30.116
    1STR   H16744226  45.364  23.075  30.168
    1STR   H16844227  45.536  23.047  30.191
    1STR   O16944228  45.489  23.191  30.049
    1STR   C17044229  45.491  23.307  30.131
    1STR   H17144230  45.407  23.305  30.201
    1STR   C17244231  45.624  23.313  30.209
    1STR   H17344232  45.709  23.310  30.141
    1STR   H17444233  45.634  23.231  30.280
    1STR   H17544234  45.630  23.406  30.266
    1STR   C17644235  45.474  23.429  30.039
    1STR   H17744236  45.557  23.435  29.969
    1STR   H17844237  45.383  23.416  29.980
    1STR   O17944238  45.466  23.547  30.118
    1STR   C18044239  45.454  23.668  30.045
    1STR   H18144240  45.522  23.668  29.959
    1STR   C18244241  45.309  23.686  29.996
    1STR   H18344242  45.239  23.682  30.080
    1STR   H18444243  45.279  23.609  29.924
    1STR   H18544244  45.296  23.782  29.947
    1STR   C18644245  45.496  23.783  30.138
    1STR   H18744246  45.429  23.787  30.224
    1STR   H18844247  45.596  23.762  30.176
    1STR   O18944248  45.494  23.906  30.066
    1STR   C19044249  45.528  24.021  30.142
    1STR   H19144250  45.479  24.018  30.240
    1STR   C19244251  45.680  24.029  30.160
    1STR   H19344252  45.732  24.028  30.064
    1STR   H19444253  45.719  23.947  30.220
    1STR   H19544254  45.708  24.121  30.212
    1STR   C19644255  45.474  24.143  30.067
    1STR   H19744256  45.522  24.151  29.969
    1STR   H19844257  45.367  24.130  30.048
    1STR   O19944258  45.497  24.261  30.144
    1STR   C20044259  45.455  24.383  30.083
    1STR   H20144260  45.483  24.384  29.977
    1STR   C20244261  45.303  24.398  30.097
    1STR   H20344262  45.272  24.393  30.201
    1STR   H20444263  45.248  24.322  30.042
    1STR   H20544264  45.270  24.495  30.058
    1STR   C20644265  45.530  24.497  30.153
    1STR   H20744266  45.503  24.500  30.258
    1STR   H20844267  45.637  24.478  30.148
    1STR   O20944268  45.499  24.621  30.089
    1STR   C21044269  45.559  24.736  30.147
    1STR   H21144270  45.553  24.731  30.256
    1STR   C21244271  45.706  24.746  30.103
    1STR   H21344272  45.714  24.746  29.994
    1STR   H21444273  45.766  24.664  30.141
    1STR   H21544274  45.751  24.838  30.139
    1STR   C21644275  45.478  24.859  30.100
    1STR   H21744276  45.483  24.868  29.992
    1STR   H21844277  45.373  24.844  30.126
    1STR   O21944278  45.529  24.976  30.163
    1STR   C22044279  45.465  25.098  30.126
    1STR   H22144280  45.448  25.100  30.018
    1STR   C22244281  45.330  25.111  30.200
    1STR   H22344282  45.344  25.104  30.308
    1STR   H22444283  45.259  25.034  30.170
    1STR   H22544284  45.284  25.207  30.179
    1STR   C22644285  45.560  25.213  30.162
    1STR   H22744286  45.577  25.215  30.269
    1STR   H22844287  45.656  25.195  30.114
    1STR   O22944288  45.504  25.337  30.118
    1STR   C23044289  45.581  25.453  30.148
    1STR   H23144290  45.619  25.447  30.250
    1STR   C23244291  45.698  25.465  30.049
    1STR   H23344292  45.663  25.465  29.946
    1STR   H23444293  45.770  25.383  30.059
    1STR   H23544294  45.753  25.557  30.065
    1STR   C23644295  45.488  25.575  30.139
    1STR   H23744296  45.449  25.584  30.038
    1STR   H23844297  45.402  25.558  30.205
    1STR   O23944298  45.558  25.693  30.177
    1STR   C24044299  45.483  25.814  30.171
    1STR   H24144300  45.424  25.817  30.079
    1STR   C24244301  45.389  25.823  30.293
    1STR   H24344302  45.445  25.815  30.386
    1STR   H24444303  45.313  25.746  30.292
    1STR   H24544304  45.337  25.919  30.294
    1STR   C24644305  45.583  25.931  30.168
    1STR   H24744306  45.642  25.932  30.259
    1STR   H24844307  45.652  25.915  30.085
    1STR   O24944308  45.513  26.055  30.152
    1STR   C25044309  45.595  26.172  30.150
    1STR   H25144310  45.670  26.166  30.228
    1STR   C25244311  45.662  26.185  30.012
    1STR   H25344312  45.588  26.185  29.932
    1STR   H25444313  45.732  26.104  29.993
    1STR   H25544314  45.718  26.278  30.006
    1STR   C25644315  45.505  26.293  30.180
    1STR   H25744316  45.428  26.303  30.103
    1STR   H25844317  45.453  26.275  30.274
    1STR   O25944318  45.583  26.413  30.187
    1STR   C26044319  45.510  26.533  30.214
    1STR   H26144320  45.420  26.536  30.152
    1STR   C26244321  45.473  26.539  30.363
    1STR   H26344322  45.561  26.530  30.426
    1STR   H26444323  45.403  26.460  30.391
    1STR   H26544324  45.425  26.634  30.387
    1STR   C26644325  45.598  26.653  30.173
    1STR   H26744326  45.690  26.654  30.233
    1STR   H26844327  45.629  26.640  30.070
    1STR   O26944328  45.528  26.777  30.190
    1STR   C27044329  45.600  26.896  30.155
    1STR   H27144330  45.701  26.890  30.197
    1STR   C27244331  45.606  26.909  30.002
    1STR   H27344332  45.507  26.907  29.958
    1STR   H27444333  45.665  26.829  29.956
    1STR   H27544334  45.653  27.003  29.974
    1STR   C27644335  45.529  27.017  30.219
    1STR   H27744336  45.427  27.025  30.180
    1STR   H27844337  45.520  26.999  30.326
    1STR   O27944338  45.601  27.139  30.195
    1STR   C28044339  45.544  27.259  30.251
    1STR   H28144340  45.437  27.261  30.232
    1STR   C28244341  45.570  27.261  30.403
    1STR   H28344342  45.676  27.251  30.425
    1STR   H28444343  45.517  27.181  30.455
    1STR   H28544344  45.536  27.355  30.446
    1STR   C28644345  45.607  27.383  30.182
    1STR   H28744346  45.715  27.384  30.200
    1STR   H28844347  45.593  27.372  30.075
    1STR   O28944348  45.549  27.506  30.229
    1STR   C29044349  45.598  27.627  30.169
    1STR   H29144350  45.707  27.625  30.168
    1STR   C29244351  45.544  27.639  30.026
    1STR   H29344352  45.435  27.633  30.024
    1STR   H29444353  45.583  27.561  29.960
    1STR   H29544354  45.572  27.734  29.981
    1STR   C29644355  45.553  27.750  30.255
    1STR   H29744356  45.444  27.752  30.261
    1STR   H29844357  45.590  27.735  30.356
    1STR   O29944358  45.601  27.875  30.202
    1STR   C30044359  45.564  27.995  30.273
    1STR   H30144360  45.459  27.988  30.301
    1STR   C30244361  45.651  28.005  30.400
    1STR   H30344362  45.757  28.000  30.375
    1STR   H30444363  45.630  27.925  30.471
    1STR   H30544364  45.634  28.099  30.452
    1STR   C30644365  45.582  28.120  30.182
    1STR   H30744366  45.688  28.138  30.164
    1STR   H30844367  45.539  28.093  30.085
    1STR   O30944368  45.519  28.240  30.232
    1STR    H1R44369  45.625  28.374  30.116
    1STR    H1S44370  45.428  28.421  29.960
    1STR    H1T44371  45.334  28.303  30.050
    1STR    H1U44372  45.475  28.253  29.957
    1STR    H1V44373  45.527  28.503  30.308
    1STR    H1W44374  45.366  28.476  30.246
    1STR    H1X44375  45.542  28.776  30.021
    1STR    H1Y44376  45.619  28.982  29.975
    1STR    H1Z44377  45.577  29.206  29.892
    1STR    H2044378  45.315  29.339  29.758
    1STR    H2144379  45.288  29.399  29.926
    1STR    H2244380  45.449  29.389  29.858
    1STR    H2344381  45.058  29.105  30.012
    1STR    H2744382  45.197  28.923  30.033
    1STR    H2844383  45.492  16.384  29.863
    1STR    H2944384  45.547  16.150  29.871
    1STR    H2A44385  45.335  15.885  30.004
    1STR    H2B44386  45.499  15.939  29.971
    1STR    H2C44387  45.398  15.885  29.837
    1STR   BCK144388  44.979  15.887  45.039
    1STR    O0344389  44.933  15.849  45.146
    1STR    N0444390  44.984  16.016  45.001
    1STR    C0544391  44.897  16.120  45.041
    1STR    C0644392  44.944  16.254  45.068
    1STR    C0744393  44.853  16.361  45.096
    1STR    N0844394  44.896  16.495  45.117
    1STR    C0944395  44.825  16.610  45.106
    1STR    O0A44396  44.708  16.614  45.069
    1STR    O0B44397  44.894  16.723  45.141
    1STR    C0C44398  44.824  16.849  45.154
    1STR    C0D44399  44.770  16.863  45.297
    1STR    C0E44400  44.911  16.973  45.116
    1STR    O0F44401  44.831  17.093  45.126
    1STR    C0G44402  44.894  17.216  45.086
    1STR    C0H44403  44.897  17.225  44.933
    1STR    C0I44404  44.816  17.336  45.146
    1STR    O0J44405  44.882  17.459  45.113
    1STR    C0K44406  44.854  28.332  44.736
    1STR    C0M44407  44.849  28.339  44.890
    1STR    C0N44408  44.930  28.455  44.680
    1STR    O0O44409  44.846  28.571  44.688
    1STR    C0P44410  44.890  28.689  44.737
    1STR    O0Q44411  45.003  28.712  44.779
    1STR    N0R44412  44.788  28.775  44.739
    1STR    C0S44413  44.775  28.900  44.799
    1STR    C0T44414  44.654  28.924  44.868
    1STR    C0U44415  44.634  29.044  44.937
    1STR    C0V44416  44.731  29.145  44.936
    1STR    C0W44417  44.712  29.264  45.030
    1STR    C0X44418  44.847  29.130  44.857
    1STR    N0Y44419  44.942  29.233  44.852
    1STR   BCK244420  44.931  29.359  44.808
    1STR    O1044421  45.021  29.439  44.830
    1STR    C1344422  44.872  29.004  44.794
    1STR    C1444423  44.716  16.329  45.103
    1STR    C1544424  44.669  16.201  45.073
    1STR    C1644425  44.757  16.098  45.038
    1STR    C1744426  44.696  15.967  44.990
    1STR    H1B44427  45.046  16.035  44.924
    1STR    H1C44428  45.050  16.273  45.067
    1STR    H1D44429  44.992  16.512  45.142
    1STR    H1E44430  44.739  16.851  45.085
    1STR    H1F44431  44.851  16.865  45.370
    1STR    H1G44432  44.712  16.954  45.308
    1STR    H1H44433  44.705  16.779  45.322
    1STR    H1I44434  44.947  16.960  45.014
    1STR    H1J44435  44.998  16.980  45.181
    1STR    H1K44436  44.996  17.220  45.126
    1STR    H1M44437  44.797  17.218  44.891
    1STR    H1N44438  44.958  17.147  44.888
    1STR    H1O44439  44.939  17.321  44.901
    1STR    H1P44440  44.714  17.337  45.107
    1STR    H1Q44441  44.808  17.324  45.254
    1STR   C01044442  44.817  17.580  45.157
    1STR   H01144443  44.710  17.575  45.134
    1STR   C01244444  44.837  17.599  45.308
    1STR   H01344445  44.943  17.599  45.334
    1STR   H01444446  44.788  17.521  45.366
    1STR   H01544447  44.795  17.694  45.340
    1STR   C01644448  44.877  17.699  45.078
    1STR   H01744449  44.984  17.705  45.097
    1STR   H01844450  44.865  17.680  44.971
    1STR   O01944451  44.812  17.821  45.114
    1STR   C02044452  44.863  17.939  45.050
    1STR   H02144453  44.972  17.937  45.049
    1STR   C02244454  44.810  17.947  44.905
    1STR   H02344455  44.701  17.945  44.903
    1STR   H02444456  44.847  17.865  44.843
    1STR   H02544457  44.842  18.040  44.858
    1STR   C02644458  44.819  18.062  45.131
    1STR   H02744459  44.710  18.069  45.133
    1STR   H02844460  44.852  18.051  45.234
    1STR   O02944461  44.874  18.181  45.074
    1STR   C03044462  44.837  18.304  45.138
    1STR   H03144463  44.731  18.303  45.161
    1STR   C03244464  44.919  18.322  45.267
    1STR   H03344465  45.026  18.318  45.247
    1STR   H03444466  44.896  18.246  45.342
    1STR   H03544467  44.897  18.419  45.313
    1STR   C03644468  44.864  18.419  45.039
    1STR   H03744469  44.970  18.423  45.015
    1STR   H03844470  44.811  18.399  44.946
    1STR   O03944471  44.821  18.543  45.096
    1STR   C04044472  44.844  18.659  45.016
    1STR   H04144473  44.944  18.655  44.972
    1STR   C04244474  44.738  18.667  44.905
    1STR   H04344475  44.637  18.667  44.946
    1STR   H04444476  44.746  18.585  44.834
    1STR   H04544477  44.749  18.760  44.848
    1STR   C04644478  44.837  18.782  45.108
    1STR   H04744479  44.738  18.790  45.153
    1STR   H04844480  44.908  18.769  45.190
    1STR   O04944481  44.868  18.900  45.034
    1STR   C05044482  44.862  19.022  45.107
    1STR   H05144483  44.773  19.023  45.171
    1STR   C05244484  44.989  19.038  45.193
    1STR   H05344485  45.079  19.032  45.132
    1STR   H05444486  44.996  18.962  45.271
    1STR   H05544487  44.989  19.134  45.244
    1STR   C05644488  44.849  19.137  45.006
    1STR   H05744489  44.937  19.140  44.941
    1STR   H05844490  44.763  19.118  44.942
    1STR   O05944491  44.833  19.260  45.075
    1STR   C06044492  44.824  19.376  44.992
    1STR   H06144493  44.897  19.371  44.912
    1STR   C06244494  44.682  19.387  44.933
    1STR   H06344495  44.607  19.387  45.012
    1STR   H06444496  44.659  19.305  44.866
    1STR   H06544497  44.671  19.479  44.876
    1STR   C06644498  44.857  19.498  45.079
    1STR   H06744499  44.784  19.508  45.160
    1STR   H06844500  44.955  19.483  45.126
    1STR   O06944501  44.858  19.616  44.999
    1STR   C07044502  44.884  19.737  45.068
    1STR   H07144503  44.828  19.740  45.162
    1STR   C07244504  45.035  19.751  45.096
    1STR   H07344505  45.092  19.744  45.004
    1STR   H07444506  45.071  19.674  45.164
    1STR   H07544507  45.057  19.847  45.142
    1STR   C07644508  44.833  19.853  44.980
    1STR   H07744509  44.888  19.855  44.886
    1STR   H07844510  44.728  19.835  44.956
    1STR   O07944511  44.848  19.976  45.050
    1STR   C08044512  44.808  20.092  44.977
    1STR   H08144513  44.844  20.086  44.874
    1STR   C08244514  44.655  20.105  44.980
    1STR   H08344515  44.618  20.106  45.082
    1STR   H08444516  44.606  20.024  44.927
    1STR   H08544517  44.624  20.198  44.932
    1STR   C08644518  44.876  20.213  45.044
    1STR   H08744519  44.842  20.223  45.147
    1STR   H08844520  44.984  20.196  45.047
    1STR   O08944521  44.847  20.331  44.969
    1STR   C09044522  44.900  20.452  45.022
    1STR   H09144523  44.887  20.454  45.130
    1STR   C09244524  45.050  20.462  44.987
    1STR   H09344525  45.066  20.455  44.880
    1STR   H09444526  45.109  20.384  45.036
    1STR   H09544527  45.090  20.558  45.020
    1STR   C09644528  44.820  20.568  44.962
    1STR   H09744529  44.833  20.569  44.853
    1STR   H09844530  44.714  20.552  44.981
    1STR   O09944531  44.864  20.691  45.019
    1STR   C10044532  44.800  20.808  44.968
    1STR   H10144533  44.792  20.802  44.860
    1STR   C10244534  44.661  20.823  45.032
    1STR   H10344535  44.667  20.824  45.140
    1STR   H10444536  44.593  20.742  45.003
    1STR   H10544537  44.614  20.916  45.000
    1STR   C10644538  44.891  20.927  45.002
    1STR   H10744539  44.900  20.937  45.110
    1STR   H10844540  44.990  20.909  44.963
    1STR   O10944541  44.836  21.046  44.945
    1STR   C11044542  44.908  21.165  44.972
    1STR   H11144543  44.939  21.168  45.077
    1STR   C11244544  45.032  21.174  44.881
    1STR   H11344545  45.003  21.167  44.776
    1STR   H11444546  45.104  21.095  44.901
    1STR   H11544547  45.083  21.269  44.894
    1STR   C11644548  44.813  21.283  44.948
    1STR   H11744549  44.781  21.285  44.844
    1STR   H11844550  44.723  21.269  45.008
    1STR   O11944551  44.878  21.405  44.983
    1STR   C12044552  44.801  21.523  44.962
    1STR   H12144553  44.749  21.518  44.866
    1STR   C12244554  44.699  21.540  45.076
    1STR   H12344555  44.748  21.541  45.173
    1STR   H12444556  44.624  21.461  45.076
    1STR   H12544557  44.645  21.635  45.065
    1STR   C12644558  44.899  21.641  44.956
    1STR   H12744559  44.951  21.651  45.052
    1STR   H12844560  44.975  21.621  44.880
    1STR   O12944561  44.828  21.761  44.925
    1STR   C13044562  44.907  21.879  44.921
    1STR   H13144563  44.977  21.880  45.005
    1STR   C13244564  44.984  21.886  44.788
    1STR   H13344565  44.915  21.879  44.703
    1STR   H13444566  45.057  21.805  44.778
    1STR   H13544567  45.038  21.980  44.779
    1STR   C13644568  44.812  21.998  44.937
    1STR   H13744569  44.741  22.001  44.854
    1STR   H13844570  44.754  21.985  45.028
    1STR   O13944571  44.888  22.119  44.943
    1STR   C14044572  44.811  22.238  44.954
    1STR   H14144573  44.725  22.234  44.886
    1STR   C14244574  44.763  22.257  45.099
    1STR   H14344575  44.847  22.256  45.168
    1STR   H14444576  44.694  22.179  45.130
    1STR   H14544577  44.711  22.352  45.111
    1STR   C14644578  44.900  22.355  44.909
    1STR   H14744579  44.987  22.363  44.975
    1STR   H14844580  44.939  22.334  44.809
    1STR   O14944581  44.825  22.476  44.909
    1STR   C15044582  44.898  22.593  44.873
    1STR   H15144583  44.995  22.593  44.922
    1STR   C15244584  44.914  22.599  44.721
    1STR   H15344585  44.818  22.594  44.670
    1STR   H15444586  44.976  22.518  44.683
    1STR   H15544587  44.963  22.692  44.691
    1STR   C15644588  44.818  22.713  44.926
    1STR   H15744589  44.721  22.718  44.878
    1STR   H15844590  44.801  22.701  45.033
    1STR   O15944591  44.892  22.833  44.901
    1STR   C16044592  44.828  22.953  44.941
    1STR   H16144593  44.722  22.951  44.914
    1STR   C16244594  44.843  22.972  45.093
    1STR   H16344595  44.948  22.970  45.123
    1STR   H16444596  44.790  22.895  45.149
    1STR   H16544597  44.801  23.068  45.125
    1STR   C16644598  44.894  23.069  44.864
    1STR   H16744599  45.000  23.075  44.890
    1STR   H16844600  44.889  23.047  44.757
    1STR   O16944601  44.827  23.191  44.894
    1STR   C17044602  44.881  23.307  44.832
    1STR   H17144603  44.990  23.305  44.837
    1STR   C17244604  44.836  23.313  44.685
    1STR   H17344605  44.727  23.310  44.677
    1STR   H17444606  44.876  23.231  44.626
    1STR   H17544607  44.869  23.406  44.638
    1STR   C17644608  44.832  23.428  44.911
    1STR   H17744609  44.723  23.434  44.907
    1STR   H17844610  44.858  23.416  45.016
    1STR   O17944611  44.891  23.547  44.859
    1STR   C18044612  44.850  23.668  44.921
    1STR   H18144613  44.742  23.667  44.938
    1STR   C18244614  44.924  23.686  45.055
    1STR   H18344615  45.032  23.682  45.040
    1STR   H18444616  44.897  23.609  45.127
    1STR   H18544617  44.901  23.782  45.099
    1STR   C18644618  44.882  23.783  44.824
    1STR   H18744619  44.990  23.787  44.806
    1STR   H18844620  44.835  23.762  44.728
    1STR   O18944621  44.834  23.906  44.878
    1STR   C19044622  44.861  24.021  44.799
    1STR   H19144623  44.964  24.017  44.760
    1STR   C19244624  44.762  24.029  44.682
    1STR   H19344625  44.659  24.028  44.718
    1STR   H19444626  44.773  23.946  44.612
    1STR   H19544627  44.776  24.121  44.625
    1STR   C19644628  44.850  24.143  44.891
    1STR   H19744629  44.748  24.151  44.930
    1STR   H19844630  44.916  24.130  44.976
    1STR   O19944631  44.885  24.261  44.818
    1STR   C20044632  44.875  24.382  44.892
    1STR   H20144633  44.783  24.383  44.950
    1STR   C20244634  44.996  24.398  44.984
    1STR   H20344635  45.090  24.393  44.928
    1STR   H20444636  44.999  24.322  45.062
    1STR   H20544637  44.994  24.495  45.035
    1STR   C20644638  44.867  24.497  44.789
    1STR   H20744639  44.958  24.500  44.730
    1STR   H20844640  44.784  24.477  44.721
    1STR   O20944641  44.847  24.620  44.858
    1STR   C21044642  44.841  24.736  44.774
    1STR   H21144643  44.920  24.731  44.698
    1STR   C21244644  44.703  24.746  44.707
    1STR   H21344645  44.624  24.746  44.782
    1STR   H21444646  44.685  24.663  44.639
    1STR   H21544647  44.695  24.838  44.650
    1STR   C21644648  44.869  24.858  44.863
    1STR   H21744649  44.792  24.867  44.940
    1STR   H21844650  44.964  24.843  44.915
    1STR   O21944651  44.875  24.975  44.782
    1STR   C22044652  44.897  25.097  44.853
    1STR   H22144653  44.836  25.099  44.944
    1STR   C22244654  45.046  25.110  44.889
    1STR   H22344655  45.109  25.103  44.800
    1STR   H22444656  45.079  25.033  44.959
    1STR   H22544657  45.066  25.206  44.936
    1STR   C22644658  44.851  25.212  44.763
    1STR   H22744659  44.911  25.214  44.671
    1STR   H22844660  44.748  25.194  44.733
    1STR   O22944661  44.862  25.335  44.833
    1STR   C23044662  44.826  25.451  44.758
    1STR   H23144663  44.867  25.445  44.657
    1STR   C23244664  44.673  25.464  44.753
    1STR   H23344665  44.630  25.465  44.853
    1STR   H23444666  44.627  25.382  44.697
    1STR   H23544667  44.643  25.556  44.703
    1STR   C23644668  44.889  25.573  44.828
    1STR   H23744669  44.849  25.583  44.929
    1STR   H23844670  44.997  25.556  44.838
    1STR   O23944671  44.864  25.690  44.752
    1STR   C24044672  44.914  25.811  44.808
    1STR   H24144673  44.895  25.814  44.915
    1STR   C24244674  45.065  25.822  44.781
    1STR   H24344675  45.087  25.814  44.675
    1STR   H24444676  45.122  25.744  44.833
    1STR   H24544677  45.104  25.918  44.816
    1STR   C24644678  44.838  25.928  44.743
    1STR   H24744679  44.856  25.929  44.635
    1STR   H24844680  44.731  25.912  44.757
    1STR   O24944681  44.878  26.051  44.802
    1STR   C25044682  44.817  26.168  44.749
    1STR   H25144683  44.814  26.162  44.640
    1STR   C25244684  44.674  26.182  44.804
    1STR   H25344685  44.674  26.183  44.913
    1STR   H25444686  44.609  26.101  44.772
    1STR   H25544687  44.629  26.275  44.771
    1STR   C25644688  44.904  26.288  44.787
    1STR   H25744689  44.908  26.298  44.896
    1STR   H25844690  45.006  26.270  44.753
    1STR   O25944691  44.852  26.407  44.728
    1STR   C26044692  44.923  26.527  44.758
    1STR   H26144693  44.948  26.529  44.864
    1STR   C26244694  45.051  26.534  44.674
    1STR   H26344695  45.029  26.526  44.567
    1STR   H26444696  45.122  26.456  44.699
    1STR   H26544697  45.102  26.629  44.690
    1STR   C26644698  44.829  26.645  44.728
    1STR   H26744699  44.803  26.646  44.623
    1STR   H26844700  44.737  26.631  44.784
    1STR   O26944701  44.892  26.768  44.766
    1STR   C27044702  44.816  26.886  44.741
    1STR   H27144703  44.770  26.881  44.642
    1STR   C27244704  44.708  26.902  44.849
    1STR   H27344705  44.752  26.902  44.949
    1STR   H27444706  44.634  26.822  44.845
    1STR   H27544707  44.654  26.996  44.836
    1STR   C27644708  44.913  27.006  44.741
    1STR   H27744709  44.961  27.015  44.839
    1STR   H27844710  44.993  26.986  44.669
    1STR   O27944711  44.844  27.126  44.708
    1STR   C28044712  44.923  27.245  44.707
    1STR   H28144713  44.988  27.247  44.794
    1STR   C28244714  45.007  27.250  44.578
    1STR   H28344715  44.943  27.242  44.490
    1STR   H28444716  45.081  27.170  44.574
    1STR   H28544717  45.061  27.344  44.571
    1STR   C28644718  44.828  27.366  44.717
    1STR   H28744719  44.761  27.368  44.630
    1STR   H28844720  44.765  27.354  44.805
    1STR   O28944721  44.903  27.488  44.724
    1STR   C29044722  44.826  27.608  44.732
    1STR   H29144723  44.744  27.604  44.660
    1STR   C29244724  44.770  27.624  44.875
    1STR   H29344725  44.849  27.621  44.949
    1STR   H29444726  44.698  27.546  44.900
    1STR   H29544727  44.718  27.719  44.885
    1STR   C29644728  44.917  27.726  44.694
    1STR   H29744729  45.001  27.732  44.764
    1STR   H29844730  44.960  27.707  44.596
    1STR   O29944731  44.844  27.850  44.694
    1STR   C30044732  44.920  27.967  44.661
    1STR   H30144733  45.015  27.964  44.714
    1STR   C30244734  44.942  27.972  44.509
    1STR   H30344735  44.848  27.967  44.455
    1STR   H30444736  45.006  27.891  44.474
    1STR   H30544737  44.991  28.066  44.481
    1STR   C30644738  44.842  28.091  44.711
    1STR   H30744739  44.747  28.098  44.658
    1STR   H30844740  44.818  28.076  44.816
    1STR   O30944741  44.919  28.211  44.695
    1STR    H1R44742  44.753  28.334  44.696
    1STR    H1S44743  44.810  28.435  44.923
    1STR    H1T44744  44.949  28.328  44.932
    1STR    H1U44745  44.786  28.262  44.933
    1STR    H1V44746  44.953  28.439  44.574
    1STR    H1W44747  45.025  28.469  44.731
    1STR    H1X44748  44.705  28.733  44.701
    1STR    H1Y44749  44.578  28.847  44.872
    1STR    H1Z44750  44.543  29.056  44.995
    1STR    H2044751  44.791  29.263  45.105
    1STR    H2144752  44.716  29.359  44.979
    1STR    H2244753  44.617  29.260  45.082
    1STR    H2344754  45.034  29.211  44.886
    1STR    H2744755  44.964  28.988  44.740
    1STR    H2844756  44.641  16.403  45.129
    1STR    H2944757  44.562  16.183  45.073
    1STR    H2A44758  44.751  15.927  44.905
    1STR    H2B44759  44.593  15.981  44.956
    1STR    H2C44760  44.695  15.894  45.070
    1STR   BCK144761  45.110  30.943  60.122
    1STR    O0344762  45.209  30.875  60.144
    1STR    N0444763  45.094  31.071   0.003
    1STR    C0544764  45.175  31.156   0.083
    1STR    C0644765  45.181  31.297   0.056
    1STR    C0744766  45.256  31.390   0.134
    1STR    N0844767  45.255  31.530   0.108
    1STR    C0944768  45.319  31.633   0.169
    1STR    O0A44769  45.399  31.620   0.261
    1STR    O0B44770  45.287  31.756   0.117
    1STR    C0C44771  45.352  31.876   0.168
    1STR    C0D44772  45.492  31.890   0.105
    1STR    C0E44773  45.268  32.005   0.144
    1STR    O0F44774  45.336  32.123   0.193
    1STR    C0G44775  45.265  32.248   0.180
    1STR    C0H44776  45.159  32.259   0.290
    1STR    C0I44777  45.363  32.369   0.189
    1STR    O0J44778  45.293  32.492   0.168
    1STR    C0K44779  45.047  43.393   0.419
    1STR    C0M44780  45.167  43.387   0.323
    1STR    C0N44781  44.951  43.508   0.374
    1STR    O0O44782  45.014  43.637   0.380
    1STR    C0P44783  44.986  43.736   0.291
    1STR    O0Q44784  44.914  43.726   0.192
    1STR    N0R44785  45.051  43.847   0.327
    1STR    C0S44786  45.069  43.976   0.273
    1STR    C0T44787  45.161  44.056   0.343
    1STR    C0U44788  45.197  44.183   0.297
    1STR    C0V44789  45.140  44.236   0.179
    1STR    C0W44790  45.197  44.367   0.127
    1STR    C0X44791  45.039  44.163   0.111
    1STR    N0Y44792  44.981  44.217  60.154
    1STR   BCK244793  44.929  44.340  60.134
    1STR    O1044794  44.903  44.420   0.063
    1STR    C1344795  45.007  44.031   0.157
    1STR    C1444796  45.331  31.336   0.242
    1STR    C1544797  45.325  31.200   0.272
    1STR    C1644798  45.246  31.110   0.198
    1STR    C1744799  45.237  30.969   0.252
    1STR    H1B44800  45.009  31.112  60.128
    1STR    H1C44801  45.125  31.335  60.132
    1STR    H1D44802  45.197  31.563   0.033
    1STR    H1E44803  45.364  31.866   0.276
    1STR    H1F44804  45.486  31.901  60.157
    1STR    H1G44805  45.544  31.977   0.144
    1STR    H1H44806  45.554  31.803   0.127
    1STR    H1I44807  45.172  31.994   0.195
    1STR    H1J44808  45.247  32.016   0.038
    1STR    H1K44809  45.217  32.252   0.082
    1STR    H1M44810  45.205  32.252   0.389
    1STR    H1N44811  45.083  32.181   0.283
    1STR    H1O44812  45.107  32.354   0.285
    1STR    H1P44813  45.413  32.369   0.286
    1STR    H1Q44814  45.441  32.357   0.113
    1STR   C01044815  45.369  32.614   0.179
    1STR   H01144816  45.433  32.609   0.268
    1STR   C01244817  45.456  32.633   0.054
    1STR   H01344818  45.395  32.633  60.124
    1STR   H01444819  45.532  32.555   0.044
    1STR   H01544820  45.509  32.728   0.058
    1STR   C01644821  45.272  32.733   0.197
    1STR   H01744822  45.205  32.739   0.110
    1STR   H01844823  45.209  32.715   0.284
    1STR   O01944824  45.343  32.857   0.212
    1STR   C02044825  45.263  32.975   0.225
    1STR   H02144826  45.182  32.972   0.151
    1STR   C02244827  45.204  32.983   0.367
    1STR   H02344828  45.282  32.981   0.442
    1STR   H02444829  45.135  32.901   0.388
    1STR   H02544830  45.148  33.076   0.380
    1STR   C02644831  45.350  33.099   0.195
    1STR   H02744832  45.432  33.105   0.266
    1STR   H02844833  45.394  33.088   0.096
    1STR   O02944834  45.270  33.218   0.200
    1STR   C03044835  45.340  33.341   0.178
    1STR   H03144836  45.435  33.340   0.233
    1STR   C03244837  45.368  33.359   0.028
    1STR   H03344838  45.275  33.356  60.130
    1STR   H03444839  45.435  33.283  60.149
    1STR   H03544840  45.414  33.456   0.009
    1STR   C03644841  45.254  33.457   0.233
    1STR   H03744842  45.159  33.461   0.180
    1STR   H03844843  45.231  33.437   0.338
    1STR   O03944844  45.325  33.581   0.220
    1STR   C04044845  45.254  33.697   0.263
    1STR   H04144846  45.150  33.693   0.228
    1STR   C04244847  45.257  33.706   0.417
    1STR   H04344848  45.359  33.705   0.454
    1STR   H04444849  45.203  33.623   0.464
    1STR   H04544850  45.210  33.798   0.451
    1STR   C04644851  45.320  33.820   0.199
    1STR   H04744852  45.424  33.828   0.233
    1STR   H04844853  45.323  33.807   0.091
    1STR   O04944854  45.248  33.938   0.234
    1STR   C05044855  45.302  34.060   0.184
    1STR   H05144856  45.410  34.062   0.197
    1STR   C05244857  45.267  34.076   0.035
    1STR   H05344858  45.159  34.071   0.019
    1STR   H05444859  45.314  34.000  60.133
    1STR   H05544860  45.300  34.173  60.158
    1STR   C05644861  45.243  34.176   0.267
    1STR   H05744862  45.135  34.179   0.256
    1STR   H05844863  45.264  34.157   0.373
    1STR   O05944864  45.301  34.299   0.227
    1STR   C06044865  45.253  34.415   0.294
    1STR   H06144866  45.144  34.410   0.304
    1STR   C06244867  45.317  34.426   0.433
    1STR   H06344868  45.426  34.426   0.426
    1STR   H06444869  45.288  34.344   0.499
    1STR   H06544870  45.287  34.518   0.483
    1STR   C06644871  45.287  34.538   0.207
    1STR   H06744872  45.395  34.547   0.197
    1STR   H06844873  45.246  34.523   0.107
    1STR   O06944874  45.231  34.655   0.266
    1STR   C07044875  45.259  34.777   0.198
    1STR   H07144876  45.364  34.779   0.166
    1STR   C07244877  45.167  34.790   0.075
    1STR   H07344878  45.062  34.783   0.104
    1STR   H07444879  45.187  34.713   0.000
    1STR   H07544880  45.182  34.887   0.026
    1STR   C07644881  45.237  34.892   0.297
    1STR   H07744882  45.133  34.894   0.329
    1STR   H07844883  45.298  34.875   0.386
    1STR   O07944884  45.273  35.016   0.235
    1STR   C08044885  45.254  35.132   0.316
    1STR   H08144886  45.158  35.126   0.368
    1STR   C08244887  45.368  35.145   0.417
    1STR   H08344888  45.465  35.146   0.367
    1STR   H08444889  45.369  35.063   0.489
    1STR   H08544890  45.359  35.238   0.474
    1STR   C08644891  45.248  35.253   0.221
    1STR   H08744892  45.343  35.263   0.168
    1STR   H08844893  45.171  35.236   0.146
    1STR   O08944894  45.220  35.371   0.296
    1STR   C09044895  45.216  35.491   0.221
    1STR   H09144896  45.299  35.494   0.150
    1STR   C09244897  45.082  35.502   0.145
    1STR   H09344898  44.998  35.495   0.214
    1STR   H09444899  45.071  35.424   0.070
    1STR   H09544900  45.075  35.598   0.094
    1STR   C09644901  45.234  35.608   0.319
    1STR   H09744902  45.152  35.609   0.391
    1STR   H09844903  45.326  35.592   0.376
    1STR   O09944904  45.241  35.731   0.247
    1STR   C10044905  45.253  35.847   0.328
    1STR   H10144906  45.187  35.842   0.414
    1STR   C10244907  45.399  35.863   0.375
    1STR   H10344908  45.468  35.864   0.290
    1STR   H10444909  45.429  35.782   0.442
    1STR   H10544910  45.412  35.956   0.430
    1STR   C10644911  45.209  35.967   0.242
    1STR   H10744912  45.275  35.977   0.156
    1STR   H10844913  45.109  35.948   0.204
    1STR   O10944914  45.211  36.086   0.321
    1STR   C11044915  45.176  36.205   0.252
    1STR   H11144916  45.224  36.208   0.154
    1STR   C11244917  45.023  36.214   0.237
    1STR   H11344918  44.973  36.206   0.333
    1STR   H11444919  44.984  36.135   0.173
    1STR   H11544920  44.994  36.309   0.191
    1STR   C11644921  45.230  36.323   0.335
    1STR   H11744922  45.183  36.325   0.433
    1STR   H11844923  45.337  36.309   0.351
    1STR   O11944924  45.206  36.445   0.265
    1STR   C12044925  45.249  36.563   0.332
    1STR   H12144926  45.222  36.558   0.438
    1STR   C12244927  45.401  36.580   0.317
    1STR   H12344928  45.430  36.581   0.212
    1STR   H12444929  45.456  36.501   0.367
    1STR   H12544930  45.433  36.674   0.361
    1STR   C12644931  45.172  36.681   0.270
    1STR   H12744932  45.198  36.691   0.164
    1STR   H12844933  45.065  36.661   0.275
    1STR   O12944934  45.204  36.801   0.341
    1STR   C13044935  45.143  36.919   0.290
    1STR   H13144936  45.148  36.920   0.181
    1STR   C13244937  44.996  36.926   0.337
    1STR   H13344938  44.989  36.919   0.445
    1STR   H13444939  44.936  36.845   0.294
    1STR   H13544940  44.950  37.020   0.306
    1STR   C13644941  45.224  37.038   0.343
    1STR   H13744942  45.220  37.041   0.452
    1STR   H13844943  45.328  37.025   0.315
    1STR   O13944944  45.172  37.159   0.288
    1STR   C14044945  45.236  37.278   0.332
    1STR   H14144946  45.253  37.274   0.439
    1STR   C14244947  45.369  37.297   0.257
    1STR   H14344948  45.354  37.296   0.149
    1STR   H14444949  45.441  37.219   0.281
    1STR   H14544950  45.415  37.392   0.284
    1STR   C14644951  45.140  37.395   0.304
    1STR   H14744952  45.121  37.403   0.197
    1STR   H14844953  45.044  37.374   0.352
    1STR   O14944954  45.195  37.516   0.355
    1STR   C15044955  45.117  37.633   0.332
    1STR   H15144956  45.078  37.633   0.230
    1STR   C15244957  45.002  37.639   0.433
    1STR   H15344958  45.038  37.634   0.536
    1STR   H15444959  44.930  37.558   0.419
    1STR   H15544960  44.946  37.732   0.422
    1STR   C15644961  45.211  37.753   0.347
    1STR   H15744962  45.251  37.758   0.448
    1STR   H15844963  45.296  37.741   0.280
    1STR   O15944964  45.140  37.873   0.316
    1STR   C16044965  45.215  37.993   0.329
    1STR   H16144966  45.274  37.991   0.421
    1STR   C16244967  45.307  38.012   0.208
    1STR   H16344968  45.250  38.010   0.115
    1STR   H16444969  45.383  37.935   0.202
    1STR   H16544970  45.358  38.108   0.213
    1STR   C16644971  45.114  38.109   0.342
    1STR   H16744972  45.054  38.115   0.251
    1STR   H16844973  45.045  38.087   0.424
    1STR   O16944974  45.184  38.231   0.365
    1STR   C17044975  45.102  38.347   0.374
    1STR   H17144976  45.025  38.345   0.296
    1STR   C17244977  45.036  38.353   0.513
    1STR   H17344978  45.111  38.350   0.592
    1STR   H17444979  44.966  38.271   0.529
    1STR   H17544980  44.979  38.446   0.524
    1STR   C17644981  45.192  38.469   0.349
    1STR   H17744982  45.269  38.474   0.426
    1STR   H17844983  45.243  38.456   0.253
    1STR   O17944984  45.112  38.587   0.347
    1STR   C18044985  45.185  38.708   0.329
    1STR   H18144986  45.275  38.707   0.389
    1STR   C18244987  45.220  38.726   0.180
    1STR   H18344988  45.131  38.722   0.118
    1STR   H18444989  45.289  38.649   0.145
    1STR   H18544990  45.268  38.822   0.163
    1STR   C18644991  45.095  38.823   0.379
    1STR   H18744992  45.004  38.827   0.320
    1STR   H18844993  45.066  38.802   0.482
    1STR   O18944994  45.167  38.946   0.372
    1STR   C19044995  45.094  39.061   0.412
    1STR   H19144996  44.992  39.057   0.371
    1STR   C19244997  45.089  39.069   0.565
    1STR   H19344998  45.189  39.068   0.608
    1STR   H19444999  45.032  38.986   0.609
    1STR   H19545000  45.040  39.161   0.597
    1STR   C19645001  45.164  39.183   0.352
    1STR   H19745002  45.266  39.191   0.391
    1STR   H19845003  45.173  39.170   0.244
    1STR   O19945004  45.089  39.301   0.381
    1STR   C20045005  45.147  39.423   0.334
    1STR   H20145006  45.254  39.424   0.353
    1STR   C20245007  45.119  39.438   0.184
    1STR   H20345008  45.012  39.433   0.162
    1STR   H20445009  45.169  39.362   0.124
    1STR   H20545010  45.155  39.535   0.148
    1STR   C20645011  45.083  39.537   0.415
    1STR   H20745012  44.976  39.540   0.397
    1STR   H20845013  45.098  39.518   0.521
    1STR   O20945014  45.144  39.661   0.378
    1STR   C21045015  45.092  39.776   0.443
    1STR   H21145016  44.983  39.771   0.446
    1STR   C21245017  45.148  39.786   0.586
    1STR   H21345018  45.257  39.786   0.585
    1STR   H21445019  45.115  39.703   0.649
    1STR   H21545020  45.116  39.878   0.634
    1STR   C21645021  45.131  39.898   0.358
    1STR   H21745022  45.240  39.907   0.354
    1STR   H21845023  45.096  39.883   0.256
    1STR   O21945024  45.073  40.016   0.415
    1STR   C22045025  45.104  40.137   0.347
    1STR   H22145026  45.210  40.140   0.321
    1STR   C22245027  45.019  40.150   0.220
    1STR   H22345028  44.912  40.143   0.243
    1STR   H22445029  45.042  40.074   0.147
    1STR   H22545030  45.036  40.247   0.172
    1STR   C22645031  45.077  40.253   0.445
    1STR   H22745032  44.971  40.254   0.472
    1STR   H22845033  45.133  40.235   0.537
    1STR   O22945034  45.116  40.376   0.386
    1STR   C23045035  45.092  40.492   0.465
    1STR   H23145036  44.994  40.486   0.512
    1STR   C23245037  45.201  40.504   0.573
    1STR   H23345038  45.301  40.505   0.529
    1STR   H23445039  45.197  40.423   0.645
    1STR   H23545040  45.190  40.597   0.630
    1STR   C23645041  45.093  40.614   0.371
    1STR   H23745042  45.191  40.624   0.324
    1STR   H23845043  45.020  40.597   0.292
    1STR   O23945044  45.061  40.732   0.445
    1STR   C24045045  45.061  40.853   0.369
    1STR   H24145046  45.148  40.856   0.303
    1STR   C24245047  44.932  40.863   0.287
    1STR   H24345048  44.844  40.855   0.350
    1STR   H24445049  44.925  40.785   0.211
    1STR   H24545050  44.926  40.959   0.235
    1STR   C24645051  45.073  40.970   0.469
    1STR   H24745052  44.987  40.971   0.536
    1STR   H24845053  45.162  40.954   0.530
    1STR   O24945054  45.083  41.093   0.398
    1STR   C25045055  45.092  41.210   0.479
    1STR   H25145056  45.021  41.205   0.561
    1STR   C25245057  45.235  41.224   0.534
    1STR   H25345058  45.309  41.224   0.453
    1STR   H25445059  45.261  41.143   0.602
    1STR   H25545060  45.246  41.317   0.589
    1STR   C25645061  45.054  41.332   0.392
    1STR   H25745062  45.124  41.341   0.309
    1STR   H25845063  44.956  41.314   0.348
    1STR   O25945064  45.053  41.451   0.470
    1STR   C26045065  45.021  41.571   0.400
    1STR   H26145066  45.074  41.574   0.305
    1STR   C26245067  44.869  41.577   0.376
    1STR   H26345068  44.814  41.569   0.470
    1STR   H26445069  44.834  41.499   0.309
    1STR   H26545070  44.841  41.672   0.330
    1STR   C26645071  45.069  41.691   0.485
    1STR   H26745072  45.017  41.691   0.581
    1STR   H26845073  45.175  41.677   0.506
    1STR   O26945074  45.047  41.814   0.415
    1STR   C27045075  45.087  41.932   0.485
    1STR   H27145076  45.055  41.927   0.589
    1STR   C27245077  45.240  41.947   0.478
    1STR   H27345078  45.275  41.945   0.375
    1STR   H27445079  45.292  41.867   0.532
    1STR   H27545080  45.272  42.041   0.522
    1STR   C27645081  45.017  42.054   0.419
    1STR   H27745082  45.047  42.062   0.315
    1STR   H27845083  44.910  42.035   0.419
    1STR   O27945084  45.047  42.175   0.490
    1STR   C28045085  44.987  42.294   0.438
    1STR   H28145086  44.997  42.297   0.329
    1STR   C28245087  44.838  42.298   0.476
    1STR   H28345088  44.825  42.288   0.584
    1STR   H28445089  44.781  42.218   0.429
    1STR   H28545090  44.793  42.392   0.446
    1STR   C28645091  45.062  42.417   0.495
    1STR   H28745092  45.054  42.418   0.604
    1STR   H28845093  45.168  42.406   0.472
    1STR   O28945094  45.012  42.540   0.440
    1STR   C29045095  45.075  42.661   0.485
    1STR   H29145096  45.087  42.658   0.593
    1STR   C29245097  45.213  42.674   0.418
    1STR   H29345098  45.204  42.669   0.309
    1STR   H29445099  45.282  42.596   0.450
    1STR   H29545100  45.259  42.770   0.443
    1STR   C29645101  44.984  42.782   0.449
    1STR   H29745102  44.968  42.784   0.341
    1STR   H29845103  44.886  42.765   0.495
    1STR   O29945104  45.039  42.907   0.494
    1STR   C30045105  44.960  43.024   0.465
    1STR   H30145106  44.922  43.017   0.363
    1STR   C30245107  44.842  43.031   0.564
    1STR   H30345108  44.877  43.026   0.667
    1STR   H30445109  44.771  42.949   0.550
    1STR   H30545110  44.787  43.124   0.552
    1STR   C30645111  45.047  43.152   0.473
    1STR   H30745112  45.077  43.170   0.576
    1STR   H30845113  45.138  43.134   0.416
    1STR   O30945114  44.977  43.267   0.419
    1STR    H1R45115  45.082  43.415   0.520
    1STR    H1S45116  45.216  43.484   0.315
    1STR    H1T45117  45.136  43.357   0.223
    1STR    H1U45118  45.244  43.317   0.356
    1STR    H1V45119  44.864  43.510   0.440
    1STR    H1W45120  44.913  43.488   0.274
    1STR    H1X45121  45.100  43.829   0.413
    1STR    H1Y45122  45.209  44.020   0.433
    1STR    H1Z45123  45.271  44.240   0.351
    1STR    H2045124  45.202  44.366   0.018
    1STR    H2145125  45.135  44.451   0.159
    1STR    H2245126  45.298  44.384   0.164
    1STR    H2345127  44.981  44.157  60.073
    1STR    H2745128  44.934  43.972   0.104
    1STR    H2845129  45.392  31.397   0.306
    1STR    H2945130  45.381  31.164   0.358
    1STR    H2A45131  45.139  30.925   0.233
    1STR    H2B45132  45.252  30.967   0.360
    1STR    H2C45133  45.314  30.906   0.207
    1STR   BCK145134  44.995  30.941  14.877
    1STR    O0345135  44.897  30.950  14.804
    1STR    N0445136  45.078  31.044  14.903
    1STR    C0545137  45.096  31.156  14.820
    1STR    C0645138  45.071  31.291  14.862
    1STR    C0745139  45.096  31.402  14.775
    1STR    N0845140  45.076  31.537  14.815
    1STR    C0945141  45.065  31.648  14.739
    1STR    O0A45142  45.059  31.646  14.616
    1STR    O0B45143  45.062  31.765  14.811
    1STR    C0C45144  45.049  31.891  14.742
    1STR    C0D45145  44.902  31.913  14.702
    1STR    C0E45146  45.102  32.012  14.824
    1STR    O0F45147  45.088  32.133  14.747
    1STR    C0G45148  45.133  32.255  14.809
    1STR    C0H45149  45.286  32.263  14.801
    1STR    C0I45150  45.069  32.376  14.737
    1STR    O0J45151  45.106  32.499  14.801
    1STR    C0K45152  45.427  43.382  14.750
    1STR    C0M45153  45.275  43.361  14.750
    1STR    C0N45154  45.458  43.516  14.823
    1STR    O0O45155  45.411  43.625  14.742
    1STR    C0P45156  45.354  43.738  14.793
    1STR    O0Q45157  45.325  43.759  14.910
    1STR    N0R45158  45.340  43.826  14.693
    1STR    C0S45159  45.301  43.960  14.680
    1STR    C0T45160  45.374  44.031  14.584
    1STR    C0U45161  45.345  44.165  14.556
    1STR    C0V45162  45.239  44.232  14.621
    1STR    C0W45163  45.227  44.379  14.590
    1STR    C0X45164  45.157  44.163  14.715
    1STR    N0Y45165  45.050  44.222  14.787
    1STR   BCK245166  44.959  44.323  14.780
    1STR    O1045167  44.890  44.345  14.878
    1STR    C1345168  45.193  44.027  14.745
    1STR    C1445169  45.149  31.373  14.647
    1STR    C1545170  45.176  31.242  14.606
    1STR    C1645171  45.152  31.134  14.692
    1STR    C1745172  45.192  30.994  14.646
    1STR    H1B45173  45.147  31.028  14.975
    1STR    H1C45174  45.031  31.308  14.960
    1STR    H1D45175  45.068  31.557  14.914
    1STR    H1E45176  45.109  31.887  14.651
    1STR    H1F45177  44.837  31.920  14.789
    1STR    H1G45178  44.891  32.006  14.645
    1STR    H1H45179  44.866  31.833  14.638
    1STR    H1I45180  45.207  31.995  14.849
    1STR    H1J45181  45.047  32.021  14.918
    1STR    H1K45182  45.101  32.258  14.913
    1STR    H1M45183  45.321  32.258  14.697
    1STR    H1N45184  45.335  32.184  14.857
    1STR    H1O45185  45.322  32.358  14.842
    1STR    H1P45186  45.099  32.378  14.632
    1STR    H1Q45187  44.960  32.365  14.738
    1STR   C01045188  45.057  32.620  14.741
    1STR   H01145189  45.071  32.615  14.632
    1STR   C01245190  44.909  32.638  14.774
    1STR   H01345191  44.892  32.638  14.882
    1STR   H01445192  44.846  32.561  14.731
    1STR   H01545193  44.872  32.734  14.736
    1STR   C01645194  45.141  32.738  14.794
    1STR   H01745195  45.131  32.745  14.902
    1STR   H01845196  45.246  32.719  14.773
    1STR   O01945197  45.100  32.861  14.733
    1STR   C02045198  45.168  32.979  14.778
    1STR   H02145199  45.178  32.977  14.886
    1STR   C02245200  45.307  32.987  14.713
    1STR   H02345201  45.299  32.984  14.604
    1STR   H02445202  45.372  32.905  14.744
    1STR   H02545203  45.357  33.080  14.740
    1STR   C02645204  45.083  33.102  14.741
    1STR   H02745205  45.071  33.108  14.633
    1STR   H02845206  44.983  33.091  14.783
    1STR   O02945207  45.144  33.221  14.791
    1STR   C03045208  45.078  33.344  14.760
    1STR   H03145209  45.045  33.343  14.656
    1STR   C03245210  44.956  33.362  14.852
    1STR   H03345211  44.985  33.358  14.957
    1STR   H03445212  44.880  33.286  14.836
    1STR   H03545213  44.909  33.458  14.835
    1STR   C03645214  45.178  33.459  14.778
    1STR   H03745215  45.212  33.463  14.881
    1STR   H03845216  45.266  33.439  14.716
    1STR   O03945217  45.118  33.583  14.740
    1STR   C04045218  45.199  33.699  14.755
    1STR   H04145219  45.252  33.695  14.851
    1STR   C04245220  45.301  33.707  14.640
    1STR   H04345221  45.251  33.707  14.544
    1STR   H04445222  45.372  33.625  14.642
    1STR   H04545223  45.358  33.800  14.647
    1STR   C04645224  45.107  33.822  14.757
    1STR   H04745225  45.053  33.830  14.663
    1STR   H04845226  45.032  33.808  14.835
    1STR   O04945227  45.184  33.940  14.782
    1STR   C05045228  45.110  34.062  14.782
    1STR   H05145229  45.039  34.063  14.699
    1STR   C05245230  45.035  34.078  14.915
    1STR   H05345231  45.104  34.072  15.000
    1STR   H05445232  44.959  34.001  14.929
    1STR   H05545233  44.985  34.174  14.920
    1STR   C05645234  45.210  34.177  14.760
    1STR   H05745235  45.282  34.180  14.842
    1STR   H05845236  45.266  34.158  14.668
    1STR   O05945237  45.139  34.300  14.750
    1STR   C06045238  45.221  34.416  14.733
    1STR   H06145239  45.307  34.411  14.800
    1STR   C06245240  45.267  34.427  14.587
    1STR   H06345241  45.182  34.427  14.519
    1STR   H06445242  45.333  34.344  14.559
    1STR   H06545243  45.323  34.519  14.571
    1STR   C06645244  45.137  34.538  14.775
    1STR   H06745245  45.050  34.548  14.709
    1STR   H06845246  45.100  34.523  14.876
    1STR   O06945247  45.218  34.656  14.768
    1STR   C07045248  45.151  34.777  14.800
    1STR   H07145249  45.052  34.780  14.753
    1STR   C07245250  45.136  34.790  14.953
    1STR   H07345251  45.233  34.784  15.002
    1STR   H07445252  45.071  34.714  14.995
    1STR   H07545253  45.092  34.887  14.979
    1STR   C07645254  45.234  34.893  14.742
    1STR   H07745255  45.333  34.894  14.788
    1STR   H07845256  45.249  34.875  14.635
    1STR   O07945257  45.166  35.016  14.763
    1STR   C08045258  45.235  35.132  14.717
    1STR   H08145259  45.340  35.126  14.744
    1STR   C08245260  45.219  35.145  14.565
    1STR   H08345261  45.114  35.147  14.536
    1STR   H08445262  45.267  35.064  14.511
    1STR   H08545263  45.264  35.238  14.529
    1STR   C08645264  45.175  35.253  14.790
    1STR   H08745265  45.069  35.263  14.765
    1STR   H08845266  45.180  35.236  14.898
    1STR   O08945267  45.247  35.371  14.755
    1STR   C09045268  45.198  35.492  14.813
    1STR   H09145269  45.089  35.494  14.808
    1STR   C09245270  45.246  35.502  14.959
    1STR   H09345271  45.354  35.495  14.965
    1STR   H09445272  45.203  35.424  15.022
    1STR   H09545273  45.216  35.598  15.002
    1STR   C09645274  45.252  35.608  14.728
    1STR   H09745275  45.361  35.609  14.731
    1STR   H09845276  45.223  35.592  14.624
    1STR   O09945277  45.198  35.731  14.776
    1STR   C10045278  45.243  35.848  14.708
    1STR   H10145279  45.351  35.842  14.690
    1STR   C10245280  45.168  35.863  14.575
    1STR   H10345281  45.060  35.864  14.591
    1STR   H10445282  45.190  35.782  14.505
    1STR   H10545283  45.195  35.956  14.526
    1STR   C10645284  45.217  35.967  14.801
    1STR   H10745285  45.110  35.977  14.820
    1STR   H10845286  45.266  35.949  14.897
    1STR   O10945287  45.270  36.086  14.741
    1STR   C11045288  45.249  36.205  14.816
    1STR   H11145289  45.147  36.208  14.856
    1STR   C11245290  45.351  36.214  14.931
    1STR   H11345291  45.453  36.207  14.893
    1STR   H11445292  45.337  36.135  15.004
    1STR   H11545293  45.342  36.309  14.984
    1STR   C11645294  45.264  36.323  14.719
    1STR   H11745295  45.366  36.325  14.678
    1STR   H11845296  45.196  36.309  14.635
    1STR   O11945297  45.235  36.445  14.787
    1STR   C12045298  45.250  36.563  14.708
    1STR   H12145299  45.341  36.558  14.649
    1STR   C12245300  45.127  36.580  14.616
    1STR   H12345301  45.035  36.581  14.674
    1STR   H12445302  45.120  36.501  14.542
    1STR   H12545303  45.133  36.675  14.562
    1STR   C12645304  45.264  36.681  14.806
    1STR   H12745305  45.173  36.691  14.866
    1STR   H12845306  45.346  36.661  14.874
    1STR   O12945307  45.288  36.801  14.732
    1STR   C13045308  45.300  36.919  14.811
    1STR   H13145309  45.222  36.920  14.888
    1STR   C13245310  45.439  36.926  14.875
    1STR   H13345311  45.517  36.919  14.800
    1STR   H13445312  45.455  36.845  14.947
    1STR   H13545313  45.452  37.020  14.929
    1STR   C13645314  45.275  37.038  14.717
    1STR   H13745315  45.352  37.041  14.639
    1STR   H13845316  45.179  37.025  14.667
    1STR   O13945317  45.276  37.159  14.793
    1STR   C14045318  45.258  37.278  14.717
    1STR   H14145319  45.318  37.274  14.626
    1STR   C14245320  45.110  37.297  14.682
    1STR   H14345321  45.048  37.296  14.772
    1STR   H14445322  45.073  37.219  14.616
    1STR   H14545323  45.094  37.392  14.632
    1STR   C14645324  45.311  37.395  14.803
    1STR   H14745325  45.252  37.403  14.894
    1STR   H14845326  45.414  37.374  14.832
    1STR   O14945327  45.304  37.516  14.727
    1STR   C15045328  45.346  37.633  14.797
    1STR   H15145329  45.306  37.633  14.898
    1STR   C15245330  45.500  37.639  14.800
    1STR   H15345331  45.542  37.634  14.700
    1STR   H15445332  45.543  37.558  14.859
    1STR   H15545333  45.534  37.732  14.846
    1STR   C15645334  45.287  37.754  14.723
    1STR   H15745335  45.326  37.758  14.621
    1STR   H15845336  45.179  37.741  14.715
    1STR   O15945337  45.319  37.873  14.794
    1STR   C16045338  45.273  37.993  14.733
    1STR   H16145339  45.291  37.991  14.626
    1STR   C16245340  45.123  38.012  14.761
    1STR   H16345341  45.102  38.010  14.868
    1STR   H16445342  45.062  37.935  14.713
    1STR   H16545343  45.088  38.108  14.722
    1STR   C16645344  45.355  38.109  14.792
    1STR   H16745345  45.338  38.115  14.900
    1STR   H16845346  45.461  38.087  14.778
    1STR   O16945347  45.320  38.231  14.728
    1STR   C17045348  45.386  38.347  14.777
    1STR   H17145349  45.390  38.345  14.886
    1STR   C17245350  45.529  38.353  14.719
    1STR   H17345351  45.527  38.350  14.610
    1STR   H17445352  45.591  38.271  14.753
    1STR   H17545353  45.578  38.446  14.748
    1STR   C17645354  45.303  38.468  14.735
    1STR   H17745355  45.298  38.474  14.626
    1STR   H17845356  45.201  38.456  14.771
    1STR   O17945357  45.361  38.587  14.789
    1STR   C18045358  45.295  38.708  14.754
    1STR   H18145359  45.269  38.707  14.648
    1STR   C18245360  45.168  38.726  14.839
    1STR   H18345361  45.192  38.722  14.946
    1STR   H18445362  45.093  38.649  14.819
    1STR   H18545363  45.121  38.822  14.819
    1STR   C18645364  45.394  38.823  14.777
    1STR   H18745365  45.422  38.827  14.883
    1STR   H18845366  45.486  38.802  14.722
    1STR   O18945367  45.336  38.946  14.734
    1STR   C19045368  45.418  39.061  14.754
    1STR   H19145369  45.465  39.057  14.853
    1STR   C19245370  45.525  39.069  14.645
    1STR   H19345371  45.480  39.068  14.545
    1STR   H19445372  45.596  38.986  14.650
    1STR   H19545373  45.583  39.161  14.654
    1STR   C19645374  45.325  39.183  14.751
    1STR   H19745375  45.277  39.191  14.653
    1STR   H19845376  45.245  39.170  14.824
    1STR   O19945377  45.400  39.301  14.780
    1STR   C20045378  45.326  39.423  14.776
    1STR   H20145379  45.259  39.424  14.689
    1STR   C20245380  45.245  39.438  14.905
    1STR   H20345381  45.309  39.433  14.993
    1STR   H20445382  45.168  39.362  14.915
    1STR   H20545383  45.194  39.535  14.907
    1STR   C20645384  45.427  39.537  14.759
    1STR   H20745385  45.495  39.540  14.845
    1STR   H20845386  45.488  39.518  14.671
    1STR   O20945387  45.357  39.661  14.745
    1STR   C21045388  45.440  39.776  14.732
    1STR   H21145389  45.523  39.771  14.804
    1STR   C21245390  45.494  39.786  14.589
    1STR   H21345391  45.413  39.786  14.516
    1STR   H21445392  45.561  39.703  14.565
    1STR   H21545393  45.551  39.878  14.576
    1STR   C21645394  45.354  39.898  14.768
    1STR   H21745395  45.271  39.907  14.698
    1STR   H21845396  45.311  39.883  14.867
    1STR   O21945397  45.435  40.016  14.766
    1STR   C22045398  45.366  40.137  14.795
    1STR   H22145399  45.270  40.139  14.742
    1STR   C22245400  45.343  40.150  14.946
    1STR   H22345401  45.437  40.143  15.001
    1STR   H22445402  45.276  40.073  14.985
    1STR   H22545403  45.298  40.247  14.970
    1STR   C22645404  45.452  40.252  14.741
    1STR   H22745405  45.549  40.254  14.792
    1STR   H22845406  45.473  40.235  14.635
    1STR   O22945407  45.383  40.376  14.758
    1STR   C23045408  45.455  40.492  14.715
    1STR   H23145409  45.559  40.486  14.747
    1STR   C23245410  45.447  40.504  14.562
    1STR   H23345411  45.344  40.505  14.528
    1STR   H23445412  45.499  40.423  14.512
    1STR   H23545413  45.494  40.597  14.529
    1STR   C23645414  45.391  40.614  14.784
    1STR   H23745415  45.286  40.623  14.754
    1STR   H23845416  45.391  40.597  14.892
    1STR   O23945417  45.464  40.732  14.752
    1STR   C24045418  45.413  40.853  14.808
    1STR   H24145419  45.304  40.855  14.798
    1STR   C24245420  45.453  40.863  14.956
    1STR   H24345421  45.561  40.855  14.968
    1STR   H24445422  45.406  40.785  15.016
    1STR   H24545423  45.421  40.959  14.997
    1STR   C24645424  45.471  40.970  14.726
    1STR   H24745425  45.580  40.971  14.735
    1STR   H24845426  45.447  40.954  14.621
    1STR   O24945427  45.416  41.093  14.772
    1STR   C25045428  45.464  41.210  14.706
    1STR   H25145429  45.572  41.204  14.693
    1STR   C25245430  45.396  41.224  14.568
    1STR   H25345431  45.287  41.224  14.578
    1STR   H25445432  45.423  41.143  14.501
    1STR   H25545433  45.425  41.317  14.520
    1STR   C25645434  45.433  41.331  14.796
    1STR   H25745435  45.325  41.341  14.809
    1STR   H25845436  45.476  41.313  14.894
    1STR   O25945437  45.487  41.450  14.738
    1STR   C26045438  45.463  41.570  14.812
    1STR   H26145439  45.360  41.573  14.846
    1STR   C26245440  45.559  41.577  14.932
    1STR   H26345441  45.663  41.568  14.901
    1STR   H26445442  45.539  41.498  15.005
    1STR   H26545443  45.548  41.672  14.985
    1STR   C26645444  45.485  41.690  14.717
    1STR   H26745445  45.588  41.690  14.681
    1STR   H26845446  45.421  41.676  14.629
    1STR   O26945447  45.454  41.813  14.783
    1STR   C27045448  45.471  41.931  14.705
    1STR   H27145449  45.565  41.926  14.650
    1STR   C27245450  45.354  41.946  14.606
    1STR   H27345451  45.258  41.945  14.659
    1STR   H27445452  45.352  41.866  14.532
    1STR   H27545453  45.361  42.040  14.552
    1STR   C27645454  45.479  42.052  14.801
    1STR   H27745455  45.386  42.061  14.857
    1STR   H27845456  45.558  42.034  14.873
    1STR   O27945457  45.504  42.174  14.728
    1STR   C28045458  45.514  42.293  14.807
    1STR   H28145459  45.433  42.295  14.881
    1STR   C28245460  45.650  42.296  14.879
    1STR   H28345461  45.732  42.286  14.808
    1STR   H28445462  45.660  42.216  14.953
    1STR   H28545463  45.663  42.390  14.933
    1STR   C28645464  45.497  42.416  14.715
    1STR   H28745465  45.577  42.417  14.640
    1STR   H28845466  45.403  42.405  14.661
    1STR   O28945467  45.498  42.538  14.790
    1STR   C29045468  45.482  42.659  14.715
    1STR   H29145469  45.547  42.656  14.627
    1STR   C29245470  45.335  42.673  14.671
    1STR   H29345471  45.268  42.668  14.756
    1STR   H29445472  45.305  42.595  14.600
    1STR   H29545473  45.319  42.769  14.621
    1STR   C29645474  45.525  42.779  14.802
    1STR   H29745475  45.464  42.783  14.892
    1STR   H29845476  45.628  42.763  14.835
    1STR   O29945477  45.515  42.904  14.731
    1STR   C30045478  45.550  43.023  14.804
    1STR   H30145479  45.507  43.018  14.904
    1STR   C30245480  45.703  43.033  14.813
    1STR   H30345481  45.749  43.028  14.714
    1STR   H30445482  45.746  42.953  14.873
    1STR   H30545483  45.734  43.127  14.858
    1STR   C30645484  45.489  43.146  14.732
    1STR   H30745485  45.539  43.161  14.636
    1STR   H30845486  45.386  43.120  14.708
    1STR   O30945487  45.492  43.268  14.809
    1STR    H1R45488  45.463  43.392  14.648
    1STR    H1S45489  45.223  43.450  14.716
    1STR    H1T45490  45.239  43.339  14.851
    1STR    H1U45491  45.243  43.279  14.685
    1STR    H1V45492  45.565  43.528  14.837
    1STR    H1W45493  45.414  43.518  14.923
    1STR    H1X45494  45.377  43.783  14.609
    1STR    H1Y45495  45.457  43.986  14.532
    1STR    H1Z45496  45.406  44.218  14.485
    1STR    H2045497  45.155  44.394  14.509
    1STR    H2145498  45.198  44.436  14.678
    1STR    H2245499  45.322  44.421  14.555
    1STR    H2345500  45.032  44.175  14.874
    1STR    H2745501  45.136  43.970  14.818
    1STR    H2845502  45.174  31.451  14.576
    1STR    H2945503  45.218  31.225  14.508
    1STR    H2A45504  45.249  30.944  14.725
    1STR    H2B45505  45.255  30.998  14.557
    1STR    H2C45506  45.104  30.935  14.624
    1STR   BCK145507  44.982  30.935  30.041
    1STR    O0345508  45.025  30.874  30.139
    1STR    N0445509  44.953  31.068  30.041
    1STR    C0545510  44.935  31.158  30.149
    1STR    C0645511  44.977  31.295  30.139
    1STR    C0745512  44.949  31.393  30.241
    1STR    N0845513  44.985  31.530  30.228
    1STR    C0945514  44.936  31.638  30.293
    1STR    O0A45515  44.845  31.634  30.375
    1STR    O0B45516  44.998  31.757  30.259
    1STR    C0C45517  44.963  31.880  30.328
    1STR    C0D45518  45.044  31.890  30.459
    1STR    C0E45519  44.984  32.007  30.241
    1STR    O0F45520  44.945  32.127  30.312
    1STR    C0G45521  44.954  32.251  30.240
    1STR    C0H45522  44.835  32.262  30.144
    1STR    C0I45523  44.954  32.372  30.338
    1STR    O0J45524  44.968  32.495  30.266
    1STR    C0K45525  44.655  43.374  30.054
    1STR    C0M45526  44.774  43.379  30.152
    1STR    C0N45527  44.661  43.495  29.957
    1STR    O0O45528  44.634  43.617  30.028
    1STR    C0P45529  44.695  43.733  29.993
    1STR    O0Q45530  44.780  43.745  29.906
    1STR    N0R45531  44.652  43.831  30.073
    1STR    C0S45532  44.693  43.964  30.087
    1STR    C0T45533  44.673  44.023  30.213
    1STR    C0U45534  44.721  44.153  30.240
    1STR    C0V45535  44.786  44.229  30.141
    1STR    C0W45536  44.856  44.356  30.185
    1STR    C0X45537  44.796  44.177  30.009
    1STR    N0Y45538  44.861  44.246  29.905
    1STR   BCK245539  44.839  44.363  29.842
    1STR    O1045540  44.906  44.390  29.743
    1STR    C1345541  44.754  44.043  29.985
    1STR    C1445542  44.883  31.347  30.357
    1STR    C1545543  44.839  31.214  30.367
    1STR    C1645544  44.860  31.121  30.264
    1STR    C1745545  44.794  30.986  30.280
    1STR    H1B45546  44.938  31.105  29.949
    1STR    H1C45547  45.030  31.327  30.051
    1STR    H1D45548  45.056  31.555  30.161
    1STR    H1E45549  44.857  31.877  30.353
    1STR    H1F45550  45.151  31.895  30.440
    1STR    H1G45551  45.016  31.980  30.514
    1STR    H1H45552  45.025  31.805  30.524
    1STR    H1I45553  44.925  31.997  30.150
    1STR    H1J45554  45.089  32.015  30.211
    1STR    H1K45555  45.047  32.254  30.184
    1STR    H1M45556  44.740  32.255  30.197
    1STR    H1N45557  44.836  32.185  30.067
    1STR    H1O45558  44.836  32.358  30.092
    1STR    H1P45559  44.861  32.373  30.396
    1STR    H1Q45560  45.035  32.360  30.410
    1STR   C01045561  44.964  32.616  30.343
    1STR   H01145562  44.881  32.612  30.414
    1STR   C01245563  45.096  32.635  30.419
    1STR   H01345564  45.181  32.635  30.351
    1STR   H01445565  45.113  32.558  30.494
    1STR   H01545566  45.097  32.731  30.472
    1STR   C01645567  44.938  32.735  30.248
    1STR   H01745568  45.018  32.742  30.175
    1STR   H01845569  44.846  32.717  30.193
    1STR   O01945570  44.928  32.859  30.321
    1STR   C02045571  44.908  32.976  30.242
    1STR   H02145572  44.974  32.974  30.155
    1STR   C02245573  44.762  32.985  30.195
    1STR   H02345574  44.694  32.983  30.280
    1STR   H02445575  44.735  32.903  30.128
    1STR   H02545576  44.744  33.078  30.141
    1STR   C02645577  44.946  33.100  30.326
    1STR   H02745578  44.882  33.107  30.414
    1STR   H02845579  45.048  33.089  30.362
    1STR   O02945580  44.934  33.220  30.247
    1STR   C03045581  44.962  33.342  30.315
    1STR   H03145582  44.915  33.342  30.414
    1STR   C03245583  45.114  33.361  30.329
    1STR   H03345584  45.163  33.357  30.232
    1STR   H03445585  45.159  33.285  30.393
    1STR   H03545586  45.137  33.457  30.374
    1STR   C03645587  44.900  33.458  30.234
    1STR   H03745588  44.945  33.462  30.135
    1STR   H03845589  44.794  33.438  30.220
    1STR   O03945590  44.919  33.582  30.303
    1STR   C04045591  44.869  33.698  30.236
    1STR   H04145592  44.896  33.694  30.130
    1STR   C04245593  44.717  33.707  30.253
    1STR   H04345594  44.689  33.706  30.358
    1STR   H04445595  44.665  33.625  30.203
    1STR   H04545596  44.679  33.799  30.209
    1STR   C04645597  44.939  33.821  30.297
    1STR   H04745598  44.915  33.829  30.403
    1STR   H04845599  45.047  33.808  30.290
    1STR   O04945600  44.899  33.939  30.228
    1STR   C05045601  44.953  34.061  30.277
    1STR   H05145602  44.949  34.062  30.387
    1STR   C05245603  45.098  34.077  30.229
    1STR   H05345604  45.105  34.072  30.121
    1STR   H05445605  45.164  34.001  30.271
    1STR   H05545606  45.138  34.174  30.260
    1STR   C05645607  44.864  34.176  30.226
    1STR   H05745608  44.867  34.179  30.117
    1STR   H05845609  44.761  34.157  30.256
    1STR   O05945610  44.910  34.300  30.281
    1STR   C06045611  44.839  34.416  30.238
    1STR   H06145612  44.820  34.411  30.130
    1STR   C06245613  44.705  34.426  30.314
    1STR   H06345614  44.722  34.427  30.422
    1STR   H06445615  44.638  34.344  30.291
    1STR   H06545616  44.654  34.519  30.288
    1STR   C06645617  44.928  34.538  30.264
    1STR   H06745618  44.948  34.547  30.371
    1STR   H06845619  45.024  34.523  30.215
    1STR   O06945620  44.864  34.655  30.214
    1STR   C07045621  44.935  34.777  30.236
    1STR   H07145622  44.976  34.779  30.338
    1STR   C07245623  45.049  34.790  30.134
    1STR   H07345624  45.012  34.783  30.032
    1STR   H07445625  45.126  34.714  30.147
    1STR   H07545626  45.099  34.887  30.144
    1STR   C07645627  44.835  34.892  30.223
    1STR   H07745628  44.793  34.894  30.122
    1STR   H07845629  44.752  34.875  30.291
    1STR   O07945630  44.899  35.016  30.253
    1STR   C08045631  44.817  35.132  30.241
    1STR   H08145632  44.757  35.126  30.150
    1STR   C08245633  44.726  35.145  30.364
    1STR   H08345634  44.784  35.146  30.456
    1STR   H08445635  44.654  35.064  30.370
    1STR   H08545636  44.669  35.238  30.359
    1STR   C08645637  44.911  35.253  30.227
    1STR   H08745638  44.972  35.263  30.317
    1STR   H08845639  44.979  35.236  30.144
    1STR   O08945640  44.834  35.371  30.205
    1STR   C09045641  44.909  35.491  30.195
    1STR   H09145642  44.986  35.494  30.272
    1STR   C09245643  44.972  35.502  30.055
    1STR   H09345644  44.896  35.495  29.977
    1STR   H09445645  45.046  35.424  30.038
    1STR   H09545646  45.023  35.598  30.043
    1STR   C09645647  44.812  35.608  30.221
    1STR   H09745648  44.733  35.609  30.145
    1STR   H09845649  44.763  35.592  30.318
    1STR   O09945650  44.884  35.731  30.222
    1STR   C10045651  44.805  35.847  30.241
    1STR   H10145652  44.713  35.842  30.182
    1STR   C10245653  44.771  35.863  30.391
    1STR   H10345654  44.861  35.864  30.452
    1STR   H10445655  44.707  35.782  30.427
    1STR   H10545656  44.717  35.956  30.408
    1STR   C10645657  44.887  35.967  30.190
    1STR   H10745658  44.978  35.977  30.248
    1STR   H10845659  44.916  35.948  30.087
    1STR   O10945660  44.808  36.086  30.199
    1STR   C11045661  44.874  36.205  30.158
    1STR   H11145662  44.975  36.208  30.197
    1STR   C11245663  44.876  36.214  30.004
    1STR   H11345664  44.775  36.207  29.963
    1STR   H11445665  44.936  36.135  29.960
    1STR   H11545666  44.918  36.309  29.972
    1STR   C11645667  44.796  36.323  30.219
    1STR   H11745668  44.694  36.325  30.181
    1STR   H11845669  44.790  36.309  30.327
    1STR   O11945670  44.864  36.445  30.189
    1STR   C12045671  44.800  36.563  30.237
    1STR   H12145672  44.693  36.558  30.219
    1STR   C12245673  44.828  36.580  30.387
    1STR   H12345674  44.935  36.581  30.407
    1STR   H12445675  44.783  36.501  30.447
    1STR   H12545676  44.787  36.674  30.423
    1STR   C12645677  44.856  36.681  30.156
    1STR   H12745678  44.963  36.691  30.172
    1STR   H12845679  44.841  36.661  30.050
    1STR   O12945680  44.788  36.801  30.194
    1STR   C13045681  44.833  36.919  30.128
    1STR   H13145682  44.942  36.920  30.123
    1STR   C13245683  44.774  36.926  29.986
    1STR   H13345684  44.665  36.920  29.989
    1STR   H13445685  44.810  36.845  29.922
    1STR   H13545686  44.800  37.020  29.938
    1STR   C13645687  44.788  37.038  30.213
    1STR   H13745688  44.679  37.041  30.219
    1STR   H13845689  44.825  37.025  30.315
    1STR   O13945690  44.838  37.159  30.157
    1STR   C14045691  44.800  37.278  30.225
    1STR   H14145692  44.694  37.274  30.252
    1STR   C14245693  44.886  37.297  30.351
    1STR   H14345694  44.992  37.296  30.326
    1STR   H14445695  44.869  37.219  30.424
    1STR   H14545696  44.864  37.392  30.399
    1STR   C14645697  44.819  37.395  30.126
    1STR   H14745698  44.924  37.403  30.098
    1STR   H14845699  44.763  37.374  30.035
    1STR   O14945700  44.773  37.516  30.186
    1STR   C15045701  44.789  37.632  30.106
    1STR   H15145702  44.887  37.633  30.058
    1STR   C15245703  44.678  37.639  30.000
    1STR   H15345704  44.579  37.634  30.046
    1STR   H15445705  44.685  37.557  29.928
    1STR   H15545706  44.684  37.732  29.944
    1STR   C15645707  44.783  37.753  30.201
    1STR   H15745708  44.685  37.758  30.250
    1STR   H15845709  44.857  37.741  30.280
    1STR   O15945710  44.807  37.873  30.127
    1STR   C16045711  44.800  37.993  30.203
    1STR   H16145712  44.714  37.991  30.270
    1STR   C16245713  44.930  38.012  30.284
    1STR   H16345714  45.017  38.010  30.219
    1STR   H16445715  44.942  37.935  30.360
    1STR   H16545716  44.929  38.108  30.336
    1STR   C16645717  44.779  38.108  30.103
    1STR   H16745718  44.865  38.115  30.036
    1STR   H16845719  44.691  38.087  30.043
    1STR   O16945720  44.762  38.230  30.175
    1STR   C17045721  44.746  38.346  30.094
    1STR   H17145722  44.816  38.345  30.011
    1STR   C17245723  44.602  38.353  30.041
    1STR   H17345724  44.529  38.350  30.122
    1STR   H17445725  44.579  38.271  29.973
    1STR   H17545726  44.585  38.446  29.985
    1STR   C17645727  44.779  38.468  30.182
    1STR   H17745728  44.709  38.474  30.265
    1STR   H17845729  44.878  38.456  30.224
    1STR   O17945730  44.773  38.587  30.102
    1STR   C18045731  44.798  38.708  30.173
    1STR   H18145732  44.745  38.707  30.269
    1STR   C18245733  44.949  38.725  30.195
    1STR   H18345734  45.003  38.722  30.101
    1STR   H18445735  44.990  38.649  30.261
    1STR   H18545736  44.970  38.822  30.242
    1STR   C18645737  44.740  38.822  30.088
    1STR   H18745738  44.791  38.827  29.992
    1STR   H18845739  44.635  38.802  30.067
    1STR   O18945740  44.754  38.945  30.159
    1STR   C19045741  44.707  39.061  30.090
    1STR   H19145742  44.739  39.057  29.985
    1STR   C19245743  44.554  39.069  30.098
    1STR   H19345744  44.520  39.068  30.202
    1STR   H19445745  44.506  38.986  30.046
    1STR   H19545746  44.518  39.161  30.052
    1STR   C19645747  44.774  39.183  30.155
    1STR   H19745748  44.743  39.191  30.259
    1STR   H19845749  44.882  39.170  30.154
    1STR   O19945750  44.738  39.301  30.083
    1STR   C20045751  44.790  39.422  30.136
    1STR   H20145752  44.780  39.423  30.244
    1STR   C20245753  44.937  39.438  30.095
    1STR   H20345754  44.949  39.433  29.987
    1STR   H20445755  45.001  39.362  30.140
    1STR   H20545756  44.976  39.535  30.128
    1STR   C20645757  44.704  39.537  30.080
    1STR   H20745758  44.712  39.540  29.971
    1STR   H20845759  44.599  39.517  30.103
    1STR   O20945760  44.746  39.660  30.137
    1STR   C21045761  44.676  39.776  30.091
    1STR   H21145762  44.664  39.771  29.982
    1STR   C21245763  44.539  39.786  30.159
    1STR   H21345764  44.550  39.786  30.268
    1STR   H21445765  44.473  39.703  30.132
    1STR   H21545766  44.488  39.878  30.131
    1STR   C21645767  44.764  39.898  30.122
    1STR   H21745768  44.778  39.907  30.230
    1STR   H21845769  44.863  39.883  30.079
    1STR   O21945770  44.703  40.015  30.069
    1STR   C22045771  44.773  40.137  30.095
    1STR   H22145772  44.808  40.139  30.198
    1STR   C22245773  44.892  40.150  29.999
    1STR   H22345774  44.860  40.143  29.895
    1STR   H22445775  44.967  40.073  30.016
    1STR   H22545776  44.941  40.246  30.012
    1STR   C22645777  44.673  40.252  30.076
    1STR   H22745778  44.637  40.254  29.973
    1STR   H22845779  44.586  40.234  30.140
    1STR   O22945780  44.735  40.375  30.110
    1STR   C23045781  44.654  40.491  30.093
    1STR   H23145782  44.599  40.485  29.999
    1STR   C23245783  44.556  40.503  30.211
    1STR   H23345784  44.609  40.505  30.307
    1STR   H23445785  44.484  40.422  30.214
    1STR   H23545786  44.499  40.596  30.204
    1STR   C23645787  44.748  40.612  30.086
    1STR   H23745788  44.804  40.622  30.179
    1STR   H23845789  44.821  40.596  30.006
    1STR   O23945790  44.672  40.730  30.060
    1STR   C24045791  44.747  40.851  30.054
    1STR   H24145792  44.820  40.854  30.134
    1STR   C24245793  44.818  40.862  29.918
    1STR   H24345794  44.747  40.854  29.835
    1STR   H24445795  44.893  40.784  29.904
    1STR   H24545796  44.869  40.957  29.908
    1STR   C24645797  44.649  40.968  30.075
    1STR   H24745798  44.575  40.969  29.995
    1STR   H24845799  44.595  40.952  30.168
    1STR   O24945800  44.721  41.091  30.079
    1STR   C25045801  44.641  41.208  30.095
    1STR   H25145802  44.552  41.202  30.030
    1STR   C25245803  44.598  41.222  30.242
    1STR   H25345804  44.685  41.223  30.308
    1STR   H25445805  44.532  41.141  30.274
    1STR   H25545806  44.544  41.315  30.257
    1STR   C25645807  44.725  41.328  30.048
    1STR   H25745808  44.813  41.338  30.111
    1STR   H25845809  44.759  41.310  29.947
    1STR   O25945810  44.646  41.447  30.054
    1STR   C26045811  44.713  41.567  30.016
    1STR   H26145812  44.813  41.569  30.061
    1STR   C26245813  44.724  41.574  29.863
    1STR   H26345814  44.626  41.566  29.816
    1STR   H26445815  44.787  41.496  29.822
    1STR   H26545816  44.768  41.669  29.832
    1STR   C26645817  44.633  41.685  30.072
    1STR   H26745818  44.533  41.686  30.029
    1STR   H26845819  44.620  41.671  30.180
    1STR   O26945820  44.701  41.808  30.045
    1STR   C27045821  44.635  41.926  30.091
    1STR   H27145822  44.528  41.921  30.067
    1STR   C27245823  44.655  41.942  30.242
    1STR   H27345824  44.761  41.942  30.268
    1STR   H27445825  44.606  41.862  30.299
    1STR   H27545826  44.612  42.036  30.277
    1STR   C27645827  44.694  42.046  30.014
    1STR   H27745828  44.800  42.055  30.035
    1STR   H27845829  44.685  42.027  29.907
    1STR   O27945830  44.625  42.166  30.049
    1STR   C28045831  44.672  42.285  29.985
    1STR   H28145832  44.781  42.287  29.986
    1STR   C28245833  44.621  42.290  29.840
    1STR   H28345834  44.512  42.282  29.837
    1STR   H28445835  44.662  42.210  29.779
    1STR   H28545836  44.648  42.384  29.793
    1STR   C28645837  44.622  42.406  30.067
    1STR   H28745838  44.513  42.408  30.067
    1STR   H28845839  44.654  42.394  30.170
    1STR   O28945840  44.673  42.528  30.012
    1STR   C29045841  44.633  42.648  30.078
    1STR   H29145842  44.526  42.644  30.100
    1STR   C29245843  44.712  42.664  30.209
    1STR   H29345844  44.819  42.662  30.191
    1STR   H29445845  44.689  42.586  30.281
    1STR   H29545846  44.689  42.759  30.257
    1STR   C29645847  44.658  42.767  29.983
    1STR   H29745848  44.765  42.773  29.959
    1STR   H29845849  44.606  42.748  29.889
    1STR   O29945850  44.613  42.890  30.041
    1STR   C30045851  44.633  43.007  29.961
    1STR   H30145852  44.732  43.005  29.916
    1STR   C30245853  44.526  43.012  29.850
    1STR   H30345854  44.426  43.007  29.892
    1STR   H30445855  44.537  42.931  29.779
    1STR   H30545856  44.533  43.105  29.794
    1STR   C30645857  44.625  43.132  30.052
    1STR   H30745858  44.525  43.141  30.094
    1STR   H30845859  44.693  43.117  30.135
    1STR   O30945860  44.659  43.252  29.979
    1STR    H1R45861  44.561  43.379  30.109
    1STR    H1S45862  44.778  43.475  30.203
    1STR    H1T45863  44.868  43.366  30.099
    1STR    H1U45864  44.768  43.303  30.230
    1STR    H1V45865  44.586  43.485  29.879
    1STR    H1W45866  44.757  43.498  29.907
    1STR    H1X45867  44.583  43.797  30.137
    1STR    H1Y45868  44.626  43.968  30.293
    1STR    H1Z45869  44.711  44.192  30.340
    1STR    H2045870  44.962  44.336  30.200
    1STR    H2145871  44.848  44.437  30.113
    1STR    H2245872  44.815  44.393  30.279
    1STR    H2345873  44.933  44.194  29.858
    1STR    H2745874  44.767  44.000  29.887
    1STR    H2845875  44.862  31.412  30.440
    1STR    H2945876  44.785  31.185  30.456
    1STR    H2A45877  44.761  30.946  30.184
    1STR    H2B45878  44.705  30.993  30.344
    1STR    H2C45879  44.863  30.915  30.327
    1STR   BCK145880  45.127  30.944  44.985
    1STR    O0345881  45.223  30.881  44.943
    1STR    N0445882  45.133  31.068  45.038
    1STR    C0545883  45.241  31.157  45.060
    1STR    C0645884  45.221  31.298  45.043
    1STR    C0745885  45.325  31.395  45.064
    1STR    N0845886  45.301  31.534  45.052
    1STR    C0945887  45.388  31.638  45.045
    1STR    O0A45888  45.510  31.625  45.038
    1STR    O0B45889  45.325  31.760  45.044
    1STR    C0C45890  45.403  31.881  45.029
    1STR    C0D45891  45.437  31.901  44.880
    1STR    C0E45892  45.330  32.007  45.085
    1STR    O0F45893  45.408  32.126  45.064
    1STR    C0G45894  45.352  32.250  45.113
    1STR    C0H45895  45.374  32.259  45.265
    1STR    C0I45896  45.419  32.371  45.042
    1STR    O0J45897  45.359  32.494  45.085
    1STR    C0K45898  45.407  43.398  45.401
    1STR    C0M45899  45.409  43.377  45.248
    1STR    C0N45900  45.315  43.519  45.434
    1STR    O0O45901  45.363  43.641  45.374
    1STR    C0P45902  45.281  43.739  45.325
    1STR    O0Q45903  45.159  43.731  45.312
    1STR    N0R45904  45.354  43.846  45.294
    1STR    C0S45905  45.333  43.976  45.243
    1STR    C0T45906  45.443  44.062  45.260
    1STR    C0U45907  45.445  44.190  45.204
    1STR    C0V45908  45.337  44.237  45.127
    1STR    C0W45909  45.358  44.369  45.054
    1STR    C0X45910  45.219  44.159  45.114
    1STR    N0Y45911  45.113  44.207  45.033
    1STR   BCK245912  45.055  44.330  45.030
    1STR    O1045913  45.067  44.414  45.118
    1STR    C1345914  45.220  44.027  45.171
    1STR    C1445915  45.452  31.345  45.101
    1STR    C1545916  45.473  31.208  45.121
    1STR    C1645917  45.369  31.114  45.106
    1STR    C1745918  45.401  30.972  45.148
    1STR    H1B45919  45.042  31.104  45.061
    1STR    H1C45920  45.124  31.333  45.013
    1STR    H1D45921  45.206  31.565  45.049
    1STR    H1E45922  45.496  31.870  45.085
    1STR    H1F45923  45.347  31.912  44.819
    1STR    H1G45924  45.498  31.990  44.866
    1STR    H1H45925  45.494  31.816  44.841
    1STR    H1I45926  45.313  31.992  45.192
    1STR    H1J45927  45.233  32.018  45.038
    1STR    H1K45928  45.246  32.253  45.090
    1STR    H1M45929  45.480  32.253  45.290
    1STR    H1N45930  45.322  32.180  45.319
    1STR    H1O45931  45.337  32.354  45.303
    1STR    H1P45932  45.526  32.372  45.062
    1STR    H1Q45933  45.407  32.360  44.934
    1STR   C01045934  45.414  32.615  45.031
    1STR   H01145935  45.523  32.611  45.035
    1STR   C01245936  45.367  32.634  44.886
    1STR   H01345937  45.258  32.634  44.880
    1STR   H01445938  45.405  32.556  44.820
    1STR   H01545939  45.402  32.729  44.847
    1STR   C01645940  45.368  32.734  45.119
    1STR   H01745941  45.259  32.740  45.120
    1STR   H01845942  45.399  32.716  45.222
    1STR   O01945943  45.424  32.858  45.072
    1STR   C02045944  45.385  32.975  45.144
    1STR   H02145945  45.278  32.973  45.164
    1STR   C02245946  45.462  32.984  45.277
    1STR   H02345947  45.570  32.982  45.260
    1STR   H02445948  45.437  32.902  45.344
    1STR   H02545949  45.439  33.076  45.329
    1STR   C02645950  45.414  33.100  45.056
    1STR   H02745951  45.521  33.106  45.035
    1STR   H02845952  45.363  33.088  44.961
    1STR   O02945953  45.370  33.219  45.123
    1STR   C03045954  45.396  33.341  45.054
    1STR   H03145955  45.497  33.341  45.012
    1STR   C03245956  45.293  33.360  44.941
    1STR   H03345957  45.191  33.356  44.979
    1STR   H03445958  45.302  33.284  44.863
    1STR   H03545959  45.306  33.456  44.892
    1STR   C03645960  45.387  33.457  45.155
    1STR   H03745961  45.286  33.461  45.198
    1STR   H03845962  45.456  33.438  45.237
    1STR   O03945963  45.419  33.581  45.092
    1STR   C04045964  45.410  33.697  45.174
    1STR   H04145965  45.319  33.693  45.235
    1STR   C04245966  45.534  33.706  45.265
    1STR   H04345967  45.626  33.705  45.207
    1STR   H04445968  45.539  33.624  45.336
    1STR   H04545969  45.532  33.798  45.323
    1STR   C04645970  45.400  33.820  45.082
    1STR   H04745971  45.490  33.828  45.021
    1STR   H04845972  45.316  33.807  45.015
    1STR   O04945973  45.383  33.939  45.161
    1STR   C05045974  45.376  34.061  45.087
    1STR   H05145975  45.453  34.062  45.009
    1STR   C05245976  45.237  34.077  45.025
    1STR   H05345977  45.159  34.071  45.101
    1STR   H05445978  45.216  34.001  44.950
    1STR   H05545979  45.228  34.173  44.975
    1STR   C05645980  45.407  34.176  45.185
    1STR   H05745981  45.332  34.179  45.264
    1STR   H05845982  45.503  34.157  45.233
    1STR   O05945983  45.410  34.300  45.114
    1STR   C06045984  45.434  34.415  45.194
    1STR   H06145985  45.376  34.410  45.286
    1STR   C06245986  45.584  34.426  45.227
    1STR   H06345987  45.644  34.427  45.136
    1STR   H06445988  45.618  34.344  45.290
    1STR   H06545989  45.605  34.518  45.281
    1STR   C06645990  45.386  34.538  45.114
    1STR   H06745991  45.443  34.547  45.022
    1STR   H06845992  45.282  34.523  45.086
    1STR   O06945993  45.399  34.655  45.194
    1STR   C07045994  45.361  34.777  45.130
    1STR   H07145995  45.400  34.779  45.028
    1STR   C07245996  45.208  34.790  45.128
    1STR   H07345997  45.167  34.783  45.229
    1STR   H07445998  45.161  34.713  45.067
    1STR   H07545999  45.178  34.887  45.087
    1STR   C07646000  45.427  34.892  45.207
    1STR   H07746001  45.389  34.894  45.310
    1STR   H07846002  45.534  34.875  45.213
    1STR   O07946003  45.400  35.016  45.141
    1STR   C08046004  45.452  35.132  45.206
    1STR   H08146005  45.435  35.126  45.314
    1STR   C08246006  45.602  35.145  45.177
    1STR   H08346007  45.621  35.146  45.069
    1STR   H08446008  45.660  35.063  45.220
    1STR   H08546009  45.641  35.238  45.218
    1STR   C08646010  45.374  35.253  45.152
    1STR   H08746011  45.389  35.263  45.045
    1STR   H08846012  45.267  35.236  45.168
    1STR   O08946013  45.416  35.371  45.221
    1STR   C09046014  45.353  35.491  45.178
    1STR   H09146015  45.348  35.494  45.069
    1STR   C09246016  45.212  35.502  45.238
    1STR   H09346017  45.215  35.495  45.347
    1STR   H09446018  45.146  35.424  45.201
    1STR   H09546019  45.167  35.598  45.213
    1STR   C09646020  45.443  35.608  45.224
    1STR   H09746021  45.449  35.609  45.333
    1STR   H09846022  45.544  35.592  45.186
    1STR   O09946023  45.390  35.731  45.175
    1STR   C10046024  45.462  35.847  45.213
    1STR   H10146025  45.489  35.842  45.319
    1STR   C10246026  45.588  35.863  45.127
    1STR   H10346027  45.562  35.864  45.021
    1STR   H10446028  45.659  35.782  45.143
    1STR   H10546029  45.639  35.956  45.150
    1STR   C10646030  45.367  35.967  45.196
    1STR   H10746031  45.338  35.977  45.091
    1STR   H10846032  45.275  35.949  45.252
    1STR   O10946033  45.431  36.086  45.243
    1STR   C11046034  45.354  36.205  45.229
    1STR   H11146035  45.306  36.208  45.131
    1STR   C11246036  45.249  36.214  45.340
    1STR   H11346037  45.295  36.207  45.439
    1STR   H11446038  45.174  36.135  45.333
    1STR   H11546039  45.196  36.308  45.336
    1STR   C11646040  45.453  36.323  45.236
    1STR   H11746041  45.502  36.325  45.333
    1STR   H11846042  45.531  36.309  45.161
    1STR   O11946043  45.383  36.445  45.212
    1STR   C12046044  45.462  36.563  45.220
    1STR   H12146045  45.529  36.558  45.306
    1STR   C12246046  45.543  36.580  45.090
    1STR   H12346047  45.477  36.581  45.003
    1STR   H12446048  45.616  36.501  45.077
    1STR   H12546049  45.597  36.675  45.091
    1STR   C12646050  45.366  36.681  45.243
    1STR   H12746051  45.298  36.691  45.158
    1STR   H12846052  45.305  36.661  45.331
    1STR   O12946053  45.441  36.801  45.261
    1STR   C13046054  45.364  36.919  45.279
    1STR   H13146055  45.280  36.920  45.209
    1STR   C13246056  45.312  36.925  45.423
    1STR   H13346057  45.394  36.919  45.495
    1STR   H13446058  45.242  36.845  45.445
    1STR   H13546059  45.260  37.020  45.441
    1STR   C13646060  45.455  37.038  45.247
    1STR   H13746061  45.539  37.041  45.316
    1STR   H13846062  45.497  37.025  45.147
    1STR   O13946063  45.379  37.159  45.254
    1STR   C14046064  45.453  37.278  45.230
    1STR   H14146065  45.550  37.274  45.281
    1STR   C14246066  45.475  37.297  45.079
    1STR   H14346067  45.380  37.296  45.025
    1STR   H14446068  45.538  37.219  45.036
    1STR   H14546069  45.524  37.392  45.058
    1STR   C14646070  45.373  37.395  45.289
    1STR   H14746071  45.276  37.403  45.239
    1STR   H14846072  45.352  37.374  45.394
    1STR   O14946073  45.447  37.516  45.276
    1STR   C15046074  45.382  37.633  45.324
    1STR   H15146075  45.277  37.633  45.293
    1STR   C15246076  45.392  37.639  45.478
    1STR   H15346077  45.496  37.634  45.511
    1STR   H15446078  45.338  37.558  45.526
    1STR   H15546079  45.350  37.732  45.515
    1STR   C15646080  45.451  37.753  45.259
    1STR   H15746081  45.556  37.758  45.289
    1STR   H15846082  45.449  37.741  45.151
    1STR   O15946083  45.383  37.873  45.296
    1STR   C16046084  45.439  37.993  45.245
    1STR   H16146085  45.548  37.991  45.254
    1STR   C16246086  45.398  38.012  45.098
    1STR   H16346087  45.290  38.010  45.087
    1STR   H16446088  45.440  37.935  45.034
    1STR   H16546089  45.433  38.108  45.060
    1STR   C16646090  45.387  38.109  45.333
    1STR   H16746091  45.278  38.115  45.325
    1STR   H16846092  45.411  38.087  45.437
    1STR   O16946093  45.448  38.231  45.292
    1STR   C17046094  45.406  38.347  45.362
    1STR   H17146095  45.297  38.345  45.376
    1STR   C17246096  45.476  38.353  45.499
    1STR   H17346097  45.584  38.350  45.488
    1STR   H17446098  45.447  38.271  45.564
    1STR   H17546099  45.451  38.446  45.551
    1STR   C17646100  45.440  38.469  45.275
    1STR   H17746101  45.548  38.474  45.261
    1STR   H17846102  45.396  38.456  45.177
    1STR   O17946103  45.391  38.587  45.338
    1STR   C18046104  45.420  38.708  45.269
    1STR   H18146105  45.524  38.707  45.234
    1STR   C18246106  45.324  38.726  45.151
    1STR   H18346107  45.220  38.722  45.184
    1STR   H18446108  45.338  38.649  45.074
    1STR   H18546109  45.339  38.822  45.102
    1STR   C18646110  45.406  38.823  45.371
    1STR   H18746111  45.303  38.827  45.407
    1STR   H18846112  45.470  38.802  45.457
    1STR   O18946113  45.443  38.946  45.309
    1STR   C19046114  45.431  39.061  45.392
    1STR   H19146115  45.337  39.057  45.447
    1STR   C19246116  45.549  39.069  45.489
    1STR   H19346117  45.644  39.068  45.436
    1STR   H19446118  45.550  38.986  45.560
    1STR   H19546119  45.545  39.161  45.547
    1STR   C19646120  45.426  39.183  45.299
    1STR   H19746121  45.519  39.191  45.243
    1STR   H19846122  45.346  39.170  45.226
    1STR   O19946123  45.404  39.301  45.376
    1STR   C20046124  45.401  39.423  45.302
    1STR   H20146125  45.482  39.424  45.228
    1STR   C20246126  45.265  39.438  45.232
    1STR   H20346127  45.183  39.433  45.304
    1STR   H20446128  45.248  39.362  45.157
    1STR   H20546129  45.258  39.535  45.182
    1STR   C20646130  45.427  39.537  45.401
    1STR   H20746131  45.347  39.540  45.476
    1STR   H20846132  45.520  39.518  45.454
    1STR   O20946133  45.434  39.661  45.331
    1STR   C21046134  45.454  39.776  45.412
    1STR   H21146135  45.390  39.771  45.500
    1STR   C21246136  45.602  39.786  45.454
    1STR   H21346137  45.667  39.786  45.367
    1STR   H21446138  45.632  39.704  45.518
    1STR   H21546139  45.620  39.878  45.509
    1STR   C21646140  45.411  39.898  45.329
    1STR   H21746141  45.474  39.908  45.241
    1STR   H21846142  45.309  39.884  45.295
    1STR   O21946143  45.420  40.016  45.410
    1STR   C22046144  45.386  40.137  45.344
    1STR   H22146145  45.430  40.140  45.244
    1STR   C22246146  45.233  40.150  45.334
    1STR   H22346147  45.187  40.144  45.433
    1STR   H22446148  45.189  40.074  45.271
    1STR   H22546149  45.205  40.247  45.292
    1STR   C22646150  45.447  40.253  45.425
    1STR   H22746151  45.404  40.255  45.525
    1STR   H22846152  45.554  40.235  45.436
    1STR   O22946153  45.423  40.377  45.358
    1STR   C23046154  45.472  40.493  45.425
    1STR   H23146155  45.450  40.487  45.532
    1STR   C23246156  45.624  40.505  45.404
    1STR   H23346157  45.649  40.505  45.298
    1STR   H23446158  45.679  40.423  45.451
    1STR   H23546159  45.662  40.597  45.448
    1STR   C23646160  45.398  40.615  45.367
    1STR   H23746161  45.420  40.624  45.261
    1STR   H23846162  45.291  40.598  45.377
    1STR   O23946163  45.437  40.733  45.437
    1STR   C24046164  45.377  40.854  45.391
    1STR   H24146165  45.377  40.857  45.282
    1STR   C24246166  45.233  40.863  45.444
    1STR   H24346167  45.230  40.855  45.553
    1STR   H24446168  45.169  40.786  45.403
    1STR   H24546169  45.188  40.959  45.417
    1STR   C24646170  45.463  40.971  45.442
    1STR   H24746171  45.464  40.972  45.551
    1STR   H24846172  45.566  40.955  45.409
    1STR   O24946173  45.413  41.095  45.392
    1STR   C25046174  45.483  41.212  45.433
    1STR   H25146175  45.505  41.206  45.540
    1STR   C25246176  45.614  41.225  45.354
    1STR   H25346177  45.594  41.225  45.246
    1STR   H25446178  45.684  41.144  45.375
    1STR   H25546179  45.664  41.318  45.378
    1STR   C25646180  45.391  41.333  45.410
    1STR   H25746181  45.368  41.343  45.304
    1STR   H25846182  45.297  41.315  45.462
    1STR   O25946183  45.453  41.453  45.459
    1STR   C26046184  45.377  41.573  45.442
    1STR   H26146185  45.334  41.576  45.342
    1STR   C26246186  45.266  41.579  45.548
    1STR   H26346187  45.306  41.570  45.648
    1STR   H26446188  45.192  41.500  45.534
    1STR   H26546189  45.212  41.674  45.542
    1STR   C26646190  45.474  41.693  45.456
    1STR   H26746191  45.519  41.693  45.555
    1STR   H26846192  45.555  41.680  45.384
    1STR   O26946193  45.405  41.817  45.431
    1STR   C27046194  45.485  41.935  45.441
    1STR   H27146195  45.548  41.930  45.530
    1STR   C27246196  45.572  41.949  45.316
    1STR   H27346197  45.512  41.947  45.225
    1STR   H27446198  45.646  41.869  45.308
    1STR   H27546199  45.627  42.043  45.317
    1STR   C27646200  45.390  42.057  45.457
    1STR   H27746201  45.326  42.065  45.369
    1STR   H27846202  45.325  42.039  45.542
    1STR   O27946203  45.464  42.179  45.475
    1STR   C28046204  45.387  42.299  45.492
    1STR   H28146205  45.306  42.301  45.418
    1STR   C28246206  45.327  42.301  45.634
    1STR   H28346207  45.405  42.291  45.709
    1STR   H28446208  45.255  42.221  45.650
    1STR   H28546209  45.275  42.395  45.652
    1STR   C28646210  45.477  42.423  45.468
    1STR   H28746211  45.558  42.424  45.540
    1STR   H28846212  45.523  42.412  45.369
    1STR   O28946213  45.402  42.545  45.475
    1STR   C29046214  45.475  42.667  45.451
    1STR   H29146215  45.569  42.665  45.508
    1STR   C29246216  45.506  42.679  45.301
    1STR   H29346217  45.415  42.673  45.242
    1STR   H29446218  45.574  42.601  45.266
    1STR   H29546219  45.554  42.774  45.279
    1STR   C29646220  45.392  42.789  45.500
    1STR   H29746221  45.296  42.790  45.448
    1STR   H29846222  45.369  42.774  45.606
    1STR   O29946223  45.459  42.915  45.481
    1STR   C30046224  45.388  43.033  45.523
    1STR   H30146225  45.284  43.025  45.492
    1STR   C30246226  45.396  43.043  45.677
    1STR   H30346227  45.499  43.039  45.711
    1STR   H30446228  45.341  42.962  45.726
    1STR   H30546229  45.353  43.137  45.712
    1STR   C30646230  45.448  43.160  45.456
    1STR   H30746231  45.547  43.181  45.497
    1STR   H30846232  45.463  43.135  45.351
    1STR   O30946233  45.363  43.277  45.467
    1STR    H1R46234  45.508  43.421  45.435
    1STR    H1S46235  45.433  43.470  45.197
    1STR    H1T46236  45.311  43.344  45.213
    1STR    H1U46237  45.483  43.304  45.216
    1STR    H1V46238  45.311  43.534  45.542
    1STR    H1W46239  45.212  43.499  45.403
    1STR    H1X46240  45.450  43.826  45.318
    1STR    H1Y46241  45.530  44.031  45.316
    1STR    H1Z46242  45.533  44.252  45.216
    1STR    H2046243  45.311  44.367  44.955
    1STR    H2146244  45.315  44.452  45.111
    1STR    H2246245  45.464  44.390  45.039
    1STR    H2346246  45.077  44.143  44.964
    1STR    H2746247  45.134  43.962  45.158
    1STR    H2846248  45.536  31.410  45.118
    1STR    H2946249  45.571  31.175  45.153
    1STR    H2A46250  45.313  30.922  45.189
    1STR    H2B46251  45.478  30.970  45.225
    1STR    H2C46252  45.438  30.915  45.063
    1STR   BCK146253  44.975  45.971  60.066
    1STR    O0346254  44.870  45.962  60.128
    1STR    N0446255  45.027  46.089  60.026
    1STR    C0546256  44.949  46.201  59.989
    1STR    C0646257  44.970  46.333  60.041
    1STR    C0746258  44.895  46.446  59.993
    1STR    N0846259  44.919  46.578  60.038
    1STR    C0946260  44.853  46.693  60.009
    1STR    O0A46261  44.751  46.699  59.941
    1STR    O0B46262  44.911  46.806  60.061
    1STR    C0C46263  44.848  46.934  60.036
    1STR    C0D46264  44.728  46.953  60.130
    1STR    C0E46265  44.945  47.055  60.046
    1STR    O0F46266  44.874  47.175  60.011
    1STR    C0G46267  44.948  47.298  60.011
    1STR    C0H46268  45.033  47.306  59.883
    1STR    C0I46269  44.850  47.417  60.018
    1STR    O0J46270  44.923  47.541  60.026
    1STR    C0K46271  45.103  58.424  59.702
    1STR    C0M46272  45.011  58.428  59.825
    1STR    C0N46273  45.201  58.545  59.704
    1STR    O0O46274  45.139  58.667  59.658
    1STR    C0P46275  45.110  58.770  59.742
    1STR    O0Q46276  45.129  58.771  59.863
    1STR    N0R46277  45.053  58.869  59.673
    1STR    C0S46278  44.979  58.978  59.719
    1STR    C0T46279  44.842  58.978  59.685
    1STR    C0U46280  44.758  59.081  59.730
    1STR    C0V46281  44.808  59.188  59.806
    1STR    C0W46282  44.707  59.283  59.869
    1STR    C0X46283  44.948  59.199  59.828
    1STR    N0Y46284  45.001  59.308  59.898
    1STR   BCK246285  44.983  59.441  59.884
    1STR    O1046286  45.024  59.517  59.971
    1STR    C1346287  45.032  59.090  59.789
    1STR    C1446288  44.798  46.419  59.894
    1STR    C1546289  44.778  46.291  59.841
    1STR    C1646290  44.855  46.183  59.885
    1STR    C1746291  44.836  46.050  59.814
    1STR    H1B46292  45.122  46.087  59.995
    1STR    H1C46293  45.045  46.348  60.117
    1STR    H1D46294  44.996  46.594  60.101
    1STR    H1E46295  44.811  46.935  59.933
    1STR    H1F46296  44.758  46.956   0.075
    1STR    H1G46297  44.675  47.046  60.108
    1STR    H1H46298  44.655  46.872  60.119
    1STR    H1I46299  45.029  47.039  59.979
    1STR    H1J46300  44.985  47.063  60.147
    1STR    H1K46301  45.013  47.302  60.099
    1STR    H1M46302  44.971  47.299  59.794
    1STR    H1N46303  45.108  47.227  59.878
    1STR    H1O46304  45.086  47.401  59.878
    1STR    H1P46305  44.785  47.418  59.931
    1STR    H1Q46306  44.786  47.406  60.105
    1STR   C01046307  44.845  47.661  60.028
    1STR   H01146308  44.767  47.656  59.952
    1STR   C01246309  44.781  47.680   0.007
    1STR   H01346310  44.856  47.680   0.085
    1STR   H01446311  44.708  47.602   0.029
    1STR   H01546312  44.728  47.775   0.012
    1STR   C01646313  44.938  47.780  59.994
    1STR   H01746314  45.018  47.786  60.068
    1STR   H01846315  44.985  47.760  59.898
    1STR   O01946316  44.864  47.902  59.989
    1STR   C02046317  44.941  48.020  59.963
    1STR   H02146318  45.033  48.018  60.021
    1STR   C02246319  44.974  48.028  59.813
    1STR   H02346320  44.883  48.025  59.752
    1STR   H02446321  45.038  47.946  59.780
    1STR   H02546322  45.026  48.121  59.790
    1STR   C02646323  44.860  48.143  60.008
    1STR   H02746324  44.767  48.149  59.951
    1STR   H02846325  44.833  48.131  60.113
    1STR   O02946326  44.937  48.262  59.989
    1STR   C03046327  44.872  48.384  60.024
    1STR   H03146328  44.769  48.384  59.986
    1STR   C03246329  44.871  48.402   0.016
    1STR   H03346330  44.972  48.399   0.057
    1STR   H03446331  44.812  48.326   0.067
    1STR   H03546332  44.829  48.499   0.043
    1STR   C03646333  44.947  48.500  59.954
    1STR   H03746334  45.050  48.504  59.991
    1STR   H03846335  44.952  48.480  59.847
    1STR   O03946336  44.880  48.623  59.979
    1STR   C04046337  44.942  48.739  59.924
    1STR   H04146338  45.050  48.735  59.940
    1STR   C04246339  44.913  48.748  59.773
    1STR   H04346340  44.805  48.747  59.754
    1STR   H04446341  44.957  48.665  59.718
    1STR   H04546342  44.953  48.840  59.731
    1STR   C04646343  44.888  48.862  59.998
    1STR   H04746344  44.780  48.870  59.983
    1STR   H04846345  44.904  48.849  60.105
    1STR   O04946346  44.954  48.980  59.952
    1STR   C05046347  44.909  49.102  60.011
    1STR   H05146348  44.800  49.103  60.017
    1STR   C05246349  44.970  49.118  60.151
    1STR   H05346350  45.078  49.112  60.148
    1STR   H05446351  44.934  49.042   0.061
    1STR   H05546352  44.943  49.214   0.034
    1STR   C05646353  44.952  49.217  59.918
    1STR   H05746354  45.061  49.220  59.911
    1STR   H05846355  44.914  49.198  59.818
    1STR   O05946356  44.902  49.341  59.968
    1STR   C06046357  44.938  49.456  59.893
    1STR   H06146358  45.044  49.451  59.865
    1STR   C06246359  44.851  49.467  59.768
    1STR   H06346360  44.745  49.467  59.793
    1STR   H06446361  44.868  49.385  59.698
    1STR   H06546362  44.872  49.559  59.714
    1STR   C06646363  44.920  49.578  59.985
    1STR   H06746364  44.815  49.588  60.014
    1STR   H06846365  44.977  49.563  60.076
    1STR   O06946366  44.964  49.696  59.917
    1STR   C07046367  44.948  49.817  59.990
    1STR   H07146368  44.851  49.820  60.039
    1STR   C07246369  45.060  49.831  60.094
    1STR   H07346370  45.159  49.824  60.048
    1STR   H07446371  45.054  49.754   0.011
    1STR   H07546372  45.055  49.927  60.145
    1STR   C07646373  44.953  49.933  59.888
    1STR   H07746374  45.050  49.935  59.838
    1STR   H07846375  44.877  49.915  59.811
    1STR   O07946376  44.928  50.056  59.955
    1STR   C08046377  44.933  50.172  59.872
    1STR   H08146378  45.019  50.166  59.804
    1STR   C08246379  44.803  50.185  59.792
    1STR   H08346380  44.716  50.187  59.858
    1STR   H08446381  44.790  50.104  59.721
    1STR   H08546382  44.802  50.278  59.735
    1STR   C08646383  44.955  50.293  59.965
    1STR   H08746384  44.871  50.303  60.033
    1STR   H08846385  45.044  50.276  60.025
    1STR   O08946386  44.970  50.411  59.886
    1STR   C09046387  44.987  50.532  59.959
    1STR   H09146388  44.917  50.534  60.043
    1STR   C09246389  45.132  50.542  60.010
    1STR   H09346390  45.203  50.535  59.928
    1STR   H09446391  45.156  50.464  60.083
    1STR   H09546392  45.148  50.638  60.060
    1STR   C09646393  44.952  50.648  59.865
    1STR   H09746394  45.021  50.650  59.781
    1STR   H09846395  44.852  50.632  59.825
    1STR   O09946396  44.958  50.771  59.937
    1STR   C10046397  44.931  50.888  59.860
    1STR   H10146398  44.982  50.882  59.764
    1STR   C10246399  44.780  50.903  59.839
    1STR   H10346400  44.727  50.904  59.934
    1STR   H10446401  44.738  50.822  59.779
    1STR   H10546402  44.758  50.996  59.787
    1STR   C10646403  44.990  51.007  59.937
    1STR   H10746404  44.940  51.017  60.034
    1STR   H10846405  45.095  50.988  59.958
    1STR   O10946406  44.974  51.126  59.860
    1STR   C11046407  45.021  51.245  59.921
    1STR   H11146408  44.990  51.248  60.026
    1STR   C11246409  45.174  51.254  59.910
    1STR   H11346410  45.206  51.247  59.806
    1STR   H11446411  45.224  51.175  59.966
    1STR   H11546412  45.210  51.348  59.950
    1STR   C11646413  44.953  51.363  59.850
    1STR   H11746414  44.982  51.365  59.745
    1STR   H11846415  44.845  51.349  59.853
    1STR   O11946416  44.989  51.485  59.915
    1STR   C12046417  44.936  51.603  59.855
    1STR   H12146418  44.944  51.598  59.747
    1STR   C12246419  44.788  51.620  59.897
    1STR   H12346420  44.778  51.621  60.005
    1STR   H12446421  44.725  51.541  59.857
    1STR   H12546422  44.749  51.715  59.859
    1STR   C12646423  45.022  51.721  59.903
    1STR   H12746424  45.015  51.731  60.012
    1STR   H12846425  45.126  51.701  59.880
    1STR   O12946426  44.978  51.841  59.839
    1STR   C13046427  45.047  51.959  59.878
    1STR   H13146428  45.061  51.960  59.986
    1STR   C13246429  45.183  51.966  59.807
    1STR   H13346430  45.171  51.959  59.699
    1STR   H13446431  45.250  51.885  59.838
    1STR   H13546432  45.234  52.060  59.829
    1STR   C13646433  44.958  52.078  59.840
    1STR   H13746434  44.943  52.081  59.732
    1STR   H13846435  44.860  52.065  59.886
    1STR   O13946436  45.019  52.199  59.886
    1STR   C14046437  44.948  52.318  59.854
    1STR   H14146438  44.912  52.314  59.751
    1STR   C14246439  44.830  52.337  59.950
    1STR   H14346440  44.864  52.336  60.054
    1STR   H14446441  44.755  52.259  59.939
    1STR   H14546442  44.780  52.432  59.932
    1STR   C14646443  45.048  52.435  59.864
    1STR   H14746444  45.085  52.443  59.966
    1STR   H14846445  45.134  52.414  59.800
    1STR   O14946446  44.984  52.556  59.824
    1STR   C15046447  45.065  52.673  59.832
    1STR   H15146448  45.121  52.673  59.926
    1STR   C15246449  45.161  52.679  59.713
    1STR   H15346450  45.107  52.674  59.618
    1STR   H15446451  45.234  52.598  59.714
    1STR   H15546452  45.218  52.772  59.714
    1STR   C15646453  44.970  52.794  59.834
    1STR   H15746454  44.913  52.798  59.741
    1STR   H15846455  44.898  52.781  59.915
    1STR   O15946456  45.046  52.913  59.853
    1STR   C16046457  44.970  53.033  59.852
    1STR   H16146458  44.895  53.031  59.772
    1STR   C16246459  44.900  53.052  59.988
    1STR   H16346460  44.973  53.050  60.070
    1STR   H16446461  44.826  52.975  60.007
    1STR   H16546462  44.849  53.148  59.992
    1STR   C16646463  45.067  53.149  59.823
    1STR   H16746464  45.142  53.155  59.902
    1STR   H16846465  45.120  53.127  59.730
    1STR   O16946466  44.994  53.271  59.812
    1STR   C17046467  45.073  53.387  59.788
    1STR   H17146468  45.162  53.385  59.852
    1STR   C17246469  45.114  53.393  59.640
    1STR   H17346470  45.026  53.390  59.575
    1STR   H17446471  45.180  53.311  59.612
    1STR   H17546472  45.168  53.486  59.619
    1STR   C17646473  44.989  53.508  59.829
    1STR   H17746474  44.900  53.514  59.766
    1STR   H17846475  44.955  53.496  59.932
    1STR   O17946476  45.067  53.627  59.816
    1STR   C18046477  44.999  53.748  59.847
    1STR   H18146478  44.899  53.747  59.804
    1STR   C18246479  44.990  53.766  60.000
    1STR   H18346480  45.089  53.762  60.046
    1STR   H18446481  44.929  53.689  60.046
    1STR   H18546482  44.946  53.862  60.025
    1STR   C18646483  45.079  53.863  59.782
    1STR   H18746484  45.179  53.867  59.825
    1STR   H18846485  45.090  53.842  59.676
    1STR   O18946486  45.009  53.985  59.802
    1STR   C19046487  45.074  54.101  59.750
    1STR   H19146488  45.181  54.097  59.772
    1STR   C19246489  45.053  54.109  59.598
    1STR   H19346490  44.947  54.108  59.573
    1STR   H19446491  45.100  54.026  59.545
    1STR   H19546492  45.095  54.201  59.558
    1STR   C19646493  45.015  54.223  59.821
    1STR   H19746494  44.908  54.231  59.800
    1STR   H19846495  45.025  54.210  59.929
    1STR   O19946496  45.084  54.341  59.779
    1STR   C20046497  45.036  54.462  59.836
    1STR   H20146498  44.926  54.463  59.836
    1STR   C20246499  45.089  54.478  59.979
    1STR   H20346500  45.198  54.473  59.982
    1STR   H20446501  45.050  54.402  60.046
    1STR   H20546502  45.060  54.575  60.021
    1STR   C20646503  45.084  54.577  59.745
    1STR   H20746504  45.193  54.580  59.744
    1STR   H20846505  45.051  54.557  59.643
    1STR   O20946506  45.030  54.700  59.792
    1STR   C21046507  45.071  54.816  59.719
    1STR   H21146508  45.177  54.811  59.697
    1STR   C21246509  44.990  54.826  59.588
    1STR   H21346510  44.883  54.826  59.609
    1STR   H21446511  45.011  54.743  59.520
    1STR   H21546512  45.014  54.918  59.535
    1STR   C21646513  45.047  54.938  59.809
    1STR   H21746514  44.940  54.947  59.832
    1STR   H21846515  45.099  54.923  59.904
    1STR   O21946516  45.094  55.055  59.744
    1STR   C22046517  45.075  55.177  59.816
    1STR   H22146518  44.975  55.179  59.859
    1STR   C22246519  45.181  55.190  59.926
    1STR   H22346520  45.282  55.183  59.884
    1STR   H22446521  45.171  55.113  60.002
    1STR   H22546522  45.173  55.286  59.976
    1STR   C22646523  45.085  55.292  59.714
    1STR   H22746524  45.184  55.294  59.669
    1STR   H22846525  45.013  55.274  59.634
    1STR   O22946526  45.057  55.416  59.780
    1STR   C23046527  45.066  55.531  59.697
    1STR   H23146528  45.155  55.526  59.634
    1STR   C23246529  44.940  55.544  59.610
    1STR   H23346530  44.850  55.545  59.671
    1STR   H23446531  44.931  55.462  59.538
    1STR   H23546532  44.942  55.636  59.552
    1STR   C23646533  45.082  55.653  59.790
    1STR   H23746534  44.994  55.663  59.854
    1STR   H23846535  45.167  55.636  59.855
    1STR   O23946536  45.101  55.771  59.712
    1STR   C24046537  45.114  55.892  59.786
    1STR   H24146538  45.040  55.895  59.866
    1STR   C24246539  45.256  55.902  59.845
    1STR   H24346540  45.331  55.894  59.766
    1STR   H24446541  45.276  55.824  59.918
    1STR   H24546542  45.270  55.998  59.895
    1STR   C24646543  45.084  56.009  59.690
    1STR   H24746544  45.157  56.010  59.609
    1STR   H24846545  44.986  55.993  59.645
    1STR   O24946546  45.087  56.132  59.762
    1STR   C25046547  45.064  56.249  59.684
    1STR   H25146548  45.120  56.243  59.590
    1STR   C25246549  44.913  56.263  59.655
    1STR   H25346550  44.855  56.263  59.747
    1STR   H25446551  44.876  56.182  59.592
    1STR   H25546552  44.893  56.356  59.602
    1STR   C25646553  45.117  56.369  59.763
    1STR   H25746554  45.062  56.379  59.857
    1STR   H25846555  45.221  56.351  59.789
    1STR   O25946556  45.104  56.488  59.685
    1STR   C26046557  45.148  56.608  59.749
    1STR   H26146558  45.112  56.611  59.852
    1STR   C26246559  45.302  56.616  59.746
    1STR   H26346560  45.340  56.607  59.645
    1STR   H26446561  45.348  56.537  59.806
    1STR   H26546562  45.336  56.711  59.787
    1STR   C26646563  45.085  56.727  59.674
    1STR   H26746564  45.120  56.728  59.570
    1STR   H26846565  44.977  56.714  59.671
    1STR   O26946566  45.119  56.850  59.739
    1STR   C27046567  45.067  56.969  59.677
    1STR   H27146568  45.081  56.963  59.569
    1STR   C27246569  44.918  56.984  59.710
    1STR   H27346570  44.901  56.983  59.818
    1STR   H27446571  44.858  56.904  59.667
    1STR   H27546572  44.879  57.078  59.672
    1STR   C27646573  45.149  57.089  59.730
    1STR   H27746574  45.137  57.098  59.838
    1STR   H27846575  45.254  57.070  59.711
    1STR   O27946576  45.107  57.210  59.665
    1STR   C28046577  45.175  57.329  59.706
    1STR   H28146578  45.184  57.331  59.814
    1STR   C28246579  45.315  57.333  59.642
    1STR   H28346580  45.309  57.324  59.533
    1STR   H28446581  45.379  57.253  59.678
    1STR   H28546582  45.365  57.427  59.664
    1STR   C28646583  45.090  57.451  59.663
    1STR   H28746584  45.080  57.452  59.554
    1STR   H28846585  44.990  57.439  59.704
    1STR   O28946586  45.150  57.573  59.708
    1STR   C29046587  45.080  57.694  59.675
    1STR   H29146588  45.049  57.690  59.570
    1STR   C29246589  44.956  57.708  59.765
    1STR   H29346590  44.983  57.704  59.870
    1STR   H29446591  44.882  57.630  59.746
    1STR   H29546592  44.906  57.803  59.747
    1STR   C29646593  45.176  57.814  59.693
    1STR   H29746594  45.210  57.818  59.796
    1STR   H29846595  45.264  57.796  59.632
    1STR   O29946596  45.114  57.938  59.656
    1STR   C30046597  45.195  58.055  59.669
    1STR   H30146598  45.248  58.052  59.764
    1STR   C30246599  45.295  58.061  59.553
    1STR   H30346600  45.245  58.055  59.457
    1STR   H30446601  45.368  57.980  59.557
    1STR   H30546602  45.351  58.155  59.555
    1STR   C30646603  45.104  58.181  59.671
    1STR   H30746604  45.053  58.191  59.575
    1STR   H30846605  45.026  58.165  59.746
    1STR   O30946606  45.178  58.301  59.701
    1STR    H1R46607  45.044  58.430  59.611
    1STR    H1S46608  44.961  58.525  59.834
    1STR    H1T46609  45.068  58.412  59.917
    1STR    H1U46610  44.933  58.353  59.822
    1STR    H1V46611  45.282  58.524  59.635
    1STR    H1W46612  45.247  58.557  59.802
    1STR    H1X46613  45.049  58.848  59.574
    1STR    H1Y46614  44.800  58.897  59.628
    1STR    H1Z46615  44.652  59.075  59.709
    1STR    H2046616  44.747  59.331  59.958
    1STR    H2146617  44.618  59.228  59.900
    1STR    H2246618  44.676  59.360  59.798
    1STR    H2346619  45.062  59.287  59.975
    1STR    H2746620  45.137  59.092  59.812
    1STR    H2846621  44.735  46.495  59.851
    1STR    H2946622  44.704  46.277  59.764
    1STR    H2A46623  44.933  46.005  59.792
    1STR    H2B46624  44.784  46.062  59.719
    1STR    H2C46625  44.779  45.981  59.876
    1STR   BCK146626  45.053  45.980  15.031
    1STR    O0346627  45.139  45.912  15.086
    1STR    N0446628  45.028  46.110  15.061
    1STR    C0546629  45.080  46.196  15.162
    1STR    C0646630  45.100  46.336  15.136
    1STR    C0746631  45.145  46.430  15.236
    1STR    N0846632  45.160  46.569  15.209
    1STR    C0946633  45.181  46.673  15.294
    1STR    O0A46634  45.191  46.662  15.416
    1STR    O0B46635  45.190  46.795  15.231
    1STR    C0C46636  45.220  46.915  15.307
    1STR    C0D46637  45.372  46.926  15.328
    1STR    C0E46638  45.165  47.045  15.241
    1STR    O0F46639  45.198  47.163  15.318
    1STR    C0G46640  45.146  47.288  15.269
    1STR    C0H46641  44.997  47.299  15.305
    1STR    C0I46642  45.224  47.408  15.329
    1STR    O0J46643  45.176  47.532  15.275
    1STR    C0K46644  44.822  58.430  15.373
    1STR    C0M46645  44.974  58.429  15.348
    1STR    C0N46646  44.757  58.547  15.294
    1STR    O0O46647  44.802  58.676  15.340
    1STR    C0P46648  44.811  58.782  15.254
    1STR    O0Q46649  44.791  58.777  15.133
    1STR    N0R46650  44.847  58.892  15.321
    1STR    C0S46651  44.880  59.023  15.282
    1STR    C0T46652  44.933  59.107  15.382
    1STR    C0U46653  44.980  59.236  15.351
    1STR    C0V46654  44.975  59.286  15.219
    1STR    C0W46655  45.048  59.416  15.191
    1STR    C0X46656  44.914  59.208  15.116
    1STR    N0Y46657  44.912  59.247  14.981
    1STR   BCK246658  44.880  59.357  14.908
    1STR    O1046659  44.891  59.350  14.786
    1STR    C1346660  44.870  59.077  15.149
    1STR    C1446661  45.175  46.376  15.363
    1STR    C1546662  45.153  46.241  15.392
    1STR    C1646663  45.102  46.152  15.296
    1STR    C1746664  45.069  46.013  15.345
    1STR    H1B46665  44.963  46.152  14.997
    1STR    H1C46666  45.080  46.374  15.037
    1STR    H1D46667  45.152  46.600  15.114
    1STR    H1E46668  45.173  46.908  15.405
    1STR    H1F46669  45.425  46.935  15.233
    1STR    H1G46670  45.397  47.013  15.388
    1STR    H1H46671  45.411  46.839  15.380
    1STR    H1I46672  45.057  47.035  15.232
    1STR    H1J46673  45.205  47.055  15.140
    1STR    H1K46674  45.158  47.293  15.161
    1STR    H1M46675  44.982  47.292  15.413
    1STR    H1N46676  44.936  47.222  15.258
    1STR    H1O46677  44.956  47.395  15.273
    1STR    H1P46678  45.214  47.409  15.438
    1STR    H1Q46679  45.330  47.397  15.308
    1STR   C01046680  45.234  47.654  15.325
    1STR   H01146681  45.240  47.649  15.434
    1STR   C01246682  45.375  47.673  15.266
    1STR   H01346683  45.372  47.673  15.157
    1STR   H01446684  45.444  47.595  15.298
    1STR   H01546685  45.417  47.768  15.297
    1STR   C01646686  45.143  47.773  15.288
    1STR   H01746687  45.133  47.779  15.179
    1STR   H01846688  45.043  47.755  15.327
    1STR   O01946689  45.194  47.897  15.339
    1STR   C02046690  45.120  48.015  15.306
    1STR   H02146691  45.091  48.012  15.201
    1STR   C02246692  44.994  48.023  15.394
    1STR   H02346693  45.020  48.021  15.500
    1STR   H02446694  44.924  47.941  15.375
    1STR   H02546695  44.940  48.116  15.376
    1STR   C02646696  45.209  48.139  15.328
    1STR   H02746697  45.240  48.145  15.432
    1STR   H02846698  45.300  48.128  15.268
    1STR   O02946699  45.139  48.258  15.289
    1STR   C03046700  45.210  48.381  15.309
    1STR   H03146701  45.260  48.380  15.406
    1STR   C03246702  45.314  48.399  15.197
    1STR   H03346703  45.267  48.396  15.099
    1STR   H03446704  45.392  48.323  15.200
    1STR   H03546705  45.364  48.496  15.206
    1STR   C03646706  45.108  48.497  15.309
    1STR   H03746707  45.057  48.501  15.213
    1STR   H03846708  45.033  48.477  15.385
    1STR   O03946709  45.175  48.621  15.335
    1STR   C04046710  45.091  48.737  15.334
    1STR   H04146711  45.023  48.733  15.249
    1STR   C04246712  45.012  48.746  15.465
    1STR   H04346713  45.078  48.745  15.552
    1STR   H04446714  44.941  48.664  15.476
    1STR   H04546715  44.954  48.838  15.469
    1STR   C04646716  45.182  48.860  15.316
    1STR   H04746717  45.251  48.868  15.400
    1STR   H04846718  45.242  48.847  15.226
    1STR   O04946719  45.102  48.978  15.306
    1STR   C05046720  45.175  49.101  15.293
    1STR   H05146721  45.259  49.102  15.362
    1STR   C05246722  45.225  49.117  15.148
    1STR   H05346723  45.142  49.111  15.077
    1STR   H05446724  45.298  49.040  15.121
    1STR   H05546725  45.274  49.213  15.135
    1STR   C05646726  45.080  49.216  15.332
    1STR   H05746727  44.995  49.219  15.264
    1STR   H05846728  45.041  49.197  15.432
    1STR   O05946729  45.151  49.340  15.329
    1STR   C06046730  45.074  49.455  15.359
    1STR   H06146731  44.977  49.450  15.309
    1STR   C06246732  45.054  49.466  15.511
    1STR   H06346733  45.149  49.467  15.564
    1STR   H06446734  44.994  49.384  15.551
    1STR   H06546735  45.001  49.558  15.537
    1STR   C06646736  45.149  49.578  15.304
    1STR   H06746737  45.246  49.587  15.354
    1STR   H06846738  45.169  49.563  15.198
    1STR   O06946739  45.071  49.695  15.325
    1STR   C07046740  45.132  49.817  15.282
    1STR   H07146741  45.237  49.819  15.311
    1STR   C07246742  45.119  49.830  15.129
    1STR   H07346743  45.015  49.823  15.097
    1STR   H07446744  45.176  49.753  15.076
    1STR   H07546745  45.158  49.927  15.096
    1STR   C07646746  45.060  49.932  15.354
    1STR   H07746747  44.954  49.934  15.325
    1STR   H07846748  45.064  49.915  15.461
    1STR   O07946749  45.123  50.056  15.321
    1STR   C08046750  45.063  50.172  15.378
    1STR   H08146751  44.955  50.166  15.371
    1STR   C08246752  45.105  50.185  15.525
    1STR   H08346753  45.214  50.186  15.535
    1STR   H08446754  45.067  50.104  15.587
    1STR   H08546755  45.067  50.278  15.568
    1STR   C08646756  45.110  50.293  15.295
    1STR   H08746757  45.218  50.303  15.302
    1STR   H08846758  45.085  50.276  15.191
    1STR   O08946759  45.045  50.411  15.343
    1STR   C09046760  45.083  50.531  15.278
    1STR   H09146761  45.191  50.534  15.263
    1STR   C09246762  45.011  50.542  15.142
    1STR   H09346763  44.903  50.535  15.155
    1STR   H09446764  45.042  50.464  15.073
    1STR   H09546765  45.032  50.638  15.095
    1STR   C09646766  45.045  50.648  15.371
    1STR   H09746767  44.937  50.649  15.387
    1STR   H09846768  45.091  50.632  15.468
    1STR   O09946769  45.089  50.771  15.314
    1STR   C10046770  45.057  50.887  15.388
    1STR   H10146771  44.954  50.882  15.425
    1STR   C10246772  45.154  50.903  15.506
    1STR   H10346773  45.258  50.904  15.472
    1STR   H10446774  45.144  50.822  15.579
    1STR   H10546775  45.136  50.996  15.559
    1STR   C10646776  45.066  51.007  15.292
    1STR   H10746777  45.168  51.017  15.255
    1STR   H10846778  45.002  50.988  15.206
    1STR   O10946779  45.025  51.126  15.360
    1STR   C11046780  45.032  51.245  15.283
    1STR   H11146781  45.125  51.248  15.226
    1STR   C11246782  44.912  51.254  15.188
    1STR   H11346783  44.818  51.247  15.242
    1STR   H11446784  44.913  51.175  15.113
    1STR   H11546785  44.912  51.349  15.134
    1STR   C11646786  45.034  51.363  15.382
    1STR   H11746787  44.941  51.365  15.439
    1STR   H11846788  45.116  51.349  15.452
    1STR   O11946789  45.051  51.485  15.310
    1STR   C12046790  45.050  51.603  15.389
    1STR   H12146791  44.971  51.598  15.464
    1STR   C12246792  45.187  51.620  15.458
    1STR   H12346793  45.268  51.621  15.385
    1STR   H12446794  45.207  51.541  15.530
    1STR   H12546795  45.191  51.715  15.513
    1STR   C12646796  45.019  51.721  15.296
    1STR   H12746797  45.098  51.731  15.220
    1STR   H12846798  44.926  51.701  15.243
    1STR   O12946799  45.008  51.841  15.373
    1STR   C13046800  44.983  51.959  15.297
    1STR   H13146801  45.046  51.960  15.208
    1STR   C13246802  44.835  51.966  15.258
    1STR   H13346803  44.771  51.959  15.346
    1STR   H13446804  44.806  51.886  15.190
    1STR   H13546805  44.813  52.060  15.207
    1STR   C13646806  45.024  52.078  15.385
    1STR   H13746807  44.962  52.081  15.475
    1STR   H13846808  45.127  52.065  15.418
    1STR   O13946809  45.010  52.199  15.310
    1STR   C14046810  45.040  52.318  15.382
    1STR   H14146811  44.997  52.314  15.482
    1STR   C14246812  45.192  52.337  15.390
    1STR   H14346813  45.238  52.336  15.291
    1STR   H14446814  45.240  52.259  15.449
    1STR   H14546815  45.217  52.432  15.438
    1STR   C14646816  44.974  52.435  15.307
    1STR   H14746817  45.015  52.443  15.206
    1STR   H14846818  44.867  52.414  15.296
    1STR   O14946819  44.993  52.556  15.380
    1STR   C15046820  44.940  52.673  15.319
    1STR   H15146821  44.961  52.673  15.212
    1STR   C15246822  44.788  52.679  15.342
    1STR   H15346823  44.764  52.674  15.448
    1STR   H15446824  44.735  52.598  15.292
    1STR   H15546825  44.747  52.772  15.303
    1STR   C15646826  45.011  52.794  15.382
    1STR   H15746827  44.990  52.798  15.489
    1STR   H15846828  45.118  52.781  15.371
    1STR   O15946829  44.967  52.913  15.317
    1STR   C16046830  45.023  53.033  15.369
    1STR   H16146831  45.024  53.031  15.478
    1STR   C16246832  45.166  53.052  15.315
    1STR   H16346833  45.168  53.050  15.206
    1STR   H16446834  45.234  52.975  15.352
    1STR   H16546835  45.207  53.148  15.347
    1STR   C16646836  44.932  53.149  15.325
    1STR   H16746837  44.930  53.155  15.216
    1STR   H16846838  44.830  53.127  15.357
    1STR   O16946839  44.978  53.271  15.382
    1STR   C17046840  44.904  53.386  15.346
    1STR   H17146841  44.881  53.385  15.239
    1STR   C17246842  44.774  53.393  15.427
    1STR   H17346843  44.794  53.390  15.534
    1STR   H17446844  44.706  53.311  15.404
    1STR   H17546845  44.720  53.486  15.407
    1STR   C17646846  44.993  53.508  15.373
    1STR   H17746847  45.017  53.514  15.479
    1STR   H17846848  45.087  53.496  15.319
    1STR   O17946849  44.927  53.627  15.329
    1STR   C18046850  44.998  53.748  15.352
    1STR   H18146851  45.042  53.747  15.452
    1STR   C18246852  45.108  53.766  15.246
    1STR   H18346853  45.066  53.762  15.145
    1STR   H18446854  45.185  53.689  15.253
    1STR   H18546855  45.157  53.862  15.258
    1STR   C18646856  44.895  53.863  15.347
    1STR   H18746857  44.850  53.867  15.247
    1STR   H18846858  44.815  53.842  15.417
    1STR   O18946859  44.960  53.986  15.379
    1STR   C19046860  44.877  54.101  15.373
    1STR   H19146861  44.813  54.097  15.284
    1STR   C19246862  44.790  54.109  15.500
    1STR   H19346863  44.852  54.108  15.590
    1STR   H19446864  44.719  54.026  15.507
    1STR   H19546865  44.732  54.201  15.501
    1STR   C19646866  44.969  54.223  15.360
    1STR   H19746867  45.033  54.231  15.448
    1STR   H19846868  45.034  54.210  15.274
    1STR   O19946869  44.890  54.341  15.345
    1STR   C20046870  44.963  54.462  15.336
    1STR   H20146871  45.044  54.464  15.410
    1STR   C20246872  45.021  54.478  15.194
    1STR   H20346873  44.942  54.473  15.119
    1STR   H20446874  45.095  54.402  15.171
    1STR   H20546875  45.070  54.575  15.183
    1STR   C20646876  44.866  54.577  15.370
    1STR   H20746877  44.785  54.580  15.298
    1STR   H20846878  44.822  54.558  15.468
    1STR   O20946879  44.938  54.700  15.372
    1STR   C21046880  44.859  54.816  15.399
    1STR   H21146881  44.765  54.811  15.343
    1STR   C21246882  44.830  54.826  15.549
    1STR   H21346883  44.923  54.826  15.607
    1STR   H21446884  44.768  54.743  15.585
    1STR   H21546885  44.777  54.918  15.572
    1STR   C21646886  44.937  54.938  15.348
    1STR   H21746887  45.031  54.947  15.403
    1STR   H21846888  44.962  54.923  15.243
    1STR   O21946889  44.858  55.055  15.364
    1STR   C22046890  44.921  55.177  15.325
    1STR   H22146891  45.024  55.179  15.360
    1STR   C22246892  44.916  55.190  15.171
    1STR   H22346893  44.814  55.183  15.134
    1STR   H22446894  44.976  55.113  15.122
    1STR   H22546895  44.957  55.287  15.140
    1STR   C22646896  44.845  55.292  15.393
    1STR   H22746897  44.741  55.294  15.359
    1STR   H22846898  44.843  55.275  15.500
    1STR   O22946899  44.910  55.416  15.363
    1STR   C23046900  44.847  55.532  15.418
    1STR   H23146901  44.739  55.526  15.405
    1STR   C23246902  44.881  55.544  15.567
    1STR   H23346903  44.989  55.545  15.583
    1STR   H23446904  44.840  55.462  15.626
    1STR   H23546905  44.841  55.637  15.609
    1STR   C23646906  44.898  55.653  15.339
    1STR   H23746907  45.006  55.663  15.351
    1STR   H23846908  44.879  55.637  15.233
    1STR   O23946909  44.831  55.771  15.384
    1STR   C24046910  44.872  55.892  15.320
    1STR   H24146911  44.981  55.895  15.311
    1STR   C24246912  44.807  55.902  15.181
    1STR   H24346913  44.699  55.895  15.187
    1STR   H24446914  44.842  55.825  15.113
    1STR   H24546915  44.831  55.998  15.134
    1STR   C24646916  44.829  56.009  15.410
    1STR   H24746917  44.721  56.010  15.421
    1STR   H24846918  44.871  55.993  15.510
    1STR   O24946919  44.876  56.133  15.356
    1STR   C25046920  44.840  56.249  15.429
    1STR   H25146921  44.735  56.244  15.460
    1STR   C25246922  44.931  56.263  15.552
    1STR   H25346923  45.036  56.264  15.524
    1STR   H25446924  44.916  56.183  15.624
    1STR   H25546925  44.910  56.357  15.605
    1STR   C25646926  44.854  56.370  15.335
    1STR   H25746927  44.958  56.380  15.303
    1STR   H25846928  44.795  56.352  15.246
    1STR   O25946929  44.811  56.490  15.401
    1STR   C26046930  44.822  56.610  15.324
    1STR   H26146931  44.918  56.612  15.272
    1STR   C26246932  44.707  56.616  15.223
    1STR   H26346933  44.610  56.608  15.272
    1STR   H26446934  44.713  56.538  15.148
    1STR   H26546935  44.708  56.711  15.169
    1STR   C26646936  44.817  56.729  15.422
    1STR   H26746937  44.722  56.730  15.475
    1STR   H26846938  44.895  56.715  15.497
    1STR   O26946939  44.836  56.852  15.351
    1STR   C27046940  44.832  56.970  15.431
    1STR   H27146941  44.749  56.965  15.502
    1STR   C27246942  44.965  56.985  15.508
    1STR   H27346943  45.050  56.984  15.439
    1STR   H27446944  44.980  56.906  15.581
    1STR   H27546945  44.968  57.079  15.563
    1STR   C27646946  44.808  57.091  15.338
    1STR   H27746947  44.890  57.100  15.267
    1STR   H27846948  44.717  57.073  15.281
    1STR   O27946949  44.795  57.212  15.414
    1STR   C28046950  44.772  57.332  15.338
    1STR   H28146951  44.840  57.334  15.252
    1STR   C28246952  44.626  57.336  15.290
    1STR   H28346953  44.557  57.326  15.374
    1STR   H28446954  44.604  57.256  15.220
    1STR   H28546955  44.605  57.430  15.240
    1STR   C28646956  44.805  57.454  15.427
    1STR   H28746957  44.740  57.455  15.514
    1STR   H28846958  44.907  57.442  15.464
    1STR   O28946959  44.793  57.577  15.354
    1STR   C29046960  44.822  57.697  15.426
    1STR   H29146961  44.774  57.694  15.523
    1STR   C29246962  44.974  57.711  15.443
    1STR   H29346963  45.025  57.707  15.347
    1STR   H29446964  45.016  57.633  15.506
    1STR   H29546965  44.999  57.806  15.490
    1STR   C29646966  44.764  57.818  15.347
    1STR   H29746967  44.809  57.822  15.248
    1STR   H29846968  44.657  57.800  15.332
    1STR   O29946969  44.784  57.942  15.416
    1STR   C30046970  44.732  58.059  15.351
    1STR   H30146971  44.756  58.055  15.244
    1STR   C30246972  44.580  58.064  15.370
    1STR   H30346973  44.553  58.059  15.476
    1STR   H30446974  44.529  57.982  15.319
    1STR   H30546975  44.538  58.157  15.330
    1STR   C30646976  44.799  58.187  15.408
    1STR   H30746977  44.772  58.200  15.512
    1STR   H30846978  44.907  58.171  15.406
    1STR   O30946979  44.765  58.304  15.331
    1STR    H1R46980  44.802  58.444  15.479
    1STR    H1S46981  45.018  58.526  15.370
    1STR    H1T46982  44.996  58.406  15.244
    1STR    H1U46983  45.026  58.356  15.410
    1STR    H1V46984  44.648  58.544  15.306
    1STR    H1W46985  44.775  58.535  15.188
    1STR    H1X46986  44.855  58.871  15.419
    1STR    H1Y46987  44.941  59.073  15.484
    1STR    H1Z46988  45.025  59.295  15.429
    1STR    H2046989  45.103  59.409  15.097
    1STR    H2146990  44.979  59.499  15.186
    1STR    H2246991  45.120  59.438  15.269
    1STR    H2346992  44.936  59.173  14.917
    1STR    H2746993  44.828  59.014  15.072
    1STR    H2846994  45.214  46.436  15.444
    1STR    H2946995  45.174  46.206  15.492
    1STR    H2A46996  44.983  45.971  15.293
    1STR    H2B46997  45.043  46.014  15.451
    1STR    H2C46998  45.154  45.946  15.333
    1STR   BCK146999  45.046  45.986  29.907
    1STR    O0347000  44.989  45.995  29.798
    1STR    N0447001  45.117  46.086  29.962
    1STR    C0547002  45.180  46.193  29.896
    1STR    C0647003  45.144  46.331  29.914
    1STR    C0747004  45.219  46.437  29.852
    1STR    N0847005  45.187  46.574  29.873
    1STR    C0947006  45.227  46.683  29.803
    1STR    O0A47007  45.292  46.678  29.699
    1STR    O0B47008  45.188  46.802  29.859
    1STR    C0C47009  45.219  46.927  29.793
    1STR    C0D47010  45.119  46.950  29.678
    1STR    C0E47011  45.221  47.050  29.888
    1STR    O0F47012  45.251  47.170  29.816
    1STR    C0G47013  45.255  47.293  29.891
    1STR    C0H47014  45.389  47.301  29.967
    1STR    C0I47015  45.240  47.414  29.796
    1STR    O0J47016  45.237  47.537  29.870
    1STR    C0K47017  45.524  58.430  29.999
    1STR    C0M47018  45.398  58.405  29.915
    1STR    C0N47019  45.503  58.563  30.080
    1STR    O0O47020  45.495  58.675  29.990
    1STR    C0P47021  45.411  58.781  30.009
    1STR    O0Q47022  45.326  58.791  30.096
    1STR    N0R47023  45.440  58.875  29.918
    1STR    C0S47024  45.397  59.006  29.889
    1STR    C0T47025  45.495  59.086  29.828
    1STR    C0U47026  45.467  59.218  29.790
    1STR    C0V47027  45.340  59.274  29.809
    1STR    C0W47028  45.327  59.420  29.770
    1STR    C0X47029  45.235  59.197  29.867
    1STR    N0Y47030  45.105  59.246  29.897
    1STR   BCK247031  45.015  59.343  29.864
    1STR    O1047032  44.915  59.352  29.934
    1STR    C1347033  45.268  59.063  29.908
    1STR    C1447034  45.331  46.400  29.774
    1STR    C1547035  45.368  46.265  29.758
    1STR    C1647036  45.295  46.162  29.819
    1STR    C1747037  45.345  46.020  29.806
    1STR    H1B47038  45.148  46.068  30.057
    1STR    H1C47039  45.059  46.354  29.976
    1STR    H1D47040  45.127  46.598  29.950
    1STR    H1E47041  45.319  46.919  29.750
    1STR    H1F47042  45.017  46.959  29.714
    1STR    H1G47043  45.143  47.041  29.623
    1STR    H1H47044  45.123  46.868  29.606
    1STR    H1I47045  45.295  47.033  29.966
    1STR    H1J47046  45.124  47.060  29.938
    1STR    H1K47047  45.172  47.295  29.962
    1STR    H1M47048  45.473  47.296  29.898
    1STR    H1N47049  45.400  47.222  30.040
    1STR    H1O47050  45.396  47.396  30.021
    1STR    H1P47051  45.322  47.416  29.724
    1STR    H1Q47052  45.148  47.403  29.738
    1STR   C01047053  45.228  47.658  29.794
    1STR   H01147054  45.297  47.654  29.709
    1STR   C01247055  45.084  47.677  29.742
    1STR   H01347056  45.013  47.677  29.824
    1STR   H01447057  45.055  47.599  29.672
    1STR   H01547058  45.074  47.772  29.690
    1STR   C01647059  45.270  47.777  29.883
    1STR   H01747060  45.203  47.783  29.970
    1STR   H01847061  45.370  47.758  29.922
    1STR   O01947062  45.267  47.900  29.810
    1STR   C02047063  45.301  48.018  29.884
    1STR   H02147064  45.251  48.016  29.981
    1STR   C02247065  45.453  48.026  29.904
    1STR   H02347066  45.505  48.024  29.808
    1STR   H02447067  45.491  47.944  29.965
    1STR   H02547068  45.480  48.119  29.954
    1STR   C02647069  45.249  48.141  29.808
    1STR   H02747070  45.297  48.148  29.710
    1STR   H02847071  45.142  48.130  29.790
    1STR   O02947072  45.274  48.260  29.883
    1STR   C03047073  45.235  48.383  29.821
    1STR   H03147074  45.263  48.383  29.716
    1STR   C03247075  45.082  48.401  29.833
    1STR   H03347076  45.051  48.398  29.938
    1STR   H03447077  45.027  48.325  29.779
    1STR   H03547078  45.052  48.498  29.793
    1STR   C03647079  45.310  48.499  29.890
    1STR   H03747080  45.283  48.503  29.995
    1STR   H03847081  45.417  48.479  29.885
    1STR   O03947082  45.279  48.622  29.825
    1STR   C04047083  45.340  48.738  29.882
    1STR   H04147084  45.332  48.734  29.991
    1STR   C04247085  45.487  48.747  29.840
    1STR   H04347086  45.497  48.746  29.731
    1STR   H04447087  45.547  48.665  29.880
    1STR   H04547088  45.532  48.839  29.876
    1STR   C04647089  45.260  48.861  29.834
    1STR   H04747090  45.266  48.869  29.726
    1STR   H04847091  45.155  48.848  29.860
    1STR   O04947092  45.312  48.979  29.896
    1STR   C05047093  45.250  49.101  29.857
    1STR   H05147094  45.234  49.103  29.749
    1STR   C05247095  45.115  49.117  29.929
    1STR   H05347096  45.128  49.112  30.037
    1STR   H05447097  45.043  49.041  29.900
    1STR   H05547098  45.071  49.214  29.906
    1STR   C05647099  45.346  49.216  29.892
    1STR   H05747100  45.363  49.219  29.999
    1STR   H05847101  45.443  49.198  29.845
    1STR   O05947102  45.292  49.340  29.846
    1STR   C06047103  45.370  49.456  29.876
    1STR   H06147104  45.407  49.451  29.978
    1STR   C06247105  45.487  49.466  29.777
    1STR   H06347106  45.452  49.467  29.674
    1STR   H06447107  45.558  49.384  29.788
    1STR   H06547108  45.543  49.559  29.794
    1STR   C06647109  45.277  49.578  29.865
    1STR   H06747110  45.239  49.587  29.764
    1STR   H06847111  45.191  49.563  29.931
    1STR   O06947112  45.348  49.696  29.903
    1STR   C07047113  45.274  49.817  29.894
    1STR   H07147114  45.217  49.820  29.801
    1STR   C07247115  45.180  49.830  30.015
    1STR   H07347116  45.235  49.824  30.109
    1STR   H07447117  45.103  49.754  30.016
    1STR   H07547118  45.129  49.927  30.014
    1STR   C07647119  45.376  49.933  29.890
    1STR   H07747120  45.435  49.934  29.982
    1STR   H07847121  45.446  49.915  29.808
    1STR   O07947122  45.307  50.056  29.871
    1STR   C08047123  45.390  50.172  29.869
    1STR   H08147124  45.465  50.166  29.948
    1STR   C08247125  45.458  50.185  29.732
    1STR   H08347126  45.385  50.186  29.652
    1STR   H08447127  45.528  50.104  29.713
    1STR   H08547128  45.516  50.278  29.726
    1STR   C08647129  45.300  50.293  29.899
    1STR   H08747130  45.224  50.303  29.821
    1STR   H08847131  45.247  50.276  29.992
    1STR   O08947132  45.380  50.411  29.907
    1STR   C09047133  45.308  50.532  29.930
    1STR   H09147134  45.218  50.534  29.868
    1STR   C09247135  45.270  50.542  30.078
    1STR   H09347136  45.358  50.535  30.142
    1STR   H09447137  45.200  50.465  30.109
    1STR   H09547138  45.222  50.638  30.099
    1STR   C09647139  45.399  50.648  29.887
    1STR   H09747140  45.489  50.649  29.948
    1STR   H09847141  45.430  50.632  29.784
    1STR   O09947142  45.327  50.771  29.899
    1STR   C10047143  45.402  50.888  29.866
    1STR   H10147144  45.502  50.882  29.908
    1STR   C10247145  45.410  50.903  29.713
    1STR   H10347146  45.310  50.904  29.669
    1STR   H10447147  45.466  50.822  29.666
    1STR   H10547148  45.459  50.996  29.686
    1STR   C10647149  45.331  51.007  29.931
    1STR   H10747150  45.230  51.017  29.889
    1STR   H10847151  45.320  50.988  30.037
    1STR   O10947152  45.407  51.126  29.908
    1STR   C11047153  45.349  51.245  29.960
    1STR   H11147154  45.242  51.248  29.939
    1STR   C11247155  45.374  51.253  30.112
    1STR   H11347156  45.480  51.246  30.135
    1STR   H11447157  45.322  51.175  30.166
    1STR   H11547158  45.337  51.348  30.151
    1STR   C11647159  45.414  51.363  29.886
    1STR   H11747160  45.522  51.365  29.906
    1STR   H11847161  45.402  51.349  29.779
    1STR   O11947162  45.353  51.485  29.928
    1STR   C12047163  45.407  51.603  29.870
    1STR   H12147164  45.517  51.598  29.868
    1STR   C12247165  45.353  51.620  29.727
    1STR   H12347166  45.244  51.621  29.726
    1STR   H12447167  45.387  51.541  29.660
    1STR   H12547168  45.387  51.715  29.684
    1STR   C12647169  45.367  51.721  29.959
    1STR   H12747170  45.259  51.731  29.962
    1STR   H12847171  45.400  51.701  30.061
    1STR   O12947172  45.427  51.841  29.910
    1STR   C13047173  45.395  51.959  29.983
    1STR   H13147174  45.288  51.960  30.006
    1STR   C13247175  45.478  51.966  30.112
    1STR   H13347176  45.584  51.959  30.091
    1STR   H13447177  45.453  51.885  30.181
    1STR   H13547178  45.460  52.060  30.164
    1STR   C13647179  45.424  52.078  29.891
    1STR   H13747180  45.531  52.081  29.866
    1STR   H13847181  45.370  52.065  29.797
    1STR   O13947182  45.384  52.199  29.955
    1STR   C14047183  45.410  52.318  29.882
    1STR   H14147184  45.510  52.314  29.837
    1STR   C14247185  45.304  52.337  29.773
    1STR   H14347186  45.203  52.336  29.815
    1STR   H14447187  45.308  52.259  29.697
    1STR   H14547188  45.317  52.432  29.721
    1STR   C14647189  45.409  52.435  29.982
    1STR   H14747190  45.310  52.443  30.028
    1STR   H14847191  45.479  52.414  30.062
    1STR   O14947192  45.443  52.556  29.915
    1STR   C15047193  45.442  52.673  29.996
    1STR   H15147194  45.353  52.673  30.061
    1STR   C15247195  45.569  52.679  30.082
    1STR   H15347196  45.659  52.674  30.019
    1STR   H15447197  45.574  52.598  30.154
    1STR   H15547198  45.573  52.772  30.138
    1STR   C15647199  45.431  52.794  29.902
    1STR   H15747200  45.519  52.798  29.837
    1STR   H15847201  45.344  52.781  29.837
    1STR   O15947202  45.420  52.913  29.979
    1STR   C16047203  45.413  53.033  29.903
    1STR   H16147204  45.487  53.031  29.822
    1STR   C16247205  45.272  53.052  29.846
    1STR   H16347206  45.197  53.050  29.925
    1STR   H16447207  45.246  52.975  29.773
    1STR   H16547208  45.263  53.148  29.795
    1STR   C16647209  45.451  53.149  29.997
    1STR   H16747210  45.379  53.155  30.079
    1STR   H16847211  45.548  53.127  30.042
    1STR   O16947212  45.456  53.271  29.924
    1STR   C17047213  45.486  53.387  30.001
    1STR   H17147214  45.431  53.385  30.095
    1STR   C17247215  45.637  53.393  30.028
    1STR   H17347216  45.694  53.390  29.935
    1STR   H17447217  45.671  53.311  30.091
    1STR   H17547218  45.663  53.486  30.080
    1STR   C17647219  45.438  53.508  29.920
    1STR   H17747220  45.493  53.514  29.826
    1STR   H17847221  45.333  53.496  29.896
    1STR   O17947222  45.458  53.627  29.997
    1STR   C18047223  45.421  53.748  29.932
    1STR   H18147224  45.456  53.747  29.829
    1STR   C18247225  45.268  53.766  29.937
    1STR   H18347226  45.231  53.762  30.039
    1STR   H18447227  45.216  53.689  29.879
    1STR   H18547228  45.239  53.862  29.895
    1STR   C18647229  45.493  53.863  30.006
    1STR   H18747230  45.459  53.867  30.109
    1STR   H18847231  45.600  53.842  30.008
    1STR   O18947232  45.467  53.986  29.938
    1STR   C19047233  45.525  54.101  29.999
    1STR   H19147234  45.511  54.097  30.107
    1STR   C19247235  45.674  54.109  29.964
    1STR   H19347236  45.689  54.108  29.856
    1STR   H19447237  45.731  54.026  30.007
    1STR   H19547238  45.718  54.201  30.002
    1STR   C19647239  45.448  54.223  29.946
    1STR   H19747240  45.460  54.231  29.838
    1STR   H19847241  45.342  54.210  29.965
    1STR   O19947242  45.496  54.341  30.010
    1STR   C20047243  45.436  54.463  29.968
    1STR   H20147244  45.426  54.464  29.859
    1STR   C20247245  45.297  54.478  30.033
    1STR   H20347246  45.305  54.473  30.142
    1STR   H20447247  45.227  54.402  30.000
    1STR   H20547248  45.254  54.575  30.008
    1STR   C20647249  45.530  54.577  30.008
    1STR   H20747250  45.541  54.580  30.116
    1STR   H20847251  45.629  54.558  29.966
    1STR   O20947252  45.479  54.701  29.959
    1STR   C21047253  45.555  54.816  29.992
    1STR   H21147254  45.587  54.811  30.097
    1STR   C21247255  45.678  54.826  29.901
    1STR   H21347256  45.649  54.826  29.796
    1STR   H21447257  45.748  54.744  29.916
    1STR   H21547258  45.733  54.918  29.920
    1STR   C21647259  45.463  54.938  29.976
    1STR   H21747260  45.431  54.947  29.873
    1STR   H21847261  45.374  54.923  30.037
    1STR   O21947262  45.533  55.056  30.018
    1STR   C22047263  45.459  55.177  30.005
    1STR   H22147264  45.407  55.180  29.909
    1STR   C22247265  45.359  55.190  30.121
    1STR   H22347266  45.409  55.183  30.217
    1STR   H22447267  45.282  55.114  30.117
    1STR   H22547268  45.308  55.287  30.117
    1STR   C22647269  45.561  55.293  30.006
    1STR   H22747270  45.615  55.295  30.101
    1STR   H22847271  45.635  55.275  29.928
    1STR   O22947272  45.493  55.417  29.984
    1STR   C23047273  45.577  55.532  29.986
    1STR   H23147274  45.647  55.527  30.069
    1STR   C23247275  45.652  55.544  29.853
    1STR   H23347276  45.584  55.545  29.768
    1STR   H23447277  45.723  55.463  29.838
    1STR   H23547278  45.710  55.637  29.849
    1STR   C23647279  45.486  55.654  30.010
    1STR   H23747280  45.414  55.664  29.928
    1STR   H23847281  45.428  55.638  30.100
    1STR   O23947282  45.565  55.772  30.021
    1STR   C24047283  45.492  55.893  30.041
    1STR   H24147284  45.405  55.896  29.974
    1STR   C24247285  45.446  55.903  30.187
    1STR   H24347286  45.530  55.895  30.256
    1STR   H24447287  45.374  55.826  30.213
    1STR   H24547288  45.397  55.999  30.206
    1STR   C24647289  45.585  56.010  30.004
    1STR   H24747290  45.672  56.011  30.069
    1STR   H24847291  45.621  55.995  29.902
    1STR   O24947292  45.513  56.134  30.013
    1STR   C25047293  45.589  56.251  29.982
    1STR   H25147294  45.688  56.245  30.030
    1STR   C25247295  45.606  56.264  29.830
    1STR   H25347296  45.509  56.265  29.780
    1STR   H25447297  45.665  56.184  29.788
    1STR   H25547298  45.656  56.358  29.805
    1STR   C25647299  45.515  56.373  30.042
    1STR   H25747300  45.417  56.382  29.996
    1STR   H25847301  45.499  56.355  30.148
    1STR   O25947302  45.591  56.492  30.022
    1STR   C26047303  45.532  56.612  30.072
    1STR   H26147304  45.426  56.615  30.045
    1STR   C26247305  45.548  56.618  30.224
    1STR   H26347306  45.653  56.609  30.253
    1STR   H26447307  45.492  56.540  30.275
    1STR   H26547308  45.511  56.713  30.263
    1STR   C26647309  45.601  56.732  30.003
    1STR   H26747310  45.708  56.733  30.028
    1STR   H26847311  45.594  56.719  29.895
    1STR   O26947312  45.540  56.856  30.043
    1STR   C27047313  45.597  56.974  29.986
    1STR   H27147314  45.706  56.969  29.990
    1STR   C27247315  45.550  56.988  29.840
    1STR   H27347316  45.442  56.987  29.833
    1STR   H27447317  45.589  56.909  29.777
    1STR   H27547318  45.585  57.082  29.797
    1STR   C27647319  45.552  57.096  30.071
    1STR   H27747320  45.443  57.104  30.068
    1STR   H27847321  45.580  57.077  30.174
    1STR   O27947322  45.611  57.217  30.023
    1STR   C28047323  45.578  57.337  30.095
    1STR   H28147324  45.470  57.339  30.114
    1STR   C28247325  45.654  57.339  30.229
    1STR   H28347326  45.761  57.330  30.213
    1STR   H28447327  45.623  57.259  30.296
    1STR   H28547328  45.636  57.433  30.281
    1STR   C28647329  45.613  57.460  30.009
    1STR   H28747330  45.720  57.462  29.988
    1STR   H28847331  45.563  57.450  29.913
    1STR   O28947332  45.574  57.583  30.073
    1STR   C29047333  45.600  57.705  30.000
    1STR   H29147334  45.702  57.702  29.961
    1STR   C29247335  45.500  57.717  29.884
    1STR   H29347336  45.397  57.711  29.920
    1STR   H29447337  45.513  57.640  29.809
    1STR   H29547338  45.512  57.813  29.833
    1STR   C29647339  45.588  57.826  30.096
    1STR   H29747340  45.488  57.829  30.139
    1STR   H29847341  45.658  57.811  30.179
    1STR   O29947342  45.616  57.951  30.030
    1STR   C30047343  45.606  58.071  30.109
    1STR   H30147344  45.516  58.065  30.171
    1STR   C30247345  45.731  58.082  30.199
    1STR   H30347346  45.822  58.076  30.140
    1STR   H30447347  45.735  58.002  30.273
    1STR   H30547348  45.731  58.176  30.254
    1STR   C30647349  45.592  58.195  30.016
    1STR   H30747350  45.686  58.212  29.963
    1STR   H30847351  45.519  58.167  29.940
    1STR   O30947352  45.550  58.316  30.084
    1STR    H1R47353  45.610  58.445  29.933
    1STR    H1S47354  45.370  58.494  29.858
    1STR    H1T47355  45.313  58.379  29.979
    1STR    H1U47356  45.410  58.325  29.842
    1STR    H1V47357  45.588  58.579  30.147
    1STR    H1W47358  45.415  58.556  30.143
    1STR    H1X47359  45.517  58.842  29.862
    1STR    H1Y47360  45.596  59.049  29.813
    1STR    H1Z47361  45.547  59.277  29.746
    1STR    H2047362  45.280  59.428  29.672
    1STR    H2147363  45.269  59.475  29.845
    1STR    H2247364  45.424  59.469  29.763
    1STR    H2347365  45.061  59.193  29.970
    1STR    H2747366  45.193  59.001  29.955
    1STR    H2847367  45.394  46.473  29.726
    1STR    H2947368  45.455  46.243  29.698
    1STR    H2A47369  45.353  45.973  29.904
    1STR    H2B47370  45.443  46.016  29.759
    1STR    H2C47371  45.276  45.961  29.745
    1STR   BCK147372  44.973  45.970  45.048
    1STR    O0347373  44.966  45.920  45.160
    1STR    N0447374  44.959  46.102  45.022
    1STR    C0547375  44.893  46.200  45.100
    1STR    C0647376  44.943  46.334  45.111
    1STR    C0747377  44.870  46.438  45.178
    1STR    N0847378  44.915  46.573  45.184
    1STR    C0947379  44.842  46.685  45.205
    1STR    O0A47380  44.719  46.686  45.217
    1STR    O0B47381  44.917  46.800  45.212
    1STR    C0C47382  44.854  46.926  45.249
    1STR    C0D47383  44.852  46.937  45.403
    1STR    C0E47384  44.920  47.050  45.185
    1STR    O0F47385  44.849  47.170  45.223
    1STR    C0G47386  44.895  47.294  45.166
    1STR    C0H47387  44.846  47.304  45.020
    1STR    C0I47388  44.842  47.414  45.248
    1STR    O0J47389  44.893  47.538  45.196
    1STR    C0K47390  44.737  58.412  44.850
    1STR    C0M47391  44.787  58.418  44.995
    1STR    C0N47392  44.787  58.535  44.771
    1STR    O0O47393  44.716  58.652  44.813
    1STR    C0P47394  44.779  58.771  44.830
    1STR    O0Q47395  44.898  58.792  44.813
    1STR    N0R47396  44.691  58.860  44.876
    1STR    C0S47397  44.709  58.989  44.926
    1STR    C0T47398  44.633  59.026  45.038
    1STR    C0U47399  44.652  59.150  45.100
    1STR    C0V47400  44.744  59.244  45.048
    1STR    C0W47401  44.774  59.366  45.133
    1STR    C0X47402  44.811  59.216  44.926
    1STR    N0Y47403  44.895  59.308  44.863
    1STR   BCK247404  44.873  59.431  44.814
    1STR    O1047405  44.959  59.484  44.744
    1STR    C1347406  44.797  59.086  44.870
    1STR    C1447407  44.749  46.401  45.241
    1STR    C1547408  44.697  46.271  45.228
    1STR    C1647409  44.766  46.172  45.156
    1STR    C1747410  44.693  46.041  45.134
    1STR    H1B47411  44.991  46.129  44.931
    1STR    H1C47412  45.038  46.359  45.066
    1STR    H1D47413  45.012  46.592  45.170
    1STR    H1E47414  44.750  46.926  45.214
    1STR    H1F47415  44.953  46.941  45.444
    1STR    H1G47416  44.800  47.028  45.434
    1STR    H1H47417  44.799  46.853  45.448
    1STR    H1I47418  44.920  47.039  45.077
    1STR    H1J47419  45.025  47.058  45.216
    1STR    H1K47420  45.004  47.297  45.169
    1STR    H1M47421  44.738  47.297  45.015
    1STR    H1N47422  44.888  47.226  44.957
    1STR    H1O47423  44.875  47.400  44.977
    1STR    H1P47424  44.733  47.415  45.247
    1STR    H1Q47425  44.872  47.402  45.353
    1STR   C01047426  44.848  47.658  45.258
    1STR   H01147427  44.740  47.654  45.274
    1STR   C01247428  44.918  47.677  45.394
    1STR   H01347429  45.027  47.678  45.381
    1STR   H01447430  44.892  47.600  45.465
    1STR   H01547431  44.890  47.773  45.438
    1STR   C01647432  44.877  47.777  45.164
    1STR   H01747433  44.984  47.784  45.145
    1STR   H01847434  44.829  47.758  45.068
    1STR   O01947435  44.829  47.900  45.220
    1STR   C02047436  44.854  48.018  45.142
    1STR   H02147437  44.957  48.016  45.104
    1STR   C02247438  44.755  48.026  45.025
    1STR   H02347439  44.652  48.024  45.060
    1STR   H02447440  44.769  47.944  44.954
    1STR   H02547441  44.769  48.119  44.969
    1STR   C02647442  44.841  48.142  45.234
    1STR   H02747443  44.739  48.148  45.273
    1STR   H02847444  44.908  48.130  45.319
    1STR   O02947445  44.873  48.261  45.161
    1STR   C03047446  44.860  48.383  45.234
    1STR   H03147447  44.768  48.383  45.292
    1STR   C03247448  44.981  48.401  45.327
    1STR   H03347449  45.075  48.398  45.271
    1STR   H03447450  44.985  48.325  45.405
    1STR   H03547451  44.977  48.498  45.377
    1STR   C03647452  44.851  48.499  45.132
    1STR   H03747453  44.943  48.503  45.072
    1STR   H03847454  44.769  48.479  45.063
    1STR   O03947455  44.830  48.622  45.200
    1STR   C04047456  44.824  48.738  45.117
    1STR   H04147457  44.903  48.735  45.042
    1STR   C04247458  44.687  48.747  45.049
    1STR   H04347459  44.607  48.747  45.123
    1STR   H04447460  44.670  48.665  44.980
    1STR   H04547461  44.678  48.840  44.992
    1STR   C04647462  44.850  48.861  45.206
    1STR   H04747463  44.773  48.869  45.282
    1STR   H04847464  44.945  48.848  45.258
    1STR   O04947465  44.854  48.979  45.126
    1STR   C05047466  44.873  49.102  45.197
    1STR   H05147467  44.812  49.103  45.287
    1STR   C05247468  45.022  49.117  45.234
    1STR   H05347469  45.085  49.112  45.146
    1STR   H05447470  45.055  49.041  45.304
    1STR   H05547471  45.039  49.214  45.281
    1STR   C05647472  44.826  49.217  45.106
    1STR   H05747473  44.886  49.220  45.015
    1STR   H05847474  44.723  49.198  45.076
    1STR   O05947475  44.835  49.340  45.177
    1STR   C06047476  44.798  49.456  45.102
    1STR   H06147477  44.840  49.451  45.001
    1STR   C06247478  44.645  49.467  45.095
    1STR   H06347479  44.601  49.467  45.195
    1STR   H06447480  44.600  49.384  45.039
    1STR   H06547481  44.615  49.559  45.045
    1STR   C06647482  44.859  49.578  45.172
    1STR   H06747483  44.819  49.588  45.273
    1STR   H06847484  44.967  49.563  45.182
    1STR   O06947485  44.832  49.696  45.096
    1STR   C07047486  44.881  49.817  45.153
    1STR   H07147487  44.860  49.820  45.260
    1STR   C07247488  45.032  49.831  45.127
    1STR   H07347489  45.054  49.824  45.021
    1STR   H07447490  45.089  49.754  45.179
    1STR   H07547491  45.068  49.927  45.162
    1STR   C07647492  44.803  49.933  45.087
    1STR   H07747493  44.822  49.934  44.980
    1STR   H07847494  44.696  49.915  45.101
    1STR   O07947495  44.841  50.056  45.148
    1STR   C08047496  44.778  50.172  45.093
    1STR   H08147497  44.776  50.166  44.984
    1STR   C08247498  44.635  50.185  45.148
    1STR   H08347499  44.635  50.186  45.257
    1STR   H08447500  44.571  50.104  45.115
    1STR   H08547501  44.589  50.278  45.114
    1STR   C08647502  44.865  50.293  45.132
    1STR   H08747503  44.867  50.303  45.241
    1STR   H08847504  44.967  50.276  45.099
    1STR   O08947505  44.811  50.411  45.072
    1STR   C09047506  44.880  50.532  45.104
    1STR   H09147507  44.904  50.534  45.210
    1STR   C09247508  45.008  50.542  45.020
    1STR   H09347509  44.987  50.535  44.914
    1STR   H09447510  45.080  50.464  45.045
    1STR   H09547511  45.058  50.638  45.037
    1STR   C09647512  44.784  50.648  45.074
    1STR   H09747513  44.759  50.649  44.968
    1STR   H09847514  44.691  50.632  45.129
    1STR   O09947515  44.845  50.771  45.113
    1STR   C10047516  44.767  50.888  45.087
    1STR   H10147517  44.722  50.882  44.988
    1STR   C10247518  44.658  50.903  45.195
    1STR   H10347519  44.702  50.904  45.295
    1STR   H10447520  44.585  50.822  45.191
    1STR   H10547521  44.604  50.996  45.181
    1STR   C10647522  44.864  51.007  45.088
    1STR   H10747523  44.910  51.017  45.186
    1STR   H10847524  44.944  50.989  45.017
    1STR   O10947525  44.793  51.126  45.053
    1STR   C11047526  44.870  51.245  45.054
    1STR   H11147527  44.935  51.248  45.142
    1STR   C11247528  44.955  51.254  44.926
    1STR   H11347529  44.892  51.247  44.837
    1STR   H11447530  45.029  51.175  44.920
    1STR   H11547531  45.008  51.349  44.921
    1STR   C11647532  44.772  51.363  45.064
    1STR   H11747533  44.707  51.365  44.977
    1STR   H11847534  44.709  51.349  45.152
    1STR   O11947535  44.846  51.485  45.075
    1STR   C12047536  44.766  51.603  45.081
    1STR   H12147537  44.685  51.598  45.009
    1STR   C12247538  44.709  51.620  45.223
    1STR   H12347539  44.789  51.621  45.297
    1STR   H12447540  44.640  51.541  45.250
    1STR   H12547541  44.655  51.715  45.232
    1STR   C12647542  44.856  51.721  45.042
    1STR   H12747543  44.938  51.731  45.114
    1STR   H12847544  44.901  51.701  44.945
    1STR   O12947545  44.779  51.841  45.038
    1STR   C13047546  44.852  51.959  45.006
    1STR   H13147547  44.947  51.960  45.061
    1STR   C13247548  44.878  51.965  44.855
    1STR   H13347549  44.785  51.959  44.799
    1STR   H13447550  44.943  51.885  44.821
    1STR   H13547551  44.926  52.060  44.828
    1STR   C13647552  44.768  52.078  45.054
    1STR   H13747553  44.673  52.081  45.000
    1STR   H13847554  44.745  52.065  45.160
    1STR   O13947555  44.841  52.199  45.033
    1STR   C14047556  44.772  52.318  45.070
    1STR   H14147557  44.669  52.314  45.036
    1STR   C14247558  44.778  52.337  45.223
    1STR   H14347559  44.880  52.336  45.259
    1STR   H14447560  44.723  52.259  45.276
    1STR   H14547561  44.733  52.432  45.252
    1STR   C14647562  44.841  52.435  44.997
    1STR   H14747563  44.945  52.443  45.030
    1STR   H14847564  44.843  52.414  44.890
    1STR   O14947565  44.770  52.556  45.023
    1STR   C15047566  44.826  52.673  44.965
    1STR   H15147567  44.935  52.673  44.977
    1STR   C15247568  44.790  52.679  44.815
    1STR   H15347569  44.682  52.674  44.801
    1STR   H15447570  44.835  52.598  44.759
    1STR   H15547571  44.825  52.772  44.771
    1STR   C15647572  44.770  52.794  45.041
    1STR   H15747573  44.662  52.798  45.030
    1STR   H15847574  44.791  52.781  45.147
    1STR   O15947575  44.831  52.913  44.992
    1STR   C16047576  44.784  53.033  45.052
    1STR   H16147577  44.675  53.031  45.063
    1STR   C16247578  44.850  53.052  45.190
    1STR   H16347579  44.959  53.050  45.182
    1STR   H16447580  44.820  52.975  45.261
    1STR   H16547581  44.822  53.148  45.234
    1STR   C16647582  44.820  53.149  44.957
    1STR   H16747583  44.928  53.155  44.946
    1STR   H16847584  44.779  53.127  44.859
    1STR   O16947585  44.767  53.271  45.008
    1STR   C17047586  44.797  53.387  44.931
    1STR   H17147587  44.901  53.385  44.899
    1STR   C17247588  44.704  53.393  44.809
    1STR   H17347589  44.599  53.390  44.839
    1STR   H17447590  44.721  53.311  44.739
    1STR   H17547591  44.720  53.486  44.753
    1STR   C17647592  44.777  53.508  45.023
    1STR   H17747593  44.674  53.514  45.056
    1STR   H17847594  44.839  53.496  45.112
    1STR   O17947595  44.815  53.627  44.953
    1STR   C18047596  44.799  53.748  45.026
    1STR   H18147597  44.703  53.747  45.078
    1STR   C18247598  44.914  53.766  45.125
    1STR   H18347599  45.011  53.762  45.075
    1STR   H18447600  44.914  53.689  45.203
    1STR   H18547601  44.907  53.862  45.176
    1STR   C18647602  44.795  53.862  44.923
    1STR   H18747603  44.890  53.867  44.869
    1STR   H18847604  44.717  53.842  44.849
    1STR   O18947605  44.769  53.985  44.990
    1STR   C19047606  44.767  54.101  44.907
    1STR   H19147607  44.850  54.097  44.836
    1STR   C19247608  44.633  54.109  44.832
    1STR   H19347609  44.549  54.108  44.901
    1STR   H19447610  44.620  54.026  44.762
    1STR   H19547611  44.627  54.201  44.774
    1STR   C19647612  44.788  54.223  44.997
    1STR   H19747613  44.706  54.231  45.069
    1STR   H19847614  44.879  54.210  45.055
    1STR   O19947615  44.796  54.341  44.917
    1STR   C20047616  44.812  54.462  44.990
    1STR   H20147617  44.745  54.463  45.076
    1STR   C20247618  44.958  54.478  45.035
    1STR   H20347619  45.026  54.473  44.950
    1STR   H20447620  44.987  54.402  45.106
    1STR   H20547621  44.973  54.575  45.083
    1STR   C20647622  44.769  54.577  44.896
    1STR   H20747623  44.834  54.580  44.809
    1STR   H20847624  44.668  54.557  44.860
    1STR   O20947625  44.773  54.700  44.967
    1STR   C21047626  44.740  54.816  44.891
    1STR   H21147627  44.787  54.811  44.792
    1STR   C21247628  44.587  54.826  44.876
    1STR   H21347629  44.538  54.826  44.973
    1STR   H21447630  44.546  54.743  44.817
    1STR   H21547631  44.560  54.918  44.824
    1STR   C21647632  44.797  54.938  44.965
    1STR   H21747633  44.751  54.947  45.063
    1STR   H21847634  44.904  54.923  44.981
    1STR   O21947635  44.774  55.055  44.887
    1STR   C22047636  44.819  55.177  44.946
    1STR   H22147637  44.793  55.179  45.052
    1STR   C22247638  44.971  55.190  44.929
    1STR   H22347639  45.000  55.183  44.824
    1STR   H22447640  45.026  55.113  44.983
    1STR   H22547641  45.006  55.286  44.966
    1STR   C22647642  44.744  55.292  44.877
    1STR   H22747643  44.769  55.294  44.771
    1STR   H22847644  44.637  55.274  44.884
    1STR   O22947645  44.779  55.415  44.939
    1STR   C23047646  44.719  55.531  44.881
    1STR   H23147647  44.723  55.525  44.772
    1STR   C23247648  44.574  55.543  44.928
    1STR   H23347649  44.567  55.544  45.037
    1STR   H23447650  44.511  55.462  44.892
    1STR   H23547651  44.529  55.636  44.892
    1STR   C23647652  44.803  55.652  44.925
    1STR   H23747653  44.800  55.662  45.034
    1STR   H23847654  44.907  55.636  44.897
    1STR   O23947655  44.753  55.770  44.862
    1STR   C24047656  44.820  55.891  44.897
    1STR   H24147657  44.838  55.894  45.005
    1STR   C24247658  44.952  55.901  44.821
    1STR   H24347659  44.936  55.894  44.713
    1STR   H24447660  45.023  55.824  44.849
    1STR   H24547661  45.001  55.997  44.840
    1STR   C24647662  44.725  56.007  44.863
    1STR   H24747663  44.706  56.009  44.755
    1STR   H24847664  44.630  55.992  44.913
    1STR   O24947665  44.784  56.131  44.905
    1STR   C25047666  44.708  56.247  44.875
    1STR   H25147667  44.668  56.242  44.774
    1STR   C25247668  44.593  56.262  44.976
    1STR   H25347669  44.631  56.263  45.079
    1STR   H25447670  44.520  56.181  44.968
    1STR   H25547671  44.539  56.355  44.960
    1STR   C25647672  44.803  56.368  44.881
    1STR   H25747673  44.844  56.378  44.982
    1STR   H25847674  44.887  56.350  44.814
    1STR   O25947675  44.734  56.487  44.843
    1STR   C26047676  44.811  56.606  44.847
    1STR   H26147677  44.871  56.609  44.939
    1STR   C26247678  44.903  56.614  44.724
    1STR   H26347679  44.845  56.606  44.632
    1STR   H26447680  44.978  56.535  44.723
    1STR   H26547681  44.956  56.709  44.722
    1STR   C26647682  44.713  56.725  44.852
    1STR   H26747683  44.652  56.726  44.762
    1STR   H26847684  44.645  56.711  44.936
    1STR   O26947685  44.785  56.848  44.866
    1STR   C27047686  44.705  56.966  44.868
    1STR   H27147687  44.628  56.960  44.791
    1STR   C27247688  44.640  56.981  45.007
    1STR   H27347689  44.715  56.981  45.086
    1STR   H27447690  44.569  56.902  45.029
    1STR   H27547691  44.585  57.075  45.013
    1STR   C27647692  44.796  57.085  44.835
    1STR   H27747693  44.874  57.094  44.911
    1STR   H27847694  44.846  57.066  44.740
    1STR   O27947695  44.719  57.206  44.828
    1STR   C28047696  44.793  57.325  44.800
    1STR   H28147697  44.885  57.326  44.859
    1STR   C28247698  44.828  57.330  44.650
    1STR   H28347699  44.738  57.322  44.589
    1STR   H28447700  44.895  57.250  44.620
    1STR   H28547701  44.876  57.424  44.625
    1STR   C28647702  44.707  57.446  44.842
    1STR   H28747703  44.615  57.447  44.784
    1STR   H28847704  44.679  57.434  44.946
    1STR   O28947705  44.780  57.568  44.823
    1STR   C29047706  44.710  57.688  44.857
    1STR   H29147707  44.609  57.684  44.818
    1STR   C29247708  44.707  57.704  45.010
    1STR   H29347709  44.807  57.701  45.052
    1STR   H29447710  44.648  57.626  45.058
    1STR   H29547711  44.662  57.799  45.038
    1STR   C29647712  44.783  57.806  44.790
    1STR   H29747713  44.886  57.812  44.827
    1STR   H29847714  44.790  57.787  44.683
    1STR   O29947715  44.714  57.929  44.815
    1STR   C30047716  44.773  58.046  44.758
    1STR   H30147717  44.881  58.045  44.774
    1STR   C30247718  44.743  58.051  44.607
    1STR   H30347719  44.636  58.046  44.588
    1STR   H30447720  44.791  57.970  44.553
    1STR   H30547721  44.779  58.144  44.563
    1STR   C30647722  44.717  58.170  44.830
    1STR   H30747723  44.609  58.177  44.813
    1STR   H30847724  44.730  58.156  44.937
    1STR   O30947725  44.783  58.291  44.788
    1STR    H1R47726  44.628  58.413  44.848
    1STR    H1S47727  44.762  58.514  45.041
    1STR    H1T47728  44.895  58.408  45.000
    1STR    H1U47729  44.743  58.341  45.058
    1STR    H1V47730  44.769  58.521  44.664
    1STR    H1W47731  44.895  58.546  44.782
    1STR    H1X47732  44.599  58.820  44.884
    1STR    H1Y47733  44.563  58.956  45.082
    1STR    H1Z47734  44.598  59.173  45.191
    1STR    H2047735  44.824  59.335  45.225
    1STR    H2147736  44.841  59.437  45.084
    1STR    H2247737  44.682  59.419  45.160
    1STR    H2347738  44.986  59.273  44.835
    1STR    H2747739  44.853  59.059  44.781
    1STR    H2847740  44.690  46.471  45.298
    1STR    H2947741  44.601  46.249  45.273
    1STR    H2A47742  44.711  46.001  45.034
    1STR    H2B47743  44.585  46.053  45.143
    1STR    H2C47744  44.724  45.967  45.208
    1STR   BCK147745   0.062  60.110   0.898
    1STR    O0347746   0.116  60.007   0.859
    1STR    N0447747  60.152  60.122   1.012
    1STR    C0547748  60.113  60.021   1.100
    1STR    C0647749  60.138  60.033   1.239
    1STR    C0747750  60.095  59.935   1.333
    1STR    N0847751  60.119  59.954   1.471
    1STR    C0947752  60.093  59.873   1.575
    1STR    O0A47753  60.045  59.761   1.567
    1STR    O0B47754  60.128  59.931   1.694
    1STR    C0C47755  60.115  59.857   1.816
    1STR    C0D47756   0.077  59.765   1.833
    1STR    C0E47757  60.098  59.951   1.938
    1STR    O0F47758  60.083  59.873   2.057
    1STR    C0G47759  60.064  59.947   2.179
    1STR    C0H47760  59.918  59.994   2.187
    1STR    C0I47761  60.099  59.856   2.299
    1STR    O0J47762  60.088  59.930   2.421
    1STR    C0K47763  59.718  60.009  13.271
    1STR    C0M47764  59.866  59.969  13.281
    1STR    C0N47765  59.676  60.104  13.384
    1STR    O0O47766  59.676  60.038  13.509
    1STR    C0P47767  59.777  60.055  13.596
    1STR    O0Q47768  59.876  60.125  13.579
    1STR    N0R47769  59.751  59.983  13.704
    1STR    C0S47770  59.820  59.962  13.824
    1STR    C0T47771  59.762  59.873  13.915
    1STR    C0U47772  59.826  59.841  14.036
    1STR    C0V47773  59.950  59.899  14.068
    1STR    C0W47774  60.021  59.851  14.193
    1STR    C0X47775  60.008  59.995  13.981
    1STR    N0Y47776  60.130  60.054  14.012
    1STR   BCK247777   0.001  60.119  14.124
    1STR    O1047778  60.081  60.156  14.209
    1STR    C1347779  59.943  60.024  13.858
    1STR    C1447780  60.024  59.824   1.282
    1STR    C1547781  59.996  59.811   1.145
    1STR    C1647782  60.038  59.910   1.053
    1STR    C1747783  59.995  59.894   0.908
    1STR    H1B47784  60.125   0.057   1.034
    1STR    H1C47785   0.034  60.119   1.274
    1STR    H1D47786   0.003  60.039   1.499
    1STR    H1E47787  60.025  59.795   1.811
    1STR    H1F47788   0.170  59.823   1.840
    1STR    H1G47789   0.069  59.706   1.924
    1STR    H1H47790   0.086  59.696   1.750
    1STR    H1I47791  60.010  60.013   1.922
    1STR    H1J47792   0.023  60.018   1.946
    1STR    H1K47793  60.131  60.033   2.181
    1STR    H1M47794  59.849  59.910   2.181
    1STR    H1N47795  59.892  60.064   2.108
    1STR    H1O47796  59.899  60.045   2.282
    1STR    H1P47797  60.033  59.769   2.300
    1STR    H1Q47798   0.041  59.819   2.286
    1STR   C01047799  60.112  59.857   2.541
    1STR   H01147800  60.062  59.760   2.537
    1STR   C01247801   0.104  59.836   2.559
    1STR   H01347802   0.157  59.931   2.559
    1STR   H01447803   0.146  59.773   2.482
    1STR   H01547804   0.125  59.788   2.655
    1STR   C01647805  60.053  59.937   2.659
    1STR   H01747806  60.101  60.035   2.665
    1STR   H01847807  59.947  59.954   2.640
    1STR   O01947808  60.070  59.865   2.782
    1STR   C02047809  60.022  59.932   2.899
    1STR   H02147810  60.051  60.037   2.897
    1STR   C02247811  59.869  59.920   2.907
    1STR   H02347812  59.837  59.816   2.905
    1STR   H02447813  59.819  59.973   2.825
    1STR   H02547814  59.832  59.964   3.000
    1STR   C02647815  60.088  59.867   3.023
    1STR   H02747816  60.061  59.762   3.029
    1STR   H02847817   0.037  59.871   3.011
    1STR   O02947818  60.049  59.936   3.141
    1STR   C03047819  60.100  59.883   3.264
    1STR   H03147820  60.093  59.774   3.263
    1STR   C03247821   0.086  59.926   3.282
    1STR   H03347822   0.096  60.035   3.278
    1STR   H03447823   0.152  59.884   3.206
    1STR   H03547824   0.125  59.893   3.378
    1STR   C03647825  60.012  59.935   3.379
    1STR   H03747826  60.017  60.044   3.383
    1STR   H03847827  59.908  59.909   3.359
    1STR   O03947828  60.055  59.878   3.503
    1STR   C04047829  59.984  59.922   3.619
    1STR   H04147830  59.969  60.030   3.615
    1STR   C04247831  59.849  59.850   3.627
    1STR   H04347832  59.861  59.742   3.627
    1STR   H04447833  59.783  59.877   3.545
    1STR   H04547834  59.797  59.877   3.720
    1STR   C04647835  60.072  59.891   3.742
    1STR   H04747836  60.088  59.784   3.749
    1STR   H04847837   0.010  59.938   3.728
    1STR   O04947838  60.009  59.941   3.859
    1STR   C05047839  60.078  59.915   3.982
    1STR   H05147840  60.115  59.812   3.983
    1STR   C05247841   0.035  60.013   3.997
    1STR   H05347842   0.000  60.117   3.992
    1STR   H05447843   0.111  59.999   3.921
    1STR   H05547844   0.083  60.000   4.094
    1STR   C05647845  59.976  59.930   4.096
    1STR   H05747846  59.938  60.032   4.099
    1STR   H05847847  59.891  59.864   4.078
    1STR   O05947848  60.039  59.896   4.220
    1STR   C06047849  59.957  59.909   4.336
    1STR   H06147850  59.899  60.002   4.331
    1STR   C06247851  59.861  59.789   4.346
    1STR   H06347852  59.916  59.695   4.347
    1STR   H06447853  59.790  59.786   4.264
    1STR   H06547854  59.803  59.794   4.439
    1STR   C06647855  60.049  59.918   4.458
    1STR   H06747856  60.107  59.826   4.467
    1STR   H06847857  60.121  59.999   4.443
    1STR   O06947858  59.972  59.941   4.576
    1STR   C07047859  60.046  59.947   4.697
    1STR   H07147860  60.121  59.868   4.699
    1STR   C07247861  60.114  60.084   4.710
    1STR   H07347862  60.041   0.005   4.703
    1STR   H07447863   0.029  60.101   4.634
    1STR   H07547864   0.004  60.093   4.807
    1STR   C07647865  59.948  59.922   4.812
    1STR   H07747866  59.872  60.000   4.814
    1STR   H07847867  59.896  59.828   4.795
    1STR   O07947868  60.019  59.918   4.936
    1STR   C08047869  59.938  59.899   5.052
    1STR   H08147870  59.848  59.961   5.046
    1STR   C08247871  59.899  59.751   5.065
    1STR   H08347872  59.987  59.687   5.066
    1STR   H08447873  59.834  59.718   4.984
    1STR   H08547874  59.844  59.734   5.158
    1STR   C08647875  60.020  59.946   5.173
    1STR   H08747876  60.110  59.885   5.183
    1STR   H08847877  60.053  60.048   5.156
    1STR   O08947878  59.940  59.938   5.291
    1STR   C09047879  60.006  59.975   5.411
    1STR   H09147880  60.106  59.932   5.414
    1STR   C09247881  60.013  60.128   5.422
    1STR   H09347882  59.914   0.013   5.415
    1STR   H09447883  60.076   0.012   5.344
    1STR   H09547884  60.056  60.158   5.518
    1STR   C09647885  59.926  59.915   5.528
    1STR   H09747886  59.825  59.957   5.529
    1STR   H09847887  59.916  59.807   5.512
    1STR   O09947888  59.993  59.941   5.651
    1STR   C10047889  59.927  59.893   5.767
    1STR   H10147890  59.820  59.915   5.762
    1STR   C10247891  59.950  59.742   5.783
    1STR   H10347892  60.056  59.719   5.784
    1STR   H10447893  59.903  59.685   5.702
    1STR   H10547894  59.906  59.706   5.876
    1STR   C10647895  59.984  59.971   5.887
    1STR   H10747896  60.091  59.951   5.897
    1STR   H10847897  59.973  60.078   5.868
    1STR   O10947898  59.914  59.934   6.006
    1STR   C11047899  59.960  59.997   6.125
    1STR   H11147900  60.069  59.998   6.128
    1STR   C11247901  59.905  60.140   6.134
    1STR   H11347902  59.797  60.141   6.126
    1STR   H11447903  59.945   0.044   6.055
    1STR   H11547904  59.933   0.026   6.228
    1STR   C11647905  59.911  59.911   6.243
    1STR   H11747906  59.802  59.909   6.245
    1STR   H11847907  59.944  59.808   6.229
    1STR   O11947908  59.962  59.964   6.365
    1STR   C12047909  59.921  59.896   6.483
    1STR   H12147910  59.814  59.873   6.478
    1STR   C12247911  60.002  59.767   6.500
    1STR   H12347912  60.109  59.788   6.501
    1STR   H12447913  59.983  59.695   6.421
    1STR   H12547914  59.978  59.718   6.595
    1STR   C12647915  59.942  59.992   6.601
    1STR   H12747916  60.048  60.017   6.611
    1STR   H12847917  59.889  60.085   6.581
    1STR   O12947918  59.893  59.932   6.721
    1STR   C13047919  59.911  60.010   6.839
    1STR   H13147920  60.010  60.054   6.840
    1STR   C13247921  59.804  60.120   6.846
    1STR   H13347922  59.703  60.077   6.839
    1STR   H13447923  59.814   0.033   6.766
    1STR   H13547924  59.811   0.014   6.940
    1STR   C13647925  59.900  59.914   6.958
    1STR   H13747926  59.801  59.868   6.961
    1STR   H13847927  59.972  59.833   6.945
    1STR   O13947928  59.926  59.985   7.079
    1STR   C14047929  59.916  59.908   7.198
    1STR   H14147930  59.827  59.844   7.194
    1STR   C14247931  60.042  59.822   7.217
    1STR   H14347932  60.132  59.884   7.216
    1STR   H14447933  60.053  59.747   7.139
    1STR   H14547934  60.039  59.769   7.312
    1STR   C14647935  59.897  60.006   7.315
    1STR   H14747936  59.985  60.071   7.323
    1STR   H14847937  59.812  60.070   7.294
    1STR   O14947938  59.876  59.933   7.436
    1STR   C15047939  59.862  60.013   7.553
    1STR   H15147940  59.935  60.094   7.553
    1STR   C15247941  59.720  60.071   7.559
    1STR   H15347942  59.645  59.992   7.554
    1STR   H15447943  59.700  60.141   7.478
    1STR   H15547944  59.704  60.126   7.652
    1STR   C15647945  59.891  59.923   7.674
    1STR   H15747946  59.818  59.842   7.678
    1STR   H15847947  59.989  59.877   7.661
    1STR   O15947948  59.887  60.001   7.793
    1STR   C16047949  59.908  59.928   7.913
    1STR   H16147950  59.853  59.833   7.911
    1STR   C16247951  60.058  59.900   7.932
    1STR   H16347952  60.116  59.993   7.930
    1STR   H16447953  60.098  59.834   7.855
    1STR   H16547954  60.077  59.852   8.028
    1STR   C16647955  59.852  60.012   8.029
    1STR   H16747956  59.906  60.107   8.035
    1STR   H16847957  59.748  60.037   8.007
    1STR   O16947958  59.863  59.939   8.151
    1STR   C17047959  59.817  60.009   8.267
    1STR   H17147960  59.853  60.112   8.265
    1STR   C17247961  59.664  60.005   8.273
    1STR   H17347962  59.627  59.903   8.270
    1STR   H17447963  59.618  60.060   8.191
    1STR   H17547964  59.628  60.050   8.366
    1STR   C17647965  59.880  59.939   8.389
    1STR   H17747966  59.846  59.836   8.395
    1STR   H17847967  59.989  59.937   8.376
    1STR   O17947968  59.846  60.011   8.507
    1STR   C18047969  59.895  59.955   8.628
    1STR   H18147970  59.882  59.846   8.628
    1STR   C18247971  60.044  59.990   8.646
    1STR   H18347972  60.059  60.098   8.642
    1STR   H18447973  60.106  59.944   8.569
    1STR   H18547974  60.080  59.955   8.742
    1STR   C18647975  59.810  60.012   8.743
    1STR   H18747976  59.822  60.120   8.747
    1STR   H18847977  59.705  59.993   8.722
    1STR   O18947978  59.849  59.951   8.866
    1STR   C19047979  59.780  59.999   8.981
    1STR   H19147980  59.771  60.108   8.977
    1STR   C19247981  59.641  59.935   8.989
    1STR   H19347982  59.647  59.826   8.988
    1STR   H19447983  59.576  59.965   8.906
    1STR   H19547984  59.590  59.963   9.081
    1STR   C19647985  59.866  59.962   9.103
    1STR   H19747986  59.875  59.854   9.111
    1STR   H19847987  59.966  60.003   9.090
    1STR   O19947988  59.806  60.016   9.221
    1STR   C20047989  59.873  59.986   9.342
    1STR   H20147990  59.905  59.882   9.343
    1STR   C20247991  59.996  60.078   9.358
    1STR   H20347992  59.967   0.023   9.353
    1STR   H20447993  60.071  60.060   9.282
    1STR   H20547994  60.043  60.062   9.455
    1STR   C20647995  59.773  60.007   9.457
    1STR   H20747996  59.740  60.111   9.460
    1STR   H20847997  59.684  59.946   9.437
    1STR   O20947998  59.833  59.969   9.580
    1STR   C21047999  59.751  59.986   9.696
    1STR   H21148000  59.699  60.082   9.691
    1STR   C21248001  59.649  59.872   9.706
    1STR   H21348002  59.699  59.775   9.706
    1STR   H21448003  59.578  59.873   9.623
    1STR   H21548004  59.592  59.879   9.798
    1STR   C21648005  59.844  59.989   9.818
    1STR   H21748006  59.897  59.894   9.827
    1STR   H21848007  59.920  60.066   9.803
    1STR   O21948008  59.768  60.017   9.935
    1STR   C22048009  59.843  60.018  10.056
    1STR   H22148010  59.913  59.935  10.059
    1STR   C22248011  59.918  60.152  10.070
    1STR   H22348012  59.849   0.076  10.063
    1STR   H22448013  59.994   0.004   9.993
    1STR   H22548014  59.968  60.158  10.166
    1STR   C22648015  59.743  59.999  10.171
    1STR   H22748016  59.671  60.081  10.173
    1STR   H22848017  59.686  59.907  10.154
    1STR   O22948018  59.813  59.990  10.295
    1STR   C23048019  59.732  59.975  10.411
    1STR   H23148020  59.646  60.043  10.405
    1STR   C23248021  59.684  59.830  10.423
    1STR   H23348022  59.769  59.761  10.424
    1STR   H23448023  59.618  59.801  10.342
    1STR   H23548024  59.629  59.815  10.516
    1STR   C23648025  59.816  60.018  10.532
    1STR   H23748026  59.903  59.952  10.542
    1STR   H23848027  59.855  60.118  10.515
    1STR   O23948028  59.736  60.014  10.649
    1STR   C24048029  59.804  60.047  10.770
    1STR   H24148030  59.902  59.999  10.773
    1STR   C24248031  59.819   0.040  10.781
    1STR   H24348032  59.723   0.090  10.774
    1STR   H24448033  59.884   0.080  10.703
    1STR   H24548034  59.863   0.067  10.877
    1STR   C24648035  59.720  59.991  10.886
    1STR   H24748036  59.622  60.038  10.888
    1STR   H24848037  59.704  59.884  10.870
    1STR   O24948038  59.789  60.013  11.009
    1STR   C25048039  59.720  59.969  11.126
    1STR   H25148040  59.614  59.996  11.120
    1STR   C25248041  59.735  59.817  11.141
    1STR   H25348042  59.839  59.787  11.142
    1STR   H25448043  59.685  59.763  11.060
    1STR   H25548044  59.690  59.783  11.234
    1STR   C25648045  59.781  60.043  11.246
    1STR   H25748046  59.887  60.017  11.256
    1STR   H25848047  59.776  60.151  11.227
    1STR   O25948048  59.709  60.010  11.364
    1STR   C26048049  59.758  60.070  11.484
    1STR   H26148050  59.867  60.065  11.487
    1STR   C26248051  59.712   0.056  11.492
    1STR   H26348052  59.603   0.063  11.485
    1STR   H26448053  59.755   0.117  11.414
    1STR   H26548054  59.741   0.100  11.587
    1STR   C26648055  59.704  59.987  11.602
    1STR   H26748056  59.595  59.991  11.603
    1STR   H26848057  59.732  59.882  11.587
    1STR   O26948058  59.758  60.037  11.724
    1STR   C27048059  59.713  59.971  11.841
    1STR   H27148060  59.605  59.953  11.836
    1STR   C27248061  59.787  59.837  11.858
    1STR   H27348062  59.895  59.852  11.860
    1STR   H27448063  59.764  59.767  11.779
    1STR   H27548064  59.760  59.790  11.953
    1STR   C27648065  59.740  60.065  11.960
    1STR   H27748066  59.847  60.084  11.969
    1STR   H27848067  59.692   0.001  11.940
    1STR   O27948068  59.687  60.007  12.079
    1STR   C28048069  59.709  60.083  12.198
    1STR   H28148070  59.811  60.123  12.200
    1STR   C28248071  59.608   0.039  12.205
    1STR   H28348072  59.505   0.002  12.198
    1STR   H28448073  59.623   0.112  12.125
    1STR   H28548074  59.617   0.093  12.299
    1STR   C28648075  59.693  59.988  12.317
    1STR   H28748076  59.592  59.947  12.319
    1STR   H28848077  59.761  59.903  12.304
    1STR   O28948078  59.722  60.057  12.438
    1STR   C29048079  59.707  59.980  12.557
    1STR   H29148080  59.616  59.921  12.552
    1STR   C29248081  59.829  59.888  12.575
    1STR   H29348082  59.922  59.945  12.575
    1STR   H29448083  59.836  59.812  12.497
    1STR   H29548084  59.823  59.835  12.670
    1STR   C29648085  59.694  60.079  12.673
    1STR   H29748086  59.785  60.139  12.682
    1STR   H29848087  59.612  60.148  12.653
    1STR   O29948088  59.669  60.008  12.794
    1STR   C30048089  59.660  60.089  12.911
    1STR   H30148090  59.737   0.006  12.909
    1STR   C30248091  59.521  60.153  12.919
    1STR   H30348092  59.442  60.078  12.915
    1STR   H30448093  59.504   0.064  12.838
    1STR   H30548094  59.509   0.048  13.012
    1STR   C30648095  59.688  59.998  13.032
    1STR   H30748096  59.609  59.922  13.041
    1STR   H30848097  59.782  59.945  13.016
    1STR   O30948098  59.694  60.079  13.149
    1STR    H1R48099  59.654  59.920  13.276
    1STR    H1S48100  59.886  59.919  13.376
    1STR    H1T48101  59.930  60.057  13.277
    1STR    H1U48102  59.897  59.901  13.202
    1STR    H1V48103  59.574  60.139  13.366
    1STR    H1W48104  59.738   0.034  13.385
    1STR    H1X48105  59.663  59.935  13.694
    1STR    H1Y48106  59.667  59.825  13.894
    1STR    H1Z48107  59.780  59.771  14.103
    1STR    H2048108  60.125  59.831  14.171
    1STR    H2148109  60.015  59.925  14.273
    1STR    H2248110  59.977  59.758  14.231
    1STR    H2348111   0.044  60.048  13.943
    1STR    H2748112  59.989  60.094  13.790
    1STR    H2848113  59.988  59.745   1.346
    1STR    H2948114  59.941  59.725   1.110
    1STR    H2A48115  59.972  59.991   0.864
    1STR    H2B48116  59.906  59.832   0.899
    1STR    H2C48117  60.075  59.848   0.850
    1STR   BCK148118   0.092   0.084  15.936
    1STR    O0348119   0.112   0.204  15.917
    1STR    N0448120   0.121   0.021  16.050
    1STR    C0548121   0.204   0.072  16.149
    1STR    C0648122   0.159   0.080  16.284
    1STR    C0748123   0.244   0.130  16.387
    1STR    N0848124   0.199   0.132  16.520
    1STR    C0948125   0.261   0.176  16.631
    1STR    O0A48126   0.370   0.232  16.633
    1STR    O0B48127   0.188   0.153  16.742
    1STR    C0C48128   0.238   0.198  16.869
    1STR    C0D48129   0.204   0.347  16.886
    1STR    C0E48130   0.184   0.113  16.985
    1STR    O0F48131   0.246   0.159  17.106
    1STR    C0G48132   0.212   0.090  17.225
    1STR    C0H48133   0.289  60.117  17.232
    1STR    C0I48134   0.248   0.181  17.344
    1STR    O0J48135   0.207   0.119  17.467
    1STR    C0K48136   0.438  59.969  28.308
    1STR    C0M48137   0.352  60.095  28.323
    1STR    C0N48138   0.413  59.867  28.421
    1STR    O0O48139   0.465  59.915  28.544
    1STR    C0P48140   0.384  59.970  28.635
    1STR    O0Q48141   0.262  59.981  28.624
    1STR    N0R48142   0.457  60.014  28.737
    1STR    C0S48143   0.418  60.083  28.852
    1STR    C0T48144   0.517  60.156  28.921
    1STR    C0U48145   0.485   0.072  29.035
    1STR    C0V48146   0.353   0.074  29.084
    1STR    C0W48147   0.319   0.161  29.204
    1STR    C0X48148   0.254  60.156  29.020
    1STR    N0Y48149   0.125  60.154  29.072
    1STR   BCK248150   0.081  60.076  29.171
    1STR    O1048151  60.132  60.096  29.223
    1STR    C1348152   0.286  60.082  28.904
    1STR    C1448153   0.374   0.172  16.349
    1STR    C1548154   0.420   0.162  16.217
    1STR    C1648155   0.337   0.109  16.117
    1STR    C1748156   0.395   0.090  15.978
    1STR    H1B48157   0.089  60.086  16.057
    1STR    H1C48158   0.059   0.049  16.307
    1STR    H1D48159   0.108   0.094  16.540
    1STR    H1E48160   0.347   0.186  16.870
    1STR    H1F48161   0.096   0.364  16.887
    1STR    H1G48162   0.245   0.385  16.980
    1STR    H1H48163   0.246   0.407  16.805
    1STR    H1I48164   0.207   0.008  16.967
    1STR    H1J48165   0.075   0.122  16.992
    1STR    H1K48166   0.104   0.071  17.228
    1STR    H1M48167   0.396  60.134  17.225
    1STR    H1N48168   0.260  60.048  17.153
    1STR    H1O48169   0.269  60.066  17.327
    1STR    H1P48170   0.355   0.200  17.346
    1STR    H1Q48171   0.198   0.277  17.332
    1STR   C01048172   0.239   0.191  17.586
    1STR   H01148173   0.341   0.227  17.581
    1STR   C01248174   0.141   0.309  17.604
    1STR   H01348175   0.038   0.275  17.604
    1STR   H01448176   0.153   0.384  17.526
    1STR   H01548177   0.159   0.359  17.699
    1STR   C01648178   0.229   0.092  17.703
    1STR   H01748179   0.127   0.053  17.710
    1STR   H01848180   0.294   0.007  17.684
    1STR   O01948181   0.265   0.156  17.826
    1STR   C02048182   0.256   0.075  17.943
    1STR   H02148183   0.163   0.017  17.941
    1STR   C02248184   0.377  60.140  17.950
    1STR   H02348185   0.471   0.035  17.947
    1STR   H02448186   0.378  60.068  17.868
    1STR   H02548187   0.375  60.083  18.043
    1STR   C02648188   0.251   0.168  18.065
    1STR   H02748189   0.343   0.227  18.071
    1STR   H02848190   0.169   0.238  18.053
    1STR   O02948191   0.233   0.090  18.184
    1STR   C03048192   0.231   0.164  18.306
    1STR   H03148193   0.310   0.239  18.305
    1STR   C03248194   0.094   0.231  18.324
    1STR   H03348195   0.013   0.158  18.320
    1STR   H03448196   0.075   0.307  18.248
    1STR   H03548197   0.088   0.281  18.420
    1STR   C03648198   0.260   0.066  18.421
    1STR   H03748199   0.183  60.149  18.425
    1STR   H03848200   0.354   0.015  18.401
    1STR   O03948201   0.268   0.137  18.544
    1STR   C04048202   0.290   0.057  18.660
    1STR   H04148203   0.228  60.127  18.656
    1STR   C04248204   0.439   0.018  18.668
    1STR   H04348205   0.502   0.106  18.668
    1STR   H04448206   0.469  60.113  18.586
    1STR   H04548207   0.459  60.123  18.761
    1STR   C04648208   0.247   0.139  18.783
    1STR   H04748209   0.308   0.229  18.791
    1STR   H04848210   0.144   0.171  18.769
    1STR   O04948211   0.259   0.059  18.900
    1STR   C05048212   0.226   0.125  19.022
    1STR   H05148213   0.269   0.226  19.024
    1STR   C05248214   0.073   0.132  19.038
    1STR   H05348215   0.029   0.032  19.033
    1STR   H05448216   0.027   0.194  18.962
    1STR   H05548217   0.047   0.174  19.135
    1STR   C05648218   0.291   0.045  19.137
    1STR   H05748219   0.250  60.104  19.140
    1STR   H05848220   0.398   0.036  19.118
    1STR   O05948221   0.268   0.113  19.261
    1STR   C06048222   0.319   0.047  19.376
    1STR   H06148223   0.299  60.100  19.371
    1STR   C06248224   0.471   0.071  19.387
    1STR   H06348225   0.494   0.178  19.387
    1STR   H06448226   0.526   0.025  19.305
    1STR   H06548227   0.510   0.029  19.479
    1STR   C06648228   0.245   0.104  19.498
    1STR   H06748229   0.264   0.211  19.508
    1STR   H06848230   0.138   0.092  19.483
    1STR   O06948231   0.287   0.034  19.616
    1STR   C07048232   0.228   0.080  19.737
    1STR   H07148233   0.226   0.189  19.740
    1STR   C07248234   0.085   0.025  19.751
    1STR   H07348235   0.085  60.076  19.744
    1STR   H07448236   0.019   0.064  19.674
    1STR   H07548237   0.042   0.052  19.847
    1STR   C07648238   0.318   0.032  19.853
    1STR   H07748239   0.321  60.083  19.855
    1STR   H07848240   0.420   0.067  19.835
    1STR   O07948241   0.268   0.083  19.976
    1STR   C08048242   0.340   0.042  20.092
    1STR   H08148243   0.364  60.096  20.086
    1STR   C08248244   0.469   0.125  20.105
    1STR   H08348245   0.447   0.232  20.106
    1STR   H08448246   0.539   0.106  20.024
    1STR   H08548247   0.521   0.101  20.198
    1STR   C08648248   0.248   0.063  20.213
    1STR   H08748249   0.223   0.169  20.223
    1STR   H08848250   0.154   0.010  20.196
    1STR   O08948251   0.312   0.015  20.331
    1STR   C09048252   0.238   0.032  20.452
    1STR   H09148253   0.193   0.132  20.454
    1STR   C09248254   0.129  60.084  20.462
    1STR   H09348255   0.172  59.985  20.455
    1STR   H09448256   0.054  60.095  20.385
    1STR   H09548257   0.078  60.091  20.558
    1STR   C09648258   0.338   0.023  20.568
    1STR   H09748259   0.384  60.084  20.569
    1STR   H09848260   0.418   0.095  20.552
    1STR   O09948261   0.271   0.049  20.691
    1STR   C10048262   0.352   0.039  20.808
    1STR   H10148263   0.416  60.111  20.802
    1STR   C10248264   0.437   0.166  20.823
    1STR   H10348265   0.375   0.255  20.824
    1STR   H10448266   0.510   0.177  20.742
    1STR   H10548267   0.493   0.164  20.916
    1STR   C10648268   0.257   0.020  20.927
    1STR   H10748269   0.192   0.107  20.937
    1STR   H10848270   0.193  60.094  20.909
    1STR   O10948271   0.334   0.000  21.046
    1STR   C11048272   0.258  60.145  21.165
    1STR   H11148273   0.177   0.058  21.168
    1STR   C11248274   0.201  60.002  21.174
    1STR   H11348275   0.281  59.928  21.166
    1STR   H11448276   0.129  59.982  21.095
    1STR   H11548277   0.150  59.987  21.269
    1STR   C11648278   0.352   0.015  21.283
    1STR   H11748279   0.434  60.103  21.285
    1STR   H11848280   0.396   0.114  21.269
    1STR   O11948281   0.278   0.011  21.405
    1STR   C12048282   0.355   0.033  21.523
    1STR   H12148283   0.449  60.138  21.518
    1STR   C12248284   0.382   0.183  21.540
    1STR   H12348285   0.289   0.240  21.541
    1STR   H12448286   0.445   0.223  21.461
    1STR   H12548287   0.433   0.202  21.635
    1STR   C12648288   0.274  60.137  21.641
    1STR   H12748289   0.179   0.030  21.651
    1STR   H12848290   0.250  60.032  21.621
    1STR   O12948291   0.351  60.148  21.761
    1STR   C13048292   0.286  60.102  21.879
    1STR   H13148293   0.182  60.137  21.880
    1STR   C13248294   0.290  59.949  21.886
    1STR   H13348295   0.393  59.912  21.879
    1STR   H13448296   0.233  59.902  21.805
    1STR   H13548297   0.248  59.913  21.980
    1STR   C13648298   0.358   0.006  21.998
    1STR   H13748299   0.462  60.133  22.001
    1STR   H13848300   0.360   0.114  21.985
    1STR   O13948301   0.291  60.131  22.119
    1STR   C14048302   0.351   0.021  22.238
    1STR   H14148303   0.459   0.008  22.234
    1STR   C14248304   0.315   0.169  22.257
    1STR   H14348305   0.207   0.184  22.256
    1STR   H14448306   0.358   0.232  22.179
    1STR   H14548307   0.353   0.206  22.352
    1STR   C14648308   0.298  60.096  22.355
    1STR   H14748309   0.189  60.107  22.363
    1STR   H14848310   0.317  59.991  22.334
    1STR   O14948311   0.362  60.135  22.476
    1STR   C15048312   0.319  60.067  22.593
    1STR   H15148313   0.210  60.057  22.593
    1STR   C15248314   0.384  59.928  22.599
    1STR   H15348315   0.493  59.935  22.594
    1STR   H15448316   0.351  59.863  22.518
    1STR   H15548317   0.359  59.877  22.692
    1STR   C15648318   0.359  60.153  22.714
    1STR   H15748319   0.467   0.004  22.718
    1STR   H15848320   0.317   0.093  22.701
    1STR   O15948321   0.309  60.093  22.833
    1STR   C16048322   0.343   0.001  22.953
    1STR   H16148323   0.447   0.033  22.951
    1STR   C16248324   0.251   0.123  22.972
    1STR   H16348325   0.146   0.093  22.970
    1STR   H16448326   0.266   0.198  22.895
    1STR   H16548327   0.270   0.171  23.068
    1STR   C16648328   0.327  60.061  23.069
    1STR   H16748329   0.223  60.028  23.075
    1STR   H16848330   0.387  59.972  23.047
    1STR   O16948331   0.368  60.122  23.191
    1STR   C17048332   0.355  60.040  23.307
    1STR   H17148333   0.259  59.987  23.305
    1STR   C17248334   0.470  59.939  23.313
    1STR   H17348335   0.567  59.989  23.310
    1STR   H17448336   0.467  59.867  23.231
    1STR   H17548337   0.466  59.881  23.406
    1STR   C17648338   0.355  60.134  23.429
    1STR   H17748339   0.450   0.027  23.434
    1STR   H17848340   0.277   0.049  23.416
    1STR   O17948341   0.332  60.057  23.547
    1STR   C18048342   0.334  60.132  23.668
    1STR   H18148343   0.417   0.043  23.667
    1STR   C18248344   0.201   0.047  23.686
    1STR   H18348345   0.116  60.138  23.682
    1STR   H18448346   0.186   0.123  23.609
    1STR   H18548347   0.197   0.097  23.782
    1STR   C18648348   0.358  60.032  23.783
    1STR   H18748349   0.276  59.961  23.787
    1STR   H18848350   0.449  59.976  23.762
    1STR   O18948351   0.370  60.104  23.905
    1STR   C19048352   0.389  60.022  24.021
    1STR   H19148353   0.322  59.936  24.017
    1STR   C19248354   0.535  59.976  24.029
    1STR   H19348355   0.604  60.060  24.028
    1STR   H19448356   0.562  59.910  23.946
    1STR   H19548357   0.553  59.920  24.121
    1STR   C19648358   0.350  60.107  24.143
    1STR   H19748359   0.416   0.033  24.151
    1STR   H19848360   0.249  60.145  24.130
    1STR   O19948361   0.358  60.027  24.261
    1STR   C20048362   0.329  60.094  24.382
    1STR   H20148363   0.376   0.033  24.383
    1STR   C20248364   0.176  60.109  24.398
    1STR   H20348365   0.127  60.012  24.393
    1STR   H20448366   0.133   0.014  24.322
    1STR   H20548367   0.152  60.153  24.495
    1STR   C20648368   0.389  60.011  24.497
    1STR   H20748369   0.343  59.913  24.500
    1STR   H20848370   0.495  59.996  24.477
    1STR   O20948371   0.370  60.080  24.620
    1STR   C21048372   0.418  60.012  24.735
    1STR   H21148373   0.392  59.906  24.731
    1STR   C21248374   0.571  60.028  24.746
    1STR   H21348375   0.600  60.133  24.746
    1STR   H21448376   0.623  59.979  24.663
    1STR   H21548377   0.608  59.983  24.838
    1STR   C21648378   0.348  60.073  24.858
    1STR   H21748379   0.373   0.018  24.867
    1STR   H21848380   0.240  60.067  24.842
    1STR   O21948381   0.386  60.001  24.975
    1STR   C22048382   0.330  60.050  25.096
    1STR   H22148383   0.334  60.159  25.099
    1STR   C22248384   0.184  60.003  25.110
    1STR   H22348385   0.177  59.894  25.103
    1STR   H22448386   0.119  60.045  25.033
    1STR   H22548387   0.143  60.032  25.206
    1STR   C22648388   0.417  59.997  25.211
    1STR   H22748389   0.414  59.888  25.213
    1STR   H22848390   0.520  60.026  25.193
    1STR   O22948391   0.370  60.052  25.335
    1STR   C23048392   0.440  60.007  25.450
    1STR   H23148393   0.458  59.899  25.445
    1STR   C23248394   0.574  60.082  25.463
    1STR   H23348395   0.558   0.030  25.464
    1STR   H23448396   0.642  60.059  25.382
    1STR   H23548397   0.624  60.055  25.556
    1STR   C23648398   0.349  60.033  25.572
    1STR   H23748399   0.330  60.140  25.582
    1STR   H23848400   0.253  59.985  25.555
    1STR   O23948401   0.411  59.981  25.689
    1STR   C24048402   0.339  60.003  25.810
    1STR   H24148403   0.299  60.104  25.813
    1STR   C24248404   0.224  59.901  25.821
    1STR   H24348405   0.262  59.799  25.814
    1STR   H24448406   0.149  59.915  25.743
    1STR   H24548407   0.173  59.910  25.917
    1STR   C24648408   0.438  59.988  25.926
    1STR   H24748409   0.479  59.886  25.927
    1STR   H24848410   0.522  60.056  25.910
    1STR   O24948411   0.373  60.018  26.049
    1STR   C25048412   0.453  60.003  26.165
    1STR   H25148413   0.513  59.912  26.159
    1STR   C25248414   0.545  60.126  26.180
    1STR   H25348415   0.488   0.058  26.182
    1STR   H25448416   0.618  60.132  26.100
    1STR   H25548417   0.601  60.120  26.274
    1STR   C25648418   0.358  59.990  26.285
    1STR   H25748419   0.298  60.080  26.295
    1STR   H25848420   0.289  59.908  26.266
    1STR   O25948421   0.434  59.966  26.403
    1STR   C26048422   0.357  59.955  26.523
    1STR   H26148423   0.280  60.032  26.526
    1STR   C26248424   0.293  59.816  26.532
    1STR   H26348425   0.368  59.737  26.525
    1STR   H26448426   0.219  59.799  26.453
    1STR   H26548427   0.241  59.803  26.627
    1STR   C26648428   0.453  59.980  26.640
    1STR   H26748429   0.531  59.903  26.642
    1STR   H26848430   0.503  60.076  26.626
    1STR   O26948431   0.379  59.980  26.762
    1STR   C27048432   0.457  59.998  26.880
    1STR   H27148433   0.549  59.938  26.875
    1STR   C27248434   0.493  60.146  26.897
    1STR   H27348435   0.403   0.048  26.898
    1STR   H27448436   0.558   0.023  26.818
    1STR   H27548437   0.545   0.003  26.992
    1STR   C27648438   0.374  59.946  26.998
    1STR   H27748439   0.282  60.005  27.008
    1STR   H27848440   0.344  59.843  26.978
    1STR   O27948441   0.452  59.953  27.117
    1STR   C28048442   0.384  59.912  27.236
    1STR   H28148443   0.283  59.952  27.238
    1STR   C28248444   0.381  59.758  27.243
    1STR   H28348445   0.481  59.716  27.237
    1STR   H28448446   0.321  59.714  27.164
    1STR   H28548447   0.337  59.725  27.338
    1STR   C28648448   0.461  59.972  27.355
    1STR   H28748449   0.563  59.933  27.357
    1STR   H28848450   0.468  60.080  27.341
    1STR   O28948451   0.392  59.941  27.475
    1STR   C29048452   0.455  59.987  27.594
    1STR   H29148453   0.563  59.969  27.590
    1STR   C29248454   0.428  60.137  27.613
    1STR   H29348455   0.321  60.158  27.614
    1STR   H29448456   0.473   0.038  27.535
    1STR   H29548457   0.468   0.012  27.708
    1STR   C29648458   0.398  59.905  27.711
    1STR   H29748459   0.291  59.922  27.719
    1STR   H29848460   0.412  59.799  27.689
    1STR   O29948461   0.465  59.940  27.831
    1STR   C30048462   0.418  59.874  27.948
    1STR   H30148463   0.309  59.870  27.947
    1STR   C30248464   0.477  59.732  27.955
    1STR   H30348465   0.585  59.735  27.951
    1STR   H30448466   0.441  59.669  27.874
    1STR   H30548467   0.448  59.684  28.048
    1STR   C30648468   0.460  59.959  28.068
    1STR   H30748469   0.569  59.964  28.074
    1STR   H30848470   0.424  60.061  28.054
    1STR   O30948471   0.405  59.902  28.186
    1STR    H1R48472   0.544  59.995  28.308
    1STR    H1S48473   0.373  60.146  28.418
    1STR    H1T48474   0.246  60.070  28.324
    1STR    H1U48475   0.369   0.008  28.244
    1STR    H1V48476   0.466  59.774  28.398
    1STR    H1W48477   0.308  59.841  28.428
    1STR    H1X48478   0.554  59.996  28.723
    1STR    H1Y48479   0.619  60.157  28.885
    1STR    H1Z48480   0.562   0.129  29.084
    1STR    H2048481   0.220   0.205  29.194
    1STR    H2148482   0.322   0.102  29.295
    1STR    H2248483   0.391   0.243  29.214
    1STR    H2348484   0.056   0.059  29.037
    1STR    H2748485   0.208  60.024  28.856
    1STR    H2848486   0.445   0.213  16.420
    1STR    H2948487   0.520   0.193  16.193
    1STR    H2A48488   0.359  60.158  15.932
    1STR    H2B48489   0.504   0.084  15.981
    1STR    H2C48490   0.368   0.174  15.914
    1STR   BCK148491   0.006   0.046  30.970
    1STR    O0348492  60.105  60.112  30.920
    1STR    N0448493  60.142   0.098  31.091
    1STR    C0548494  60.032   0.082  31.176
    1STR    C0648495  60.050   0.056  31.315
    1STR    C0748496  59.941   0.056  31.407
    1STR    N0848497  59.962   0.034  31.545
    1STR    C0948498  59.880   0.052  31.650
    1STR    O0A48499  59.765   0.094  31.642
    1STR    O0B48500  59.938   0.019  31.769
    1STR    C0C48501  59.861   0.023  31.891
    1STR    C0D48502  59.780  60.053  31.904
    1STR    C0E48503  59.951   0.046  32.015
    1STR    O0F48504  59.871   0.052  32.134
    1STR    C0G48505  59.941   0.078  32.256
    1STR    C0H48506  59.974   0.227  32.266
    1STR    C0I48507  59.853   0.034  32.376
    1STR    O0J48508  59.925   0.052  32.499
    1STR    C0K48509  59.967   0.427  43.353
    1STR    C0M48510  59.944   0.276  43.363
    1STR    C0N48511  60.055   0.479  43.468
    1STR    O0O48512  59.988   0.467  43.593
    1STR    C0P48513  60.024   0.373  43.682
    1STR    O0Q48514  60.111   0.289  43.666
    1STR    N0R48515  59.949   0.387  43.792
    1STR    C0S48516  59.944   0.316  43.912
    1STR    C0T48517  59.837   0.345  43.999
    1STR    C0U48518  59.822   0.276  44.120
    1STR    C0V48519  59.914   0.177  44.158
    1STR    C0W48520  59.888   0.099  44.287
    1STR    C0X48521  60.025   0.148  44.075
    1STR    N0Y48522  60.113   0.046  44.107
    1STR   BCK248523   0.028   0.032  44.217
    1STR    O1048524   0.042   0.118  44.304
    1STR    C1348525  60.038   0.217  43.952
    1STR    C1448526  59.812   0.079  31.354
    1STR    C1548527  59.792   0.106  31.217
    1STR    C1648528  59.901   0.111  31.128
    1STR    C1748529  59.874   0.153  30.985
    1STR    H1B48530   0.052   0.164  31.121
    1STR    H1C48531  60.149   0.037  31.351
    1STR    H1D48532  60.053   0.002  31.574
    1STR    H1E48533  59.791   0.107  31.886
    1STR    H1F48534  59.845  59.966  31.910
    1STR    H1G48535  59.718  60.055  31.994
    1STR    H1H48536  59.713  60.039  31.819
    1STR    H1I48537  60.006   0.139  32.001
    1STR    H1J48538  60.024  60.126  32.023
    1STR    H1K48539  60.032   0.019  32.259
    1STR    H1M48540  59.884   0.288  32.259
    1STR    H1N48541  60.042   0.260  32.187
    1STR    H1O48542  60.022   0.250  32.361
    1STR    H1P48543  59.760   0.092  32.378
    1STR    H1Q48544  59.825  60.089  32.364
    1STR   C01048545  59.854   0.021  32.619
    1STR   H01148546  59.753   0.063  32.615
    1STR   C01248547  59.846  60.029  32.638
    1STR   H01348548  59.946  59.984  32.637
    1STR   H01448549  59.787  59.981  32.560
    1STR   H01548550  59.800  60.004  32.733
    1STR   C01648551  59.928   0.087  32.738
    1STR   H01748552  60.030   0.048  32.744
    1STR   H01848553  59.936   0.194  32.719
    1STR   O01948554  59.859   0.064  32.861
    1STR   C02048555  59.921   0.117  32.978
    1STR   H02148556  60.028   0.097  32.976
    1STR   C02248557  59.896   0.269  32.986
    1STR   H02348558  59.789   0.291  32.984
    1STR   H02448559  59.943   0.323  32.904
    1STR   H02548560  59.936   0.310  33.079
    1STR   C02648561  59.862   0.046  33.102
    1STR   H02748562  59.755   0.064  33.108
    1STR   H02848563  59.876  60.098  33.090
    1STR   O02948564  59.927   0.091  33.221
    1STR   C03048565  59.879   0.036  33.343
    1STR   H03148566  59.770   0.033  33.343
    1STR   C03248567  59.935  60.053  33.361
    1STR   H03348568  60.044  60.053  33.357
    1STR   H03448569  59.898  59.985  33.285
    1STR   H03548570  59.905  60.013  33.458
    1STR   C03648571  59.923   0.128  33.458
    1STR   H03748572  60.032   0.132  33.463
    1STR   H03848573  59.888   0.229  33.439
    1STR   O03948574  59.870   0.080  33.582
    1STR   C04048575  59.908   0.154  33.698
    1STR   H04148576  60.014   0.178  33.694
    1STR   C04248577  59.825   0.283  33.707
    1STR   H04348578  59.718   0.261  33.706
    1STR   H04448579  59.845   0.351  33.625
    1STR   H04548580  59.846   0.336  33.799
    1STR   C04648581  59.885   0.064  33.821
    1STR   H04748582  59.779   0.038  33.829
    1STR   H04848583  59.939  60.131  33.808
    1STR   O04948584  59.929   0.132  33.939
    1STR   C05048585  59.909   0.061  34.061
    1STR   H05148586  59.810   0.015  34.062
    1STR   C05248587  60.017  60.112  34.077
    1STR   H05348588  60.117  60.156  34.072
    1STR   H05448589  60.010  60.035  34.001
    1STR   H05548590  60.008  60.063  34.174
    1STR   C05648591  59.915   0.163  34.176
    1STR   H05748592  60.013   0.210  34.179
    1STR   H05848593  59.842   0.242  34.157
    1STR   O05948594  59.886   0.098  34.300
    1STR   C06048595  59.893   0.181  34.416
    1STR   H06148596  59.980   0.246  34.411
    1STR   C06248597  59.765   0.265  34.426
    1STR   H06348598  59.676   0.202  34.427
    1STR   H06448599  59.755   0.336  34.344
    1STR   H06548600  59.764   0.323  34.519
    1STR   C06648601  59.909   0.089  34.538
    1STR   H06748602  59.823   0.023  34.547
    1STR   H06848603  59.996   0.025  34.523
    1STR   O06948604  59.925   0.168  34.655
    1STR   C07048605  59.938   0.095  34.777
    1STR   H07148606  59.865   0.013  34.779
    1STR   C07248607  60.080   0.039  34.790
    1STR   H07348608  60.154   0.119  34.784
    1STR   H07448609  60.103  60.126  34.714
    1STR   H07548610  60.094  60.150  34.887
    1STR   C07648611  59.904   0.191  34.892
    1STR   H07748612  59.975   0.273  34.894
    1STR   H07848613  59.805   0.234  34.875
    1STR   O07948614  59.906   0.120  35.016
    1STR   C08048615  59.880   0.198  35.132
    1STR   H08148616  59.935   0.293  35.126
    1STR   C08248617  59.729   0.224  35.145
    1STR   H08348618  59.673   0.131  35.146
    1STR   H08448619  59.691   0.286  35.064
    1STR   H08548620  59.708   0.277  35.238
    1STR   C08648621  59.934   0.120  35.253
    1STR   H08748622  59.881   0.026  35.263
    1STR   H08848623  60.040   0.097  35.236
    1STR   O08948624  59.920   0.199  35.371
    1STR   C09048625  59.962   0.137  35.491
    1STR   H09148626  59.928   0.033  35.494
    1STR   C09248627  60.116   0.143  35.502
    1STR   H09348628  60.152   0.246  35.495
    1STR   H09448629   0.005   0.084  35.424
    1STR   H09548630  60.149   0.103  35.598
    1STR   C09648631  59.895   0.212  35.608
    1STR   H09748632  59.928   0.316  35.609
    1STR   H09848633  59.787   0.212  35.592
    1STR   O09948634  59.927   0.147  35.731
    1STR   C10048635  59.874   0.209  35.848
    1STR   H10148636  59.886   0.317  35.842
    1STR   C10248637  59.726   0.173  35.863
    1STR   H10348638  59.711   0.065  35.864
    1STR   H10448639  59.665   0.214  35.783
    1STR   H10548640  59.686   0.212  35.956
    1STR   C10648641  59.957   0.159  35.967
    1STR   H10748642  59.946   0.051  35.977
    1STR   H10848643  60.062   0.179  35.948
    1STR   O10948644  59.914   0.225  36.086
    1STR   C11048645  59.980   0.185  36.205
    1STR   H11148646  59.990   0.076  36.208
    1STR   C11248647  60.118   0.252  36.214
    1STR   H11348648  60.110   0.360  36.206
    1STR   H11448649   0.025   0.218  36.135
    1STR   H11548650   0.006   0.229  36.308
    1STR   C11648651  59.890   0.226  36.323
    1STR   H11748652  59.879   0.335  36.325
    1STR   H11848653  59.791   0.184  36.309
    1STR   O11948654  59.948   0.180  36.445
    1STR   C12048655  59.876   0.215  36.563
    1STR   H12148656  59.844   0.319  36.558
    1STR   C12248657  59.755   0.123  36.580
    1STR   H12348658  59.785   0.018  36.581
    1STR   H12448659  59.681   0.136  36.501
    1STR   H12548660  59.704   0.143  36.675
    1STR   C12648661  59.974   0.202  36.681
    1STR   H12748662  60.007   0.099  36.691
    1STR   H12848663  60.062   0.263  36.661
    1STR   O12948664  59.910   0.246  36.801
    1STR   C13048665  59.989   0.235  36.919
    1STR   H13148666  60.042   0.140  36.920
    1STR   C13248667  60.088   0.352  36.926
    1STR   H13348668  60.037   0.448  36.919
    1STR   H13448669   0.002   0.348  36.845
    1STR   H13548670  60.144   0.350  37.020
    1STR   C13648671  59.892   0.237  37.038
    1STR   H13748672  59.838   0.332  37.041
    1STR   H13848673  59.817   0.159  37.025
    1STR   O13948674  59.965   0.218  37.159
    1STR   C14048675  59.887   0.221  37.278
    1STR   H14148676  59.816   0.304  37.274
    1STR   C14248677  59.813   0.088  37.297
    1STR   H14348678  59.883   0.004  37.296
    1STR   H14448679  59.739   0.071  37.219
    1STR   H14548680  59.760   0.086  37.392
    1STR   C14648681  59.984   0.248  37.395
    1STR   H14748682  60.056   0.167  37.403
    1STR   H14848683  60.040   0.339  37.374
    1STR   O14948684  59.910   0.263  37.516
    1STR   C15048685  59.988   0.284  37.633
    1STR   H15148686  60.075   0.218  37.633
    1STR   C15248687  60.033   0.431  37.639
    1STR   H15348688  59.948   0.499  37.634
    1STR   H15448689  60.101   0.456  37.558
    1STR   H15548690  60.086   0.451  37.732
    1STR   C15648691  59.900   0.247  37.753
    1STR   H15748692  59.813   0.313  37.758
    1STR   H15848693  59.863   0.146  37.741
    1STR   O15948694  59.977   0.258  37.873
    1STR   C16048695  59.907   0.231  37.993
    1STR   H16148696  59.808   0.278  37.991
    1STR   C16248697  59.892   0.079  38.012
    1STR   H16348698  59.989   0.029  38.010
    1STR   H16448699  59.830   0.033  37.935
    1STR   H16548700  59.846   0.056  38.108
    1STR   C16648701  59.986   0.294  38.109
    1STR   H16748702  60.085   0.248  38.115
    1STR   H16848703  60.001   0.400  38.087
    1STR   O16948704  59.914   0.277  38.231
    1STR   C17048705  59.979   0.328  38.346
    1STR   H17148706  60.086   0.302  38.345
    1STR   C17248707  59.962   0.481  38.353
    1STR   H17348708  59.857   0.509  38.350
    1STR   H17448709  60.013   0.532  38.271
    1STR   H17548710  60.005   0.520  38.446
    1STR   C17648711  59.916   0.259  38.468
    1STR   H17748712  59.810   0.284  38.474
    1STR   H17848713  59.923   0.151  38.456
    1STR   O17948714  59.984   0.300  38.587
    1STR   C18048715  59.933   0.246  38.708
    1STR   H18148716  59.823   0.250  38.707
    1STR   C18248717  59.981   0.101  38.726
    1STR   H18348718  60.089   0.095  38.722
    1STR   H18448719  59.940   0.035  38.649
    1STR   H18548720  59.949   0.062  38.822
    1STR   C18648721  59.982   0.336  38.823
    1STR   H18748722  60.091   0.334  38.827
    1STR   H18848723  59.953   0.439  38.802
    1STR   O18948724  59.925   0.292  38.945
    1STR   C19048725  59.966   0.364  39.061
    1STR   H19148726  60.074   0.383  39.057
    1STR   C19248727  59.890   0.498  39.069
    1STR   H19348728  59.783   0.481  39.068
    1STR   H19448729  59.915   0.564  38.986
    1STR   H19548730  59.915   0.550  39.161
    1STR   C19648731  59.938   0.276  39.183
    1STR   H19748732  59.831   0.257  39.191
    1STR   H19848733  59.987   0.180  39.170
    1STR   O19948734  59.986   0.340  39.301
    1STR   C20048735  59.962   0.270  39.422
    1STR   H20148736  59.861   0.230  39.423
    1STR   C20248737  60.064   0.157  39.438
    1STR   H20348738   0.006   0.195  39.433
    1STR   H20448739  60.053   0.080  39.362
    1STR   H20548740  60.053   0.107  39.535
    1STR   C20648741  59.973   0.372  39.537
    1STR   H20748742  60.074   0.414  39.540
    1STR   H20848743  59.905   0.455  39.517
    1STR   O20948744  59.941   0.309  39.660
    1STR   C21048745  59.951   0.392  39.776
    1STR   H21148746  60.042   0.452  39.771
    1STR   C21248747  59.828   0.483  39.786
    1STR   H21348748  59.736   0.425  39.786
    1STR   H21448749  59.823   0.554  39.703
    1STR   H21548750  59.831   0.541  39.878
    1STR   C21648751  59.962   0.299  39.898
    1STR   H21748752  59.872   0.238  39.907
    1STR   H21848753  60.046   0.230  39.882
    1STR   O21948754  59.983   0.377  40.015
    1STR   C22048755  59.991   0.303  40.136
    1STR   H22148756  59.914   0.226  40.139
    1STR   C22248757  60.131   0.240  40.150
    1STR   H22348758   0.049   0.316  40.143
    1STR   H22448759  60.149   0.165  40.073
    1STR   H22548760  60.141   0.190  40.246
    1STR   C22648761  59.963   0.401  40.251
    1STR   H22748762  60.039   0.480  40.253
    1STR   H22848763  59.867   0.450  40.234
    1STR   O22948764  59.960   0.330  40.375
    1STR   C23048765  59.939   0.410  40.490
    1STR   H23148766  59.998   0.502  40.485
    1STR   C23248767  59.790   0.445  40.503
    1STR   H23348768  59.728   0.355  40.504
    1STR   H23448769  59.755   0.508  40.422
    1STR   H23548770  59.770   0.499  40.596
    1STR   C23648771  59.988   0.330  40.612
    1STR   H23748772  59.930   0.238  40.622
    1STR   H23848773  60.092   0.300  40.595
    1STR   O23948774  59.977   0.410  40.729
    1STR   C24048775  60.017   0.345  40.850
    1STR   H24148776  59.977   0.243  40.853
    1STR   C24248777   0.010   0.343  40.861
    1STR   H24348778   0.051   0.443  40.854
    1STR   H24448779   0.056   0.282  40.783
    1STR   H24548780   0.041   0.301  40.957
    1STR   C24648781  59.953   0.423  40.966
    1STR   H24748782  59.992   0.526  40.968
    1STR   H24848783  59.846   0.430  40.950
    1STR   O24948784  59.982   0.357  41.089
    1STR   C25048785  59.932   0.422  41.206
    1STR   H25148786  59.950   0.529  41.200
    1STR   C25248787  59.781   0.394  41.221
    1STR   H25348788  59.761   0.287  41.222
    1STR   H25448789  59.723   0.438  41.140
    1STR   H25548790  59.743   0.436  41.314
    1STR   C25648791  60.011   0.367  41.326
    1STR   H25748792  59.994   0.260  41.336
    1STR   H25848793  60.117   0.382  41.307
    1STR   O25948794  59.971   0.436  41.444
    1STR   C26048795  60.035   0.392  41.564
    1STR   H26148796  60.040   0.283  41.566
    1STR   C26248797   0.017   0.452  41.572
    1STR   H26348798   0.014   0.560  41.565
    1STR   H26448799   0.082   0.414  41.494
    1STR   H26548800   0.063   0.426  41.667
    1STR   C26648801  59.948   0.439  41.681
    1STR   H26748802  59.942   0.548  41.683
    1STR   H26848803  59.846   0.402  41.667
    1STR   O26948804  60.002   0.389  41.804
    1STR   C27048805  59.932   0.429  41.921
    1STR   H27148806  59.906   0.534  41.916
    1STR   C27248807  59.806   0.343  41.938
    1STR   H27348808  59.830   0.237  41.939
    1STR   H27448809  59.734   0.360  41.859
    1STR   H27548810  59.756   0.366  42.032
    1STR   C27648811  60.029   0.410  42.040
    1STR   H27748812  60.057   0.305  42.049
    1STR   H27848813  60.120   0.466  42.020
    1STR   O27948814  59.967   0.457  42.159
    1STR   C28048815  60.044   0.442  42.278
    1STR   H28148816  60.092   0.344  42.280
    1STR   C28248817  60.151   0.553  42.285
    1STR   H28348818  60.105   0.652  42.278
    1STR   H28448819   0.064   0.545  42.205
    1STR   H28548820   0.045   0.549  42.379
    1STR   C28648821  59.947   0.450  42.397
    1STR   H28748822  59.898   0.547  42.399
    1STR   H28848823  59.869   0.375  42.384
    1STR   O28948824  60.019   0.427  42.518
    1STR   C29048825  59.941   0.435  42.637
    1STR   H29148826  59.874   0.521  42.633
    1STR   C29248827  59.860   0.306  42.655
    1STR   H29348828  59.925   0.218  42.655
    1STR   H29448829  59.786   0.293  42.577
    1STR   H29548830  59.807   0.307  42.751
    1STR   C29648831  60.039   0.457  42.754
    1STR   H29748832  60.106   0.372  42.763
    1STR   H29848833  60.100   0.545  42.734
    1STR   O29948834  59.965   0.475  42.875
    1STR   C30048835  60.044   0.492  42.992
    1STR   H30148836  60.128   0.421  42.991
    1STR   C30248837  60.097   0.636  43.000
    1STR   H30348838  60.015   0.708  42.995
    1STR   H30448839   0.006   0.659  42.919
    1STR   H30548840  60.150   0.653  43.093
    1STR   C30648841  59.956   0.457  43.113
    1STR   H30748842  59.873   0.528  43.121
    1STR   H30848843  59.913   0.358  43.098
    1STR   O30948844  60.035   0.459  43.232
    1STR    H1R48845  59.871   0.480  43.356
    1STR    H1S48846  59.896   0.250  43.457
    1STR    H1T48847  60.039   0.222  43.358
    1STR    H1U48848  59.880   0.238  43.283
    1STR    H1V48849  60.077   0.585  43.453
    1STR    H1W48850  60.152   0.429  43.468
    1STR    H1X48851  59.884   0.463  43.780
    1STR    H1Y48852  59.763   0.420  43.973
    1STR    H1Z48853  59.737   0.299  44.184
    1STR    H2048854  59.917  60.155  44.276
    1STR    H2148855  59.945   0.143  44.368
    1STR    H2248856  59.782   0.100  44.314
    1STR    H2348857  60.125  60.132  44.040
    1STR    H2748858  60.122   0.194  43.888
    1STR    H2848859  59.723   0.079  31.416
    1STR    H2948860  59.693   0.127  31.182
    1STR    H2A48861  59.952   0.220  30.949
    1STR    H2B48862  59.779   0.204  30.975
    1STR    H2C48863  59.872   0.065  30.920
    1STR   BCK148864   0.143  60.145  46.022
    1STR    O0348865   0.262  60.119  46.005
    1STR    N0448866   0.072  60.108  46.129
    1STR    C0548867   0.112  60.014  46.224
    1STR    C0648868   0.115  60.048  46.362
    1STR    C0748869   0.150  59.953  46.461
    1STR    N0848870   0.149  59.989  46.597
    1STR    C0948871   0.198  59.924  46.704
    1STR    O0A48872   0.262  59.819  46.699
    1STR    O0B48873   0.170  59.989  46.820
    1STR    C0C48874   0.219  59.937  46.944
    1STR    C0D48875   0.365  59.982  46.963
    1STR    C0E48876   0.131  59.981  47.062
    1STR    O0F48877   0.182  59.924  47.183
    1STR    C0G48878   0.110  59.954  47.303
    1STR    C0H48879  60.144  59.867  47.311
    1STR    C0I48880   0.203  59.927  47.423
    1STR    O0J48881   0.138  59.963  47.544
    1STR    C0K48882  60.005  59.724  58.382
    1STR    C0M48883  60.130  59.812  58.395
    1STR    C0N48884  59.903  59.753  58.493
    1STR    O0O48885  59.952  59.704  58.617
    1STR    C0P48886  60.005  59.786  58.708
    1STR    O0Q48887  60.008  59.908  58.703
    1STR    N0R48888  60.057  59.710  58.803
    1STR    C0S48889  60.123  59.739  58.923
    1STR    C0T48890   0.018  59.628  58.989
    1STR    C0U48891   0.080  59.643  59.113
    1STR    C0V48892   0.084  59.769  59.176
    1STR    C0W48893   0.139  59.770  59.317
    1STR    C0X48894   0.031  59.884  59.112
    1STR    N0Y48895   0.014  60.007  59.176
    1STR   BCK248896   0.085  60.084  59.260
    1STR    O1048897   0.029   0.016  59.318
    1STR    C1348898  60.131  59.867  58.984
    1STR    C1448899   0.182  59.822  46.418
    1STR    C1548900   0.177  59.787  46.282
    1STR    C1648901   0.140  59.881  46.185
    1STR    C1748902   0.128  59.835  46.041
    1STR    H1B48903  60.140  60.148  46.136
    1STR    H1C48904   0.091  60.149  46.391
    1STR    H1D48905   0.107  60.077  46.622
    1STR    H1E48906   0.216  59.828  46.941
    1STR    H1F48907   0.374  60.090  46.967
    1STR    H1G48908   0.407  59.941  47.055
    1STR    H1H48909   0.428  59.946  46.881
    1STR    H1I48910   0.028  59.949  47.045
    1STR    H1J48911   0.129  60.090  47.070
    1STR    H1K48912   0.083  60.060  47.304
    1STR    H1M48913   0.008  59.761  47.305
    1STR    H1N48914  60.073  59.890  47.231
    1STR    H1O48915  60.092  59.884  47.405
    1STR    H1P48916   0.232  59.821  47.425
    1STR    H1Q48917   0.295  59.984  47.410
    1STR   C01048918   0.211  59.938  47.664
    1STR   H01148919   0.257  59.839  47.661
    1STR   C01248920   0.320  60.046  47.683
    1STR   H01348921   0.277  60.146  47.682
    1STR   H01448922   0.396  60.041  47.605
    1STR   H01548923   0.371  60.033  47.778
    1STR   C01648924   0.112  59.940  47.782
    1STR   H01748925   0.064  60.038  47.789
    1STR   H01848926   0.033  59.867  47.762
    1STR   O01948927   0.179  59.909  47.904
    1STR   C02048928   0.097  59.911  48.021
    1STR   H02148929   0.031  59.999  48.019
    1STR   C02248930   0.013  59.783  48.029
    1STR   H02348931   0.076  59.694  48.026
    1STR   H02448932  60.101  59.775  47.947
    1STR   H02548933  60.116  59.779  48.122
    1STR   C02648934   0.189  59.925  48.144
    1STR   H02748935   0.256  59.839  48.150
    1STR   H02848936   0.251  60.013  48.132
    1STR   O02948937   0.110  59.935  48.263
    1STR   C03048938   0.183  59.944  48.385
    1STR   H03148939   0.265  59.872  48.385
    1STR   C03248940   0.238  60.087  48.403
    1STR   H03348941   0.158   0.000  48.399
    1STR   H03448942   0.312  60.112  48.327
    1STR   H03548943   0.288  60.097  48.500
    1STR   C03648944   0.088  59.906  48.500
    1STR   H03748945   0.005  59.977  48.504
    1STR   H03848946   0.046  59.808  48.480
    1STR   O03948947   0.160  59.905  48.624
    1STR   C04048948   0.082  59.876  48.739
    1STR   H04148949  60.147  59.930  48.736
    1STR   C04248950   0.056  59.725  48.748
    1STR   H04348951   0.150  59.669  48.747
    1STR   H04448952  60.155  59.688  48.666
    1STR   H04548953   0.004  59.699  48.840
    1STR   C04648954   0.160  59.926  48.862
    1STR   H04748955   0.255  59.874  48.870
    1STR   H04848956   0.183  60.032  48.849
    1STR   O04948957   0.081  59.907  48.980
    1STR   C05048958   0.144  59.946  49.102
    1STR   H05148959   0.248  59.912  49.103
    1STR   C05248960   0.137  60.098  49.118
    1STR   H05348961   0.035  60.134  49.112
    1STR   H05448962   0.195  60.150  49.042
    1STR   H05548963   0.178  60.129  49.215
    1STR   C05648964   0.071  59.874  49.217
    1STR   H05748965  60.126  59.906  49.220
    1STR   H05848966   0.071  59.767  49.198
    1STR   O05948967   0.136  59.903  49.341
    1STR   C06048968   0.075  59.846  49.456
    1STR   H06148969  60.126  59.857  49.451
    1STR   C06248970   0.112  59.697  49.467
    1STR   H06348971   0.220  59.684  49.467
    1STR   H06448972   0.071  59.639  49.385
    1STR   H06548973   0.073  59.654  49.559
    1STR   C06648974   0.125  59.925  49.578
    1STR   H06748975   0.233  59.915  49.588
    1STR   H06848976   0.104  60.031  49.563
    1STR   O06948977   0.059  59.877  49.696
    1STR   C07048978   0.100  59.940  49.817
    1STR   H07148979   0.208  59.951  49.820
    1STR   C07248980   0.032  60.077  49.831
    1STR   H07348981  60.084  60.069  49.824
    1STR   H07448982   0.065  60.147  49.754
    1STR   H07548983   0.056  60.123  49.927
    1STR   C07648984   0.060  59.846  49.933
    1STR   H07748985  60.111  59.834  49.935
    1STR   H07848986   0.103  59.748  49.915
    1STR   O07948987   0.106  59.900  50.056
    1STR   C08048988   0.072  59.825  50.172
    1STR   H08148989  60.128  59.792  50.166
    1STR   C08248990   0.165  59.703  50.185
    1STR   H08348991   0.270  59.734  50.186
    1STR   H08448992   0.152  59.632  50.104
    1STR   H08548993   0.146  59.650  50.278
    1STR   C08648994   0.085  59.919  50.293
    1STR   H08748995   0.188  59.953  50.303
    1STR   H08848996   0.024  60.007  50.276
    1STR   O08948997   0.042  59.850  50.411
    1STR   C09048998   0.053  59.925  50.532
    1STR   H09148999   0.148  59.979  50.534
    1STR   C09249000  60.096  60.024  50.542
    1STR   H09349001  60.000  59.973  50.535
    1STR   H09449002  60.099  60.101  50.465
    1STR   H09549003  60.098  60.077  50.638
    1STR   C09649004   0.052  59.825  50.648
    1STR   H09749005  60.118  59.770  50.649
    1STR   H09849006   0.131  59.751  50.632
    1STR   O09949007   0.072  59.894  50.771
    1STR   C10049008   0.070  59.813  50.888
    1STR   H10149009  60.148  59.741  50.882
    1STR   C10249010   0.204  59.739  50.903
    1STR   H10349011   0.287  59.809  50.904
    1STR   H10449012   0.221  59.668  50.822
    1STR   H10549013   0.206  59.683  50.996
    1STR   C10649014   0.043  59.905  51.007
    1STR   H10749015   0.123  59.978  51.017
    1STR   H10849016  60.111  59.962  50.988
    1STR   O10949017   0.029  59.827  51.126
    1STR   C11049018   0.008  59.902  51.245
    1STR   H11149019   0.073  59.989  51.248
    1STR   C11249020  60.021  59.945  51.253
    1STR   H11349021  59.954  59.860  51.247
    1STR   H11449022  59.994  60.015  51.175
    1STR   H11549023  60.001  59.995  51.348
    1STR   C11649024   0.046  59.811  51.363
    1STR   H11749025  60.141  59.723  51.365
    1STR   H11849026   0.148  59.775  51.349
    1STR   O11949027   0.035  59.884  51.485
    1STR   C12049028   0.064  59.810  51.603
    1STR   H12149029   0.018  59.711  51.598
    1STR   C12249030   0.216  59.796  51.620
    1STR   H12349031   0.264  59.894  51.621
    1STR   H12449032   0.261  59.737  51.541
    1STR   H12549033   0.240  59.747  51.715
    1STR   C12649034   0.000  59.885  51.721
    1STR   H12749035   0.045  59.984  51.731
    1STR   H12849036  60.054  59.900  51.701
    1STR   O12949037   0.018  59.810  51.841
    1STR   C13049038  60.128  59.871  51.959
    1STR   H13149039  60.153  59.977  51.960
    1STR   C13249040  59.975  59.852  51.966
    1STR   H13349041  59.948  59.747  51.959
    1STR   H13449042  59.924  59.905  51.886
    1STR   H13549043  59.936  59.891  52.060
    1STR   C13649044   0.037  59.804  52.078
    1STR   H13749045   0.013  59.697  52.081
    1STR   H13849046   0.145  59.811  52.065
    1STR   O13949047  60.157  59.868  52.199
    1STR   C14049048   0.052  59.813  52.318
    1STR   H14149049   0.049  59.703  52.314
    1STR   C14249050   0.196  59.861  52.337
    1STR   H14349051   0.202  59.970  52.336
    1STR   H14449052   0.263  59.824  52.259
    1STR   H14549053   0.237  59.826  52.432
    1STR   C14649054  60.122  59.858  52.435
    1STR   H14749055  60.124  59.967  52.443
    1STR   H14849056  60.019  59.829  52.414
    1STR   O14949057   0.007  59.797  52.556
    1STR   C15049058  60.095  59.834  52.673
    1STR   H15149059  60.076  59.942  52.673
    1STR   C15249060  59.962  59.757  52.679
    1STR   H15349061  59.980  59.649  52.674
    1STR   H15449062  59.895  59.783  52.598
    1STR   H15549063  59.910  59.778  52.772
    1STR   C15649064   0.024  59.802  52.794
    1STR   H15749065   0.045  59.695  52.798
    1STR   H15849066   0.120  59.852  52.781
    1STR   O15949067  60.120  59.846  52.913
    1STR   C16049068   0.031  59.819  53.033
    1STR   H16149069   0.072  59.718  53.031
    1STR   C16249070   0.144  59.921  53.052
    1STR   H16349071   0.106  60.023  53.050
    1STR   H16449072   0.221  59.912  52.975
    1STR   H16549073   0.194  59.907  53.148
    1STR   C16649074  60.090  59.826  53.149
    1STR   H16749075  60.048  59.926  53.155
    1STR   H16849076  60.007  59.758  53.127
    1STR   O16949077  60.154  59.790  53.271
    1STR   C17049078  60.072  59.796  53.387
    1STR   H17149079  60.011  59.887  53.385
    1STR   C17249080  59.981  59.672  53.393
    1STR   H17349081  60.040  59.581  53.390
    1STR   H17449082  59.909  59.669  53.311
    1STR   H17549083  59.923  59.672  53.486
    1STR   C17649084   0.005  59.804  53.508
    1STR   H17749085   0.066  59.714  53.514
    1STR   H17849086   0.073  59.888  53.496
    1STR   O17949087  60.087  59.820  53.627
    1STR   C18049088   0.002  59.825  53.748
    1STR   H18149089   0.079  59.748  53.747
    1STR   C18249090   0.064  59.964  53.766
    1STR   H18349091  60.148  60.042  53.762
    1STR   H18449092   0.139  59.986  53.689
    1STR   H18549093   0.114  59.972  53.862
    1STR   C18649094  60.064  59.792  53.863
    1STR   H18749095  59.986  59.868  53.867
    1STR   H18849096  60.016  59.697  53.842
    1STR   O18949097  60.136  59.786  53.985
    1STR   C19049098  60.057  59.760  54.101
    1STR   H19149099  59.965  59.819  54.097
    1STR   C19249100  60.023  59.611  54.109
    1STR   H19349101  60.113  59.550  54.108
    1STR   H19449102  59.960  59.578  54.026
    1STR   H19549103  59.969  59.588  54.201
    1STR   C19649104  60.138  59.806  54.223
    1STR   H19749105   0.070  59.748  54.231
    1STR   H19849106   0.007  59.910  54.210
    1STR   O19949107  60.058  59.791  54.341
    1STR   C20049108  60.123  59.827  54.462
    1STR   H20149109   0.066  59.788  54.463
    1STR   C20249110  60.125  59.980  54.478
    1STR   H20349111  60.024  60.021  54.473
    1STR   H20449112   0.025  60.029  54.402
    1STR   H20549113   0.007  60.008  54.575
    1STR   C20649114  60.046  59.759  54.577
    1STR   H20749115  59.944  59.797  54.580
    1STR   H20849116  60.040  59.652  54.557
    1STR   O20949117  60.113  59.784  54.700
    1STR   C21049118  60.049  59.730  54.815
    1STR   H21149119  59.942  59.747  54.811
    1STR   C21249120  60.078  59.579  54.825
    1STR   H21349121   0.026  59.560  54.826
    1STR   H21449122  60.034  59.523  54.743
    1STR   H21549123  60.037  59.538  54.918
    1STR   C21649124  60.104  59.806  54.937
    1STR   H21749125   0.051  59.790  54.947
    1STR   H21849126  60.089  59.913  54.922
    1STR   O21949127  60.036  59.762  55.055
    1STR   C22049128  60.080  59.822  55.176
    1STR   H22149129   0.029  59.827  55.178
    1STR   C22249130  60.019  59.963  55.190
    1STR   H22349131  59.911  59.960  55.183
    1STR   H22449132  60.056  60.031  55.113
    1STR   H22549133  60.045  60.007  55.286
    1STR   C22649134  60.034  59.731  55.291
    1STR   H22749135  59.925  59.724  55.293
    1STR   H22849136  60.072  59.630  55.273
    1STR   O22949137  60.084  59.782  55.415
    1STR   C23049138  60.046  59.708  55.530
    1STR   H23149139  59.940  59.681  55.524
    1STR   C23249140  60.133  59.582  55.543
    1STR   H23349141   0.079  59.607  55.544
    1STR   H23449142  60.116  59.511  55.461
    1STR   H23549143  60.110  59.529  55.636
    1STR   C23649144  60.064  59.801  55.651
    1STR   H23749145   0.009  59.829  55.662
    1STR   H23849146  60.008  59.893  55.635
    1STR   O23949147  60.018  59.735  55.769
    1STR   C24049148  60.033  59.809  55.890
    1STR   H24149149  60.131  59.857  55.892
    1STR   C24249150  59.921  59.914  55.901
    1STR   H24349151  59.823  59.868  55.894
    1STR   H24449152  59.929  59.990  55.823
    1STR   H24549153  59.927  59.966  55.997
    1STR   C24649154  60.027  59.708  56.006
    1STR   H24749155  59.929  59.659  56.007
    1STR   H24849156  60.101  59.631  55.990
    1STR   O24949157  60.051  59.776  56.128
    1STR   C25049158  60.044  59.695  56.245
    1STR   H25149159  59.958  59.628  56.239
    1STR   C25249160   0.013  59.614  56.260
    1STR   H25349161   0.101  59.679  56.262
    1STR   H25449162   0.027  59.542  56.180
    1STR   H25549163   0.013  59.557  56.354
    1STR   C25649164  60.022  59.789  56.365
    1STR   H25749165  60.107  59.856  56.375
    1STR   H25849166  59.934  59.850  56.346
    1STR   O25949167  60.004  59.711  56.483
    1STR   C26049168  59.987  59.786  56.602
    1STR   H26149169  60.057  59.870  56.605
    1STR   C26249170  59.843  59.838  56.611
    1STR   H26349171  59.771  59.757  56.604
    1STR   H26449172  59.820  59.910  56.533
    1STR   H26549173  59.826  59.889  56.706
    1STR   C26649174  60.020  59.693  56.720
    1STR   H26749175  59.951  59.609  56.721
    1STR   H26849176  60.120  59.652  56.705
    1STR   O26949177  60.014  59.766  56.841
    1STR   C27049178  60.038  59.690  56.959
    1STR   H27149179  59.987  59.594  56.954
    1STR   C27249180   0.030  59.668  56.977
    1STR   H27349181   0.083  59.763  56.978
    1STR   H27449182   0.072  59.606  56.897
    1STR   H27549183   0.050  59.617  57.071
    1STR   C27649184  59.979  59.769  57.077
    1STR   H27749185  60.030  59.865  57.087
    1STR   H27849186  59.874  59.790  57.057
    1STR   O27949187  59.993  59.692  57.196
    1STR   C28049188  59.946  59.755  57.314
    1STR   H28149189  59.978  59.860  57.316
    1STR   C28249190  59.793  59.746  57.323
    1STR   H28349191  59.760  59.642  57.316
    1STR   H28449192  59.744  59.801  57.243
    1STR   H28549193  59.757  59.786  57.417
    1STR   C28649194  60.014  59.684  57.433
    1STR   H28749195  59.984  59.580  57.435
    1STR   H28849196  60.122  59.686  57.419
    1STR   O28949197  59.978  59.751  57.553
    1STR   C29049198  60.029  59.691  57.672
    1STR   H29149199  60.020  59.583  57.667
    1STR   C29249200   0.015  59.732  57.692
    1STR   H29349201   0.027  59.840  57.693
    1STR   H29449202   0.080  59.692  57.614
    1STR   H29549203   0.053  59.694  57.787
    1STR   C29649204  59.940  59.741  57.787
    1STR   H29749205  59.948  59.850  57.795
    1STR   H29849206  59.836  59.718  57.765
    1STR   O29949207  59.981  59.678  57.908
    1STR   C30049208  59.910  59.721  58.023
    1STR   H30149209  59.895  59.829  58.020
    1STR   C30249210  59.775  59.649  58.032
    1STR   H30349211  59.788  59.540  58.030
    1STR   H30449212  59.709  59.676  57.950
    1STR   H30549213  59.723  59.674  58.124
    1STR   C30649214  59.998  59.690  58.144
    1STR   H30749215  60.010  59.583  58.156
    1STR   H30849216  60.098  59.732  58.128
    1STR   O30949217  59.938  59.749  58.259
    1STR    H1R49218  60.032  59.618  58.388
    1STR    H1S49219   0.020  59.796  58.490
    1STR    H1T49220  60.103  59.918  58.390
    1STR    H1U49221   0.043  59.793  58.317
    1STR    H1V49222  59.810  59.700  58.472
    1STR    H1W49223  59.877  59.859  58.498
    1STR    H1X49224  60.042  59.613  58.781
    1STR    H1Y49225   0.013  59.529  58.946
    1STR    H1Z49226   0.120  59.556  59.163
    1STR    H2049227   0.245  59.793  59.314
    1STR    H2149228   0.085  59.843  59.378
    1STR    H2249229   0.127  59.674  59.366
    1STR    H2349230  60.085  60.052  59.159
    1STR    H2749231  60.087  59.952  58.934
    1STR    H2849232   0.210  59.744  46.487
    1STR    H2949233   0.201  59.686  46.253
    1STR    H2A49234   0.040  59.879  45.993
    1STR    H2B49235   0.118  59.727  46.034
    1STR    H2C49236   0.216  59.865  45.984
    1STR   BCK149237   0.062  15.114   0.881
    1STR    O0349238  60.143  15.191   0.828
    1STR    N0449239   0.102  15.120   1.009
    1STR    C0549240   0.086  15.224   1.101
    1STR    C0649241   0.053  15.195   1.236
    1STR    C0749242   0.045  15.297   1.335
    1STR    N0849243   0.020  15.265   1.470
    1STR    C0949244   0.032  15.341   1.581
    1STR    O0A49245   0.069  15.458   1.581
    1STR    O0B49246  60.159  15.274   1.694
    1STR    C0C49247  60.154  15.345   1.819
    1STR    C0D49248  60.016  15.411   1.833
    1STR    C0E49249   0.025  15.253   1.940
    1STR    O0F49250   0.025  15.332   2.060
    1STR    C0G49251   0.058  15.263   2.181
    1STR    C0H49252   0.210  15.244   2.189
    1STR    C0I49253   0.007  15.347   2.300
    1STR    O0J49254   0.031  15.277   2.423
    1STR    C0K49255   0.420  15.279  13.263
    1STR    C0M49256   0.267  15.281  13.281
    1STR    C0N49257   0.492  15.203  13.376
    1STR    O0O49258   0.482  15.274  13.499
    1STR    C0P49259   0.391  15.237  13.590
    1STR    O0Q49260   0.311  15.145  13.576
    1STR    N0R49261   0.400  15.317  13.696
    1STR    C0S49262   0.327  15.317  13.815
    1STR    C0T49263   0.339  15.429  13.900
    1STR    C0U49264   0.266  15.435  14.021
    1STR    C0V49265   0.180  15.330  14.059
    1STR    C0W49266   0.098  15.343  14.186
    1STR    C0X49267   0.169  15.216  13.976
    1STR    N0Y49268   0.085  15.111  14.007
    1STR   BCK249269   0.097  15.020  14.103
    1STR    O1049270   0.014  14.930  14.114
    1STR    C1349271   0.242  15.211  13.855
    1STR    C1449272   0.065  15.431   1.293
    1STR    C1549273   0.100  15.460   1.160
    1STR    C1649274   0.115  15.358   1.065
    1STR    C1749275   0.170  15.398   0.929
    1STR    H1B49276   0.157  15.040   1.038
    1STR    H1C49277   0.035  15.093   1.264
    1STR    H1D49278  60.150  15.171   1.492
    1STR    H1E49279   0.070  15.423   1.820
    1STR    H1F49280  59.936  15.337   1.836
    1STR    H1G49281  60.010  15.470   1.925
    1STR    H1H49282  59.997  15.479   1.750
    1STR    H1I49283   0.123  15.207   1.924
    1STR    H1J49284  60.112  15.173   1.947
    1STR    H1K49285   0.007  15.167   2.184
    1STR    H1M49286   0.262  15.339   2.182
    1STR    H1N49287   0.248  15.179   2.110
    1STR    H1O49288   0.238  15.198   2.284
    1STR    H1P49289   0.056  15.445   2.301
    1STR    H1Q49290  60.060  15.366   2.288
    1STR   C01049291  60.154  15.346   2.543
    1STR   H01149292   0.027  15.450   2.538
    1STR   C01249293  60.001  15.341   2.561
    1STR   H01349294  59.965  15.238   2.561
    1STR   H01449295  59.948  15.395   2.483
    1STR   H01549296  59.972  15.385   2.656
    1STR   C01649297   0.066  15.278   2.661
    1STR   H01749298   0.036  15.173   2.667
    1STR   H01849299   0.173  15.279   2.641
    1STR   O01949300   0.037  15.346   2.783
    1STR   C02049301   0.096  15.289   2.900
    1STR   H02149302   0.086  15.180   2.898
    1STR   C02249303   0.245  15.327   2.908
    1STR   H02349304   0.258  15.435   2.906
    1STR   H02449305   0.303  15.284   2.826
    1STR   H02549306   0.289  15.291   3.001
    1STR   C02649307   0.020  15.341   3.024
    1STR   H02749308   0.028  15.450   3.030
    1STR   H02849309  60.074  15.318   3.012
    1STR   O02949310   0.071  15.280   3.142
    1STR   C03049311   0.011  15.323   3.264
    1STR   H03149312  60.159  15.432   3.264
    1STR   C03249313  60.034  15.255   3.282
    1STR   H03349314  60.043  15.146   3.279
    1STR   H03449315  59.962  15.285   3.206
    1STR   H03549316  59.991  15.281   3.379
    1STR   C03649317   0.106  15.287   3.380
    1STR   H03749318   0.120  15.179   3.384
    1STR   H03849319   0.204  15.331   3.360
    1STR   O03949320   0.054  15.336   3.503
    1STR   C04049321   0.131  15.305   3.619
    1STR   H04149322   0.165  15.201   3.615
    1STR   C04249323   0.252  15.399   3.628
    1STR   H04349324   0.221  15.503   3.627
    1STR   H04449325   0.322  15.384   3.546
    1STR   H04549326   0.308  15.382   3.720
    1STR   C04649327   0.040  15.320   3.742
    1STR   H04749328   0.005  15.423   3.750
    1STR   H04849329  60.112  15.258   3.729
    1STR   O04949330   0.111  15.282   3.860
    1STR   C05049331   0.038  15.296   3.982
    1STR   H05149332  60.144  15.390   3.983
    1STR   C05249333  60.100  15.178   3.998
    1STR   H05349334  60.152  15.083   3.992
    1STR   H05449335  60.023  15.179   3.922
    1STR   H05549336  60.050  15.183   4.095
    1STR   C05649337   0.141  15.299   4.097
    1STR   H05749338   0.196  15.205   4.100
    1STR   H05849339   0.213  15.378   4.078
    1STR   O05949340   0.073  15.321   4.220
    1STR   C06049341   0.157  15.322   4.336
    1STR   H06149342   0.229  15.240   4.331
    1STR   C06249343   0.230  15.457   4.347
    1STR   H06349344   0.159  15.540   4.347
    1STR   H06449345   0.300  15.473   4.265
    1STR   H06549346   0.288  15.462   4.439
    1STR   C06649347   0.067  15.297   4.458
    1STR   H06749348  60.154  15.378   4.468
    1STR   H06849349   0.011  15.205   4.443
    1STR   O06949350   0.147  15.288   4.576
    1STR   C07049351   0.075  15.270   4.697
    1STR   H07149352  60.147  15.335   4.700
    1STR   C07249353   0.032  15.123   4.711
    1STR   H07349354   0.118  15.056   4.704
    1STR   H07449355  60.121  15.094   4.634
    1STR   H07549356  60.144  15.105   4.807
    1STR   C07649357   0.168  15.311   4.813
    1STR   H07749358   0.256  15.247   4.814
    1STR   H07849359   0.203  15.413   4.795
    1STR   O07949360   0.097  15.303   4.936
    1STR   C08049361   0.173  15.336   5.052
    1STR   H08149362   0.272  15.290   5.046
    1STR   C08249363   0.186  15.488   5.065
    1STR   H08349364   0.088  15.536   5.066
    1STR   H08449365   0.244  15.532   4.984
    1STR   H08549366   0.237  15.515   5.158
    1STR   C08649367   0.100  15.275   5.173
    1STR   H08749368   0.001  15.320   5.183
    1STR   H08849369   0.086  15.168   5.156
    1STR   O08949370   0.178  15.297   5.291
    1STR   C09049371   0.119  15.249   5.411
    1STR   H09149372   0.013  15.273   5.414
    1STR   C09249373   0.139  15.097   5.422
    1STR   H09349374   0.244  15.070   5.415
    1STR   H09449375   0.085  15.043   5.345
    1STR   H09549376   0.102  15.060   5.518
    1STR   C09649377   0.188  15.322   5.528
    1STR   H09749378   0.295  15.299   5.529
    1STR   H09849379   0.179  15.430   5.512
    1STR   O09949380   0.126  15.284   5.651
    1STR   C10049381   0.183  15.343   5.767
    1STR   H10149382   0.292  15.340   5.762
    1STR   C10249383   0.134  15.488   5.783
    1STR   H10349384   0.026  15.493   5.784
    1STR   H10449385   0.170  15.552   5.702
    1STR   H10549386   0.170  15.531   5.876
    1STR   C10649387   0.141  15.256   5.887
    1STR   H10749388   0.032  15.257   5.897
    1STR   H10849389   0.170  15.153   5.869
    1STR   O10949390   0.203  15.305   6.006
    1STR   C11049391   0.169  15.236   6.125
    1STR   H11149392   0.061  15.216   6.128
    1STR   C11249393   0.247  15.104   6.134
    1STR   H11349394   0.355  15.122   6.126
    1STR   H11449395   0.219  15.034   6.055
    1STR   H11549396   0.229  15.054   6.229
    1STR   C11649397   0.202  15.329   6.243
    1STR   H11749398   0.309  15.350   6.245
    1STR   H11849399   0.151  15.424   6.229
    1STR   O11949400   0.161  15.267   6.365
    1STR   C12049401   0.190  15.341   6.483
    1STR   H12149402   0.290  15.383   6.478
    1STR   C12249403   0.087  15.454   6.500
    1STR   H12349404  60.145  15.415   6.501
    1STR   H12449405   0.094  15.529   6.421
    1STR   H12549406   0.103  15.507   6.595
    1STR   C12649407   0.185  15.243   6.601
    1STR   H12749408   0.085  15.201   6.611
    1STR   H12849409   0.253  15.160   6.581
    1STR   O12949410   0.223  15.311   6.721
    1STR   C13049411   0.219  15.231   6.839
    1STR   H13149412   0.129  15.170   6.840
    1STR   C13249413   0.344  15.142   6.846
    1STR   H13349414   0.435  15.201   6.839
    1STR   H13449415   0.346  15.068   6.766
    1STR   H13549416   0.347  15.087   6.940
    1STR   C13649417   0.213  15.328   6.958
    1STR   H13749418   0.303  15.390   6.961
    1STR   H13849419   0.128  15.395   6.945
    1STR   O13949420   0.200  15.253   7.079
    1STR   C14049421   0.197  15.331   7.198
    1STR   H14149422   0.273  15.409   7.194
    1STR   C14249423   0.057  15.393   7.217
    1STR   H14349424  60.140  15.316   7.216
    1STR   H14449425   0.034  15.465   7.139
    1STR   H14549426   0.051  15.446   7.312
    1STR   C14649427   0.232  15.237   7.315
    1STR   H14749428   0.157  15.158   7.323
    1STR   H14849429   0.328  15.189   7.294
    1STR   O14949430   0.240  15.312   7.436
    1STR   C15049431   0.268  15.236   7.553
    1STR   H15149432   0.210  15.144   7.553
    1STR   C15249433   0.418  15.204   7.559
    1STR   H15349434   0.478  15.295   7.554
    1STR   H15449435   0.450  15.138   7.478
    1STR   H15549436   0.443  15.153   7.652
    1STR   C15649437   0.224  15.320   7.674
    1STR   H15749438   0.281  15.413   7.678
    1STR   H15849439   0.119  15.348   7.661
    1STR   O15949440   0.241  15.244   7.793
    1STR   C16049441   0.208  15.313   7.913
    1STR   H16149442   0.246  15.415   7.911
    1STR   C16249443   0.055  15.313   7.932
    1STR   H16349444   0.014  15.212   7.930
    1STR   H16449445   0.004  15.371   7.855
    1STR   H16549446   0.028  15.358   8.028
    1STR   C16649447   0.278  15.239   8.029
    1STR   H16749448   0.241  15.136   8.035
    1STR   H16849449   0.384  15.233   8.007
    1STR   O16949450   0.254  15.309   8.151
    1STR   C17049451   0.311  15.248   8.267
    1STR   H17149452   0.294  15.141   8.265
    1STR   C17249453   0.461  15.279   8.273
    1STR   H17349454   0.480  15.386   8.270
    1STR   H17449455   0.516  15.233   8.191
    1STR   H17549456   0.504  15.240   8.366
    1STR   C17649457   0.237  15.306   8.388
    1STR   H17749458   0.252  15.413   8.394
    1STR   H17849459   0.130  15.289   8.376
    1STR   O17949460   0.283  15.241   8.507
    1STR   C18049461   0.225  15.288   8.628
    1STR   H18149462   0.219  15.397   8.627
    1STR   C18249463   0.085  15.228   8.646
    1STR   H18349464   0.088  15.119   8.642
    1STR   H18449465   0.015  15.262   8.569
    1STR   H18549466   0.043  15.256   8.742
    1STR   C18649467   0.319  15.247   8.743
    1STR   H18749468   0.326  15.138   8.747
    1STR   H18849469   0.419  15.285   8.722
    1STR   O18949470   0.270  15.300   8.865
    1STR   C19049471   0.346  15.265   8.981
    1STR   H19149472   0.374  15.159   8.977
    1STR   C19249473   0.472  15.352   8.989
    1STR   H19349474   0.446  15.458   8.987
    1STR   H19449475   0.541  15.333   8.906
    1STR   H19549476   0.527  15.333   9.081
    1STR   C19649477   0.255  15.286   9.103
    1STR   H19749478   0.227  15.391   9.111
    1STR   H19849479   0.164  15.228   9.090
    1STR   O19949480   0.324  15.243   9.221
    1STR   C20049481   0.252  15.261   9.342
    1STR   H20149482   0.203  15.358   9.343
    1STR   C20249483   0.148  15.149   9.358
    1STR   H20349484   0.195  15.051   9.353
    1STR   H20449485   0.070  15.154   9.282
    1STR   H20549486   0.098  15.156   9.455
    1STR   C20649487   0.355  15.259   9.457
    1STR   H20749488   0.405  15.162   9.460
    1STR   H20849489   0.431  15.334   9.437
    1STR   O20949490   0.289  15.285   9.580
    1STR   C21049491   0.372  15.282   9.695
    1STR   H21149492   0.440  15.197   9.691
    1STR   C21249493   0.453  15.413   9.706
    1STR   H21349494   0.387  15.500   9.706
    1STR   H21449495   0.523  15.424   9.623
    1STR   H21549496   0.511  15.415   9.798
    1STR   C21649497   0.281  15.263   9.817
    1STR   H21749498   0.213  15.347   9.827
    1STR   H21849499   0.220  15.174   9.802
    1STR   O21949500   0.361  15.249   9.935
    1STR   C22049501   0.288  15.235  10.056
    1STR   H22149502   0.204  15.305  10.058
    1STR   C22249503   0.237  15.090  10.070
    1STR   H22349504   0.319  15.019  10.063
    1STR   H22449505   0.164  15.065   9.993
    1STR   H22549506   0.188  15.076  10.166
    1STR   C22649507   0.383  15.272  10.171
    1STR   H22749508   0.467  15.203  10.173
    1STR   H22849509   0.423  15.371  10.153
    1STR   O22949510   0.312  15.268  10.295
    1STR   C23049511   0.390  15.296  10.410
    1STR   H23149512   0.486  15.245  10.404
    1STR   C23249513   0.411  15.448  10.423
    1STR   H23349514   0.316  15.501  10.424
    1STR   H23449515   0.471  15.488  10.341
    1STR   H23549516   0.463  15.472  10.516
    1STR   C23649517   0.313  15.240  10.531
    1STR   H23749518   0.217  15.290  10.541
    1STR   H23849519   0.293  15.134  10.515
    1STR   O23949520   0.392  15.258  10.649
    1STR   C24049521   0.331  15.213  10.770
    1STR   H24149522   0.226  15.243  10.772
    1STR   C24249523   0.342  15.060  10.781
    1STR   H24349524   0.446  15.028  10.773
    1STR   H24449525   0.285  15.009  10.703
    1STR   H24549526   0.304  15.026  10.877
    1STR   C24649527   0.404  15.283  10.886
    1STR   H24749528   0.509  15.254  10.887
    1STR   H24849529   0.401  15.391  10.870
    1STR   O24949530   0.340  15.249  11.008
    1STR   C25049531   0.400  15.304  11.125
    1STR   H25149532   0.509  15.296  11.119
    1STR   C25249533   0.359  15.452  11.140
    1STR   H25349534   0.251  15.463  11.142
    1STR   H25449535   0.398  15.514  11.060
    1STR   H25549536   0.398  15.493  11.234
    1STR   C25649537   0.353  15.221  11.245
    1STR   H25749538   0.244  15.228  11.255
    1STR   H25849539   0.376  15.116  11.226
    1STR   O25949540   0.418  15.266  11.363
    1STR   C26049541   0.380  15.199  11.482
    1STR   H26149542   0.272  15.185  11.485
    1STR   C26249543   0.451  15.063  11.492
    1STR   H26349544   0.559  15.075  11.484
    1STR   H26449545   0.420  14.995  11.413
    1STR   H26549546   0.429  15.014  11.587
    1STR   C26649547   0.418  15.290  11.600
    1STR   H26749548   0.526  15.305  11.602
    1STR   H26849549   0.372  15.388  11.585
    1STR   O26949550   0.373  15.232  11.722
    1STR   C27049551   0.407  15.304  11.839
    1STR   H27149552   0.510  15.340  11.834
    1STR   C27249553   0.310  15.423  11.857
    1STR   H27349554   0.207  15.389  11.858
    1STR   H27449555   0.321  15.497  11.778
    1STR   H27549556   0.329  15.474  11.951
    1STR   C27649557   0.397  15.206  11.957
    1STR   H27749558   0.295  15.169  11.967
    1STR   H27849559   0.461  15.120  11.937
    1STR   O27949560   0.439  15.272  12.076
    1STR   C28049561   0.431  15.194  12.195
    1STR   H28149562   0.337  15.137  12.196
    1STR   C28249563   0.550  15.097  12.202
    1STR   H28349564   0.645  15.152  12.196
    1STR   H28449565   0.549  15.023  12.123
    1STR   H28549566   0.550  15.043  12.297
    1STR   C28649567   0.429  15.291  12.313
    1STR   H28749568   0.522  15.348  12.316
    1STR   H28849569   0.348  15.363  12.300
    1STR   O28949570   0.412  15.218  12.434
    1STR   C29049571   0.414  15.296  12.552
    1STR   H29149572   0.494  15.370  12.547
    1STR   C29249573   0.278  15.366  12.572
    1STR   H29349574   0.197  15.293  12.573
    1STR   H29449575   0.258  15.439  12.493
    1STR   H29549576   0.276  15.419  12.667
    1STR   C29649577   0.445  15.200  12.668
    1STR   H29749578   0.366  15.126  12.678
    1STR   H29849579   0.537  15.146  12.647
    1STR   O29949580   0.458  15.276  12.788
    1STR   C30049581   0.481  15.199  12.905
    1STR   H30149582   0.418  15.110  12.905
    1STR   C30249583   0.629  15.158  12.913
    1STR   H30349584   0.694  15.246  12.909
    1STR   H30449585   0.658  15.092  12.832
    1STR   H30549586   0.650  15.106  13.006
    1STR   C30649587   0.440  15.286  13.024
    1STR   H30749588   0.502  15.376  13.028
    1STR   H30849589   0.337  15.319  13.010
    1STR   O30949590   0.453  15.210  13.143
    1STR    H1R49591   0.459  15.381  13.260
    1STR    H1S49592   0.239  15.331  13.374
    1STR    H1T49593   0.227  15.180  13.285
    1STR    H1U49594   0.217  15.334  13.201
    1STR    H1V49595   0.598  15.194  13.352
    1STR    H1W49596   0.455  15.101  13.384
    1STR    H1X49597   0.470  15.387  13.683
    1STR    H1Y49598   0.403  15.512  13.874
    1STR    H1Z49599   0.276  15.522  14.084
    1STR    H2049600   0.000  15.297  14.174
    1STR    H2149601   0.149  15.294  14.269
    1STR    H2249602   0.083  15.448  14.213
    1STR    H2349603   0.009  15.091  13.943
    1STR    H2749604   0.231  15.123  13.794
    1STR    H2849605   0.056  15.515   1.359
    1STR    H2949606   0.120  15.563   1.133
    1STR    H2A49607   0.234  15.320   0.887
    1STR    H2B49608   0.230  15.488   0.935
    1STR    H2C49609   0.088  15.417   0.859
    1STR   BCK149610   0.018  15.016  15.939
    1STR    O0349611   0.026  14.902  15.894
    1STR    N0449612  60.120  15.048  16.055
    1STR    C0549613  60.042  14.969  16.140
    1STR    C0649614  60.069  14.966  16.280
    1STR    C0749615  59.987  14.895  16.372
    1STR    N0849616  60.016  14.897  16.510
    1STR    C0949617  59.951  14.842  16.614
    1STR    O0A49618  59.850  14.773  16.605
    1STR    O0B49619  60.011  14.871  16.733
    1STR    C0C49620  59.960  14.813  16.854
    1STR    C0D49621  60.014  14.670  16.869
    1STR    C0E49622  59.996  14.900  16.977
    1STR    O0F49623  59.942  14.841  17.096
    1STR    C0G49624  59.965  14.913  17.218
    1STR    C0H49625  59.866  15.031  17.227
    1STR    C0I49626  59.946  14.817  17.338
    1STR    O0J49627  59.975  14.885  17.460
    1STR    C0K49628  59.704  15.149  28.312
    1STR    C0M49629  59.809  15.037  28.323
    1STR    C0N49630  59.717  15.251  28.426
    1STR    O0O49631  59.685  15.193  28.552
    1STR    C0P49632  59.781  15.158  28.638
    1STR    O0Q49633  59.901  15.169  28.618
    1STR    N0R49634  59.724  15.108  28.748
    1STR    C0S49635  59.779  15.055  28.865
    1STR    C0T49636  59.689  14.997  28.957
    1STR    C0U49637  59.736  14.937  29.075
    1STR    C0V49638  59.874  14.935  29.104
    1STR    C0W49639  59.919  14.860  29.228
    1STR    C0X49640  59.965  15.000  29.017
    1STR    N0Y49641  60.101  15.004  29.045
    1STR   BCK249642  60.157  15.052  29.156
    1STR    O1049643  60.097  15.110  29.246
    1STR    C1349644  59.917  15.056  28.896
    1STR    C1449645  59.877  14.824  16.318
    1STR    C1549646  59.847  14.828  16.181
    1STR    C1649647  59.927  14.901  16.091
    1STR    C1749648  59.883  14.910  15.946
    1STR    H1B49649  60.133  15.144  16.082
    1STR    H1C49650  60.155  15.020  16.316
    1STR    H1D49651  60.097  14.948  16.540
    1STR    H1E49652  59.851  14.809  16.849
    1STR    H1F49653  60.123  14.668  16.876
    1STR    H1G49654  59.975  14.623  16.959
    1STR    H1H49655  59.984  14.608  16.785
    1STR    H1I49656  59.956  15.000  16.962
    1STR    H1J49657  60.104  14.910  16.986
    1STR    H1K49658  60.067  14.950  17.221
    1STR    H1M49659  59.763  14.996  17.220
    1STR    H1N49660  59.882  15.104  17.148
    1STR    H1O49661  59.877  15.083  17.322
    1STR    H1P49662  59.843  14.779  17.339
    1STR    H1Q49663  60.011  14.731  17.325
    1STR   C01049664  59.957  14.810  17.580
    1STR   H01149665  59.862  14.755  17.577
    1STR   C01249666  60.073  14.711  17.599
    1STR   H01349667   0.009  14.763  17.598
    1STR   H01449668  60.075  14.635  17.521
    1STR   H01549669  60.065  14.659  17.694
    1STR   C01649670  59.950  14.909  17.699
    1STR   H01749671  60.043  14.966  17.705
    1STR   H01849672  59.870  14.981  17.679
    1STR   O01949673  59.926  14.840  17.821
    1STR   C02049674  59.921  14.921  17.939
    1STR   H02149675  60.003  14.994  17.936
    1STR   C02249676  59.786  14.994  17.946
    1STR   H02349677  59.703  14.923  17.944
    1STR   H02449678  59.772  15.065  17.865
    1STR   H02549679  59.778  15.051  18.039
    1STR   C02649680  59.943  14.831  18.062
    1STR   H02749681  59.863  14.757  18.068
    1STR   H02849682  60.036  14.777  18.050
    1STR   O02949683  59.946  14.911  18.181
    1STR   C03049684  59.961  14.839  18.303
    1STR   H03149685  59.896  14.750  18.303
    1STR   C03249686  60.108  14.796  18.321
    1STR   H03349687   0.014  14.883  18.317
    1STR   H03449688  60.140  14.725  18.245
    1STR   H03549689  60.122  14.748  18.418
    1STR   C03649690  59.915  14.930  18.419
    1STR   H03749691  59.978  15.019  18.423
    1STR   H03849692  59.813  14.964  18.399
    1STR   O03949693  59.921  14.859  18.542
    1STR   C04049694  59.884  14.934  18.658
    1STR   H04149695  59.930  15.033  18.654
    1STR   C04249696  59.731  14.946  18.667
    1STR   H04349697  59.684  14.848  18.666
    1STR   H04449698  59.690  15.004  18.585
    1STR   H04549699  59.702  14.996  18.759
    1STR   C04649700  59.941  14.861  18.781
    1STR   H04749701  59.897  14.761  18.789
    1STR   H04849702  60.049  14.847  18.768
    1STR   O04949703  59.915  14.937  18.899
    1STR   C05049704  59.959  14.878  19.021
    1STR   H05149705  59.935  14.771  19.023
    1STR   C05249706  60.111  14.898  19.037
    1STR   H05349707  60.137  15.003  19.032
    1STR   H05449708   0.008  14.845  18.961
    1STR   H05549709  60.144  14.860  19.134
    1STR   C05649710  59.882  14.945  19.136
    1STR   H05749711  59.904  15.051  19.139
    1STR   H05849712  59.775  14.935  19.118
    1STR   O05949713  59.916  14.882  19.260
    1STR   C06049714  59.854  14.938  19.376
    1STR   H06149715  59.855  15.047  19.371
    1STR   C06249716  59.709  14.888  19.386
    1STR   H06349717  59.705  14.779  19.387
    1STR   H06449718  59.647  14.923  19.304
    1STR   H06549719  59.663  14.923  19.479
    1STR   C06649720  59.937  14.895  19.498
    1STR   H06749721  59.937  14.787  19.507
    1STR   H06849722  60.041  14.926  19.483
    1STR   O06949723  59.884  14.956  19.615
    1STR   C07049724  59.950  14.921  19.737
    1STR   H07149725  59.970  14.814  19.739
    1STR   C07249726  60.081  15.001  19.750
    1STR   H07349727  60.063  15.108  19.743
    1STR   H07449728  60.153  14.974  19.674
    1STR   H07549729  60.128  14.981  19.847
    1STR   C07649730  59.853  14.953  19.852
    1STR   H07749731  59.831  15.060  19.854
    1STR   H07849732  59.759  14.902  19.835
    1STR   O07949733  59.911  14.912  19.976
    1STR   C08049734  59.833  14.939  20.092
    1STR   H08149735  59.790  15.040  20.086
    1STR   C08249736  59.720  14.835  20.105
    1STR   H08349737  59.760  14.734  20.106
    1STR   H08449738  59.648  14.842  20.023
    1STR   H08549739  59.665  14.850  20.198
    1STR   C08649740  59.927  14.935  20.213
    1STR   H08749741  59.970  14.835  20.223
    1STR   H08849742  60.010  15.004  20.196
    1STR   O08949743  59.855  14.971  20.331
    1STR   C09049744  59.931  14.967  20.451
    1STR   H09149745  59.993  14.877  20.454
    1STR   C09249746  60.020  15.092  20.462
    1STR   H09349747  59.960  15.183  20.455
    1STR   H09449748  60.096  15.095  20.385
    1STR   H09549749  60.072  15.094  20.558
    1STR   C09649750  59.831  14.959  20.568
    1STR   H09749751  59.768  15.048  20.569
    1STR   H09849752  59.765  14.874  20.552
    1STR   O09949753  59.902  14.945  20.691
    1STR   C10049754  59.820  14.940  20.807
    1STR   H10149755  59.742  15.016  20.802
    1STR   C10249756  59.758  14.800  20.823
    1STR   H10349757  59.835  14.723  20.824
    1STR   H10449758  59.689  14.777  20.742
    1STR   H10549759  59.703  14.793  20.916
    1STR   C10649760  59.910  14.975  20.927
    1STR   H10749761  59.989  14.901  20.937
    1STR   H10849762  59.958  15.071  20.909
    1STR   O10949763  59.831  14.982  21.046
    1STR   C11049764  59.903  15.009  21.165
    1STR   H11149765  59.996  14.952  21.168
    1STR   C11249766  59.934  15.160  21.174
    1STR   H11349767  59.843  15.219  21.167
    1STR   H11449768  60.002  15.192  21.095
    1STR   H11549769  59.982  15.184  21.269
    1STR   C11649770  59.816  14.964  21.283
    1STR   H11749771  59.723  15.020  21.285
    1STR   H11849772  59.789  14.859  21.269
    1STR   O11949773  59.888  14.981  21.405
    1STR   C12049774  59.816  14.946  21.523
    1STR   H12149775  59.714  14.983  21.518
    1STR   C12249776  59.816  14.793  21.540
    1STR   H12349777  59.918  14.753  21.541
    1STR   H12449778  59.761  14.742  21.461
    1STR   H12549779  59.769  14.765  21.635
    1STR   C12649780  59.886  15.015  21.641
    1STR   H12749781  59.989  14.979  21.651
    1STR   H12849782  59.892  15.122  21.621
    1STR   O12949783  59.812  14.991  21.761
    1STR   C13049784  59.869  15.047  21.879
    1STR   H13149785  59.977  15.031  21.880
    1STR   C13249786  59.837  15.197  21.886
    1STR   H13349787  59.730  15.215  21.879
    1STR   H13449788  59.886  15.253  21.806
    1STR   H13549789  59.873  15.240  21.980
    1STR   C13649790  59.808  14.972  21.998
    1STR   H13749791  59.700  14.986  22.001
    1STR   H13849792  59.826  14.865  21.985
    1STR   O13949793  59.869  15.018  22.119
    1STR   C14049794  59.819  14.958  22.238
    1STR   H14149795  59.710  14.951  22.234
    1STR   C14249796  59.879  14.818  22.257
    1STR   H14349797  59.988  14.823  22.256
    1STR   H14449798  59.848  14.749  22.179
    1STR   H14549799  59.849  14.775  22.352
    1STR   C14649800  59.856  15.051  22.355
    1STR   H14749801  59.964  15.059  22.363
    1STR   H14849802  59.818  15.151  22.334
    1STR   O14949803  59.799  15.001  22.476
    1STR   C15049804  59.830  15.076  22.593
    1STR   H15149805  59.935  15.105  22.593
    1STR   C15249806  59.741  15.201  22.599
    1STR   H15349807  59.635  15.175  22.594
    1STR   H15449808  59.762  15.271  22.518
    1STR   H15549809  59.757  15.256  22.692
    1STR   C15649810  59.806  14.984  22.714
    1STR   H15749811  59.701  14.955  22.718
    1STR   H15849812  59.864  14.893  22.701
    1STR   O15949813  59.844  15.052  22.833
    1STR   C16049814  59.823  14.979  22.953
    1STR   H16149815  59.725  14.930  22.951
    1STR   C16249816  59.934  14.875  22.972
    1STR   H16349817  60.033  14.922  22.970
    1STR   H16449818  59.932  14.798  22.895
    1STR   H16549819  59.924  14.824  23.068
    1STR   C16649820  59.821  15.081  23.069
    1STR   H16749821  59.918  15.131  23.075
    1STR   H16849822  59.746  15.157  23.047
    1STR   O16949823  59.791  15.014  23.191
    1STR   C17049824  59.790  15.096  23.307
    1STR   H17149825  59.875  15.165  23.305
    1STR   C17249826  59.658  15.176  23.313
    1STR   H17349827  59.572  15.109  23.310
    1STR   H17449828  59.649  15.247  23.231
    1STR   H17549829  59.653  15.233  23.406
    1STR   C17649830  59.806  15.004  23.428
    1STR   H17749831  59.721  14.935  23.434
    1STR   H17849832  59.896  14.944  23.416
    1STR   O17949833  59.815  15.083  23.547
    1STR   C18049834  59.826  15.009  23.668
    1STR   H18149835  59.757  14.925  23.667
    1STR   C18249836  59.971  14.959  23.686
    1STR   H18349837  60.042  15.042  23.682
    1STR   H18449838  59.999  14.887  23.609
    1STR   H18549839  59.983  14.910  23.782
    1STR   C18649840  59.785  15.103  23.783
    1STR   H18749841  59.853  15.188  23.787
    1STR   H18849842  59.686  15.143  23.762
    1STR   O18949843  59.785  15.031  23.905
    1STR   C19049844  59.753  15.108  24.021
    1STR   H19149845  59.804  15.205  24.017
    1STR   C19249846  59.601  15.128  24.029
    1STR   H19349847  59.548  15.033  24.028
    1STR   H19449848  59.563  15.189  23.946
    1STR   H19549849  59.574  15.180  24.121
    1STR   C19649850  59.806  15.031  24.143
    1STR   H19749851  59.756  14.935  24.151
    1STR   H19849852  59.912  15.012  24.130
    1STR   O19949853  59.784  15.109  24.261
    1STR   C20049854  59.825  15.047  24.382
    1STR   H20149855  59.795  14.942  24.383
    1STR   C20249856  59.977  15.059  24.398
    1STR   H20349857  60.010  15.163  24.393
    1STR   H20449858  60.031  15.004  24.322
    1STR   H20549859  60.009  15.020  24.495
    1STR   C20649860  59.751  15.118  24.497
    1STR   H20749861  59.780  15.224  24.500
    1STR   H20849862  59.644  15.115  24.477
    1STR   O20949863  59.782  15.054  24.620
    1STR   C21049864  59.722  15.113  24.735
    1STR   H21149865  59.730  15.222  24.731
    1STR   C21249866  59.575  15.071  24.746
    1STR   H21349867  59.565  14.962  24.746
    1STR   H21449868  59.515  15.110  24.663
    1STR   H21549869  59.530  15.108  24.838
    1STR   C21649870  59.802  15.065  24.858
    1STR   H21749871  59.796  14.957  24.867
    1STR   H21849872  59.908  15.090  24.843
    1STR   O21949873  59.753  15.129  24.975
    1STR   C22049874  59.816  15.091  25.096
    1STR   H22149875  59.831  14.982  25.099
    1STR   C22249876  59.951  15.163  25.110
    1STR   H22349877  59.939  15.271  25.103
    1STR   H22449878  60.022  15.132  25.033
    1STR   H22549879  59.997  15.141  25.206
    1STR   C22649880  59.721  15.127  25.211
    1STR   H22749881  59.705  15.235  25.213
    1STR   H22849882  59.624  15.081  25.194
    1STR   O22949883  59.777  15.082  25.335
    1STR   C23049884  59.700  15.114  25.451
    1STR   H23149885  59.663  15.217  25.445
    1STR   C23249886  59.582  15.017  25.463
    1STR   H23349887  59.616  14.913  25.464
    1STR   H23449888  59.510  15.028  25.382
    1STR   H23549889  59.527  15.034  25.556
    1STR   C23649890  59.794  15.104  25.572
    1STR   H23749891  59.831  15.002  25.582
    1STR   H23849892  59.880  15.169  25.555
    1STR   O23949893  59.724  15.144  25.689
    1STR   C24049894  59.799  15.136  25.810
    1STR   H24149895  59.856  15.043  25.813
    1STR   C24249896  59.894  15.256  25.821
    1STR   H24349897  59.839  15.350  25.814
    1STR   H24449898  59.970  15.256  25.743
    1STR   H24549899  59.946  15.256  25.917
    1STR   C24649900  59.698  15.133  25.926
    1STR   H24749901  59.640  15.226  25.928
    1STR   H24849902  59.628  15.052  25.910
    1STR   O24949903  59.768  15.116  26.049
    1STR   C25049904  59.686  15.115  26.166
    1STR   H25149905  59.612  15.195  26.160
    1STR   C25249906  59.617  14.979  26.181
    1STR   H25349907  59.690  14.898  26.182
    1STR   H25449908  59.547  14.959  26.100
    1STR   H25549909  59.561  14.974  26.274
    1STR   C25649910  59.778  15.145  26.286
    1STR   H25749911  59.853  15.067  26.296
    1STR   H25849912  59.831  15.238  26.268
    1STR   O25949913  59.699  15.155  26.404
    1STR   C26049914  59.772  15.179  26.524
    1STR   H26149915  59.862  15.117  26.527
    1STR   C26249916  59.811  15.328  26.532
    1STR   H26349917  59.724  15.392  26.525
    1STR   H26449918  59.881  15.357  26.454
    1STR   H26549919  59.860  15.350  26.628
    1STR   C26649920  59.682  15.138  26.642
    1STR   H26749921  59.592  15.200  26.643
    1STR   H26849922  59.650  15.035  26.628
    1STR   O26949923  59.755  15.152  26.764
    1STR   C27049924  59.681  15.120  26.882
    1STR   H27149925  59.581  15.163  26.876
    1STR   C27249926  59.673  14.968  26.899
    1STR   H27349927  59.772  14.923  26.900
    1STR   H27449928  59.615  14.921  26.819
    1STR   H27549929  59.624  14.942  26.993
    1STR   C27649930  59.754  15.186  27.000
    1STR   H27749931  59.855  15.144  27.010
    1STR   H27849932  59.766  15.292  26.981
    1STR   O27949933  59.679  15.165  27.120
    1STR   C28049934  59.738  15.217  27.238
    1STR   H28149935  59.845  15.196  27.240
    1STR   C28249936  59.715  15.369  27.245
    1STR   H28349937  59.609  15.393  27.239
    1STR   H28449938  59.767  15.423  27.166
    1STR   H28549939  59.752  15.410  27.340
    1STR   C28649940  59.673  15.145  27.358
    1STR   H28749941  59.566  15.166  27.360
    1STR   H28849942  59.685  15.038  27.345
    1STR   O28949943  59.735  15.188  27.479
    1STR   C29049944  59.681  15.131  27.598
    1STR   H29149945  59.572  15.130  27.593
    1STR   C29249946  59.735  14.988  27.616
    1STR   H29349947  59.844  14.986  27.616
    1STR   H29449948  59.700  14.921  27.538
    1STR   H29549949  59.701  14.946  27.711
    1STR   C29649950  59.723  15.222  27.715
    1STR   H29749951  59.832  15.224  27.723
    1STR   H29849952  59.691  15.324  27.694
    1STR   O29949953  59.664  15.174  27.835
    1STR   C30049954  59.700  15.247  27.952
    1STR   H30149955  59.806  15.271  27.951
    1STR   C30249956  59.617  15.377  27.960
    1STR   H30349957  59.510  15.355  27.956
    1STR   H30449958  59.641  15.446  27.879
    1STR   H30549959  59.636  15.429  28.054
    1STR   C30649960  59.673  15.156  28.073
    1STR   H30749961  59.567  15.134  28.081
    1STR   H30849962  59.725  15.062  28.058
    1STR   O30949963  59.721  15.221  28.191
    1STR    H1R49964  59.603  15.106  28.317
    1STR    H1S49965  59.800  14.983  28.418
    1STR    H1T49966  59.910  15.079  28.320
    1STR    H1U49967  59.800  14.963  28.244
    1STR    H1V49968  59.647  15.333  28.410
    1STR    H1W49969  59.816  15.297  28.427
    1STR    H1X49970  59.624  15.109  28.739
    1STR    H1Y49971  59.583  14.996  28.938
    1STR    H1Z49972  59.666  14.891  29.143
    1STR    H2049973  60.015  14.811  29.210
    1STR    H2149974  59.930  14.928  29.312
    1STR    H2249975  59.848  14.782  29.256
    1STR    H2349976   0.005  14.973  28.973
    1STR    H2749977  59.988  15.102  28.829
    1STR    H2849978  59.810  14.766  16.380
    1STR    H2949979  59.760  14.775  16.144
    1STR    H2A49980  59.902  15.009  15.906
    1STR    H2B49981  59.777  14.890  15.936
    1STR    H2C49982  59.937  14.837  15.886
    1STR   BCK149983   0.133  15.110  30.983
    1STR    O0349984   0.226  15.189  30.968
    1STR    N0449985   0.114  15.035  31.092
    1STR    C0549986   0.209  15.015  31.191
    1STR    C0649987   0.178  15.043  31.326
    1STR    C0749988   0.273  15.021  31.429
    1STR    N0849989   0.238  15.046  31.563
    1STR    C0949990   0.316  15.053  31.671
    1STR    O0A49991   0.439  15.046  31.670
    1STR    O0B49992   0.244  15.069  31.784
    1STR    C0C49993   0.311  15.080  31.910
    1STR    C0D49994   0.361  15.224  31.928
    1STR    C0E49995   0.220  15.036  32.026
    1STR    O0F49996   0.297  15.041  32.147
    1STR    C0G49997   0.229  15.002  32.266
    1STR    C0H49998   0.222  14.849  32.273
    1STR    C0I49999   0.308  15.059  32.385
    1STR    O0J50000   0.239  15.030  32.507
    1STR    C0K50001   0.256  14.639  43.356
    1STR    C0M50002   0.259  14.792  43.372
    1STR    C0N50003   0.174  14.571  43.467
    1STR    O0O50004   0.242  14.572  43.592
    1STR    C0P50005   0.212  14.662  43.686
    1STR    O0Q50006   0.123  14.746  43.678
    1STR    N0R50007   0.296  14.649  43.789
    1STR    C0S50008   0.315  14.734  43.898
    1STR    C0T50009   0.446  14.747  43.948
    1STR    C0U50010   0.475  14.844  44.045
    1STR    C0V50011   0.374  14.929  44.095
    1STR    C0W50012   0.420  15.051  44.172
    1STR    C0X50013   0.238  14.907  44.058
    1STR    N0Y50014   0.129  14.982  44.101
    1STR   BCK250015   0.088  15.042  44.214
    1STR    O1050016  60.144  15.107  44.210
    1STR    C1350017   0.212  14.811  43.957
    1STR    C1450018   0.400  14.969  31.392
    1STR    C1550019   0.430  14.939  31.259
    1STR    C1650020   0.334  14.958  31.158
    1STR    C1750021   0.369  14.915  31.016
    1STR    H1B50022   0.028  14.984  31.095
    1STR    H1C50023   0.081  15.084  31.350
    1STR    H1D50024   0.141  15.063  31.585
    1STR    H1E50025   0.397  15.013  31.910
    1STR    H1F50026   0.279  15.296  31.930
    1STR    H1G50027   0.417  15.235  32.022
    1STR    H1H50028   0.429  15.253  31.848
    1STR    H1I50029   0.184  14.935  32.007
    1STR    H1J50030   0.133  15.101  32.033
    1STR    H1K50031   0.128  15.045  32.268
    1STR    H1M50032   0.321  14.804  32.267
    1STR    H1N50033   0.161  14.806  32.193
    1STR    H1O50034   0.177  14.816  32.367
    1STR    H1P50035   0.409  15.017  32.387
    1STR    H1Q50036   0.318  15.167  32.373
    1STR   C01050037   0.304  15.073  32.627
    1STR   H01150038   0.410  15.049  32.622
    1STR   C01250039   0.285  15.225  32.645
    1STR   H01350040   0.179  15.251  32.644
    1STR   H01450041   0.335  15.282  32.567
    1STR   H01550042   0.327  15.257  32.740
    1STR   C01650043   0.242  14.995  32.744
    1STR   H01750044   0.135  15.016  32.751
    1STR   H01850045   0.252  14.888  32.724
    1STR   O01950046   0.308  15.029  32.866
    1STR   C02050047   0.256  14.965  32.983
    1STR   H02150048   0.147  14.966  32.981
    1STR   C02250049   0.307  14.821  32.990
    1STR   H02350050   0.416  14.817  32.988
    1STR   H02450051   0.270  14.759  32.909
    1STR   H02550052   0.275  14.773  33.083
    1STR   C02650053   0.302  15.047  33.106
    1STR   H02750054   0.411  15.047  33.112
    1STR   H02850055   0.270  15.150  33.093
    1STR   O02950056   0.245  14.991  33.224
    1STR   C03050057   0.283  15.054  33.346
    1STR   H03150058   0.390  15.076  33.346
    1STR   C03250059   0.203  15.185  33.364
    1STR   H03350060   0.096  15.166  33.360
    1STR   H03450061   0.227  15.259  33.288
    1STR   H03550062   0.225  15.230  33.460
    1STR   C03650063   0.255  14.956  33.461
    1STR   H03750064   0.148  14.933  33.465
    1STR   H03850065   0.307  14.862  33.441
    1STR   O03950066   0.299  15.012  33.584
    1STR   C04050067   0.275  14.932  33.700
    1STR   H04150068   0.175  14.890  33.696
    1STR   C04250069   0.380  14.820  33.708
    1STR   H04350070   0.481  14.860  33.708
    1STR   H04450071   0.371  14.749  33.626
    1STR   H04550072   0.368  14.763  33.801
    1STR   C04650073   0.283  15.024  33.823
    1STR   H04750074   0.382  15.068  33.831
    1STR   H04850075   0.213  15.107  33.809
    1STR   O04950076   0.250  14.950  33.941
    1STR   C05050077   0.258  15.024  34.062
    1STR   H05150078   0.347  15.086  34.064
    1STR   C05250079   0.132  15.111  34.078
    1STR   H05350080   0.041  15.051  34.073
    1STR   H05450081   0.126  15.189  34.002
    1STR   H05550082   0.132  15.162  34.175
    1STR   C05650083   0.270  14.922  34.177
    1STR   H05750084   0.181  14.859  34.180
    1STR   H05850085   0.355  14.857  34.158
    1STR   O05950086   0.286  14.991  34.301
    1STR   C06050087   0.294  14.908  34.416
    1STR   H06150088   0.219  14.829  34.411
    1STR   C06250089   0.435  14.847  34.427
    1STR   H06350090   0.512  14.925  34.427
    1STR   H06450091   0.457  14.779  34.345
    1STR   H06550092   0.446  14.790  34.519
    1STR   C06650093   0.262  14.996  34.539
    1STR   H06750094   0.336  15.076  34.548
    1STR   H06850095   0.165  15.044  34.523
    1STR   O06950096   0.260  14.915  34.656
    1STR   C07050097   0.236  14.985  34.778
    1STR   H07150098   0.293  15.078  34.780
    1STR   C07250099   0.085  15.015  34.791
    1STR   H07350100   0.026  14.924  34.784
    1STR   H07450101   0.050  15.084  34.714
    1STR   H07550102   0.064  15.061  34.887
    1STR   C07650103   0.285  14.896  34.893
    1STR   H07750104   0.229  14.803  34.895
    1STR   H07850105   0.390  14.871  34.875
    1STR   O07950106   0.271  14.966  35.016
    1STR   C08050107   0.310  14.893  35.132
    1STR   H08150108   0.273  14.791  35.126
    1STR   C08250109   0.463  14.894  35.145
    1STR   H08350110   0.502  14.995  35.147
    1STR   H08450111   0.512  14.840  35.064
    1STR   H08550112   0.494  14.845  35.238
    1STR   C08650113   0.243  14.961  35.253
    1STR   H08750114   0.279  15.063  35.263
    1STR   H08850115   0.136  14.966  35.236
    1STR   O08950116   0.272  14.885  35.371
    1STR   C09050117   0.219  14.939  35.492
    1STR   H09150118   0.234  15.047  35.494
    1STR   C09250119   0.069  14.907  35.502
    1STR   H09350120   0.051  14.799  35.495
    1STR   H09450121   0.010  14.956  35.424
    1STR   H09550122   0.029  14.940  35.598
    1STR   C09650123   0.298  14.878  35.608
    1STR   H09750124   0.284  14.769  35.609
    1STR   H09850125   0.404  14.896  35.592
    1STR   O09950126   0.255  14.936  35.731
    1STR   C10050127   0.318  14.884  35.848
    1STR   H10150128   0.325  14.775  35.842
    1STR   C10250129   0.458  14.946  35.863
    1STR   H10350130   0.453  15.055  35.864
    1STR   H10450131   0.525  14.916  35.783
    1STR   H10550132   0.504  14.914  35.956
    1STR   C10650133   0.228  14.919  35.967
    1STR   H10750134   0.219  15.027  35.977
    1STR   H10850135   0.127  14.881  35.948
    1STR   O10950136   0.282  14.861  36.086
    1STR   C11050137   0.210  14.889  36.205
    1STR   H11150138   0.180  14.994  36.208
    1STR   C11250139   0.085  14.799  36.213
    1STR   H11350140   0.112  14.694  36.206
    1STR   H11450141   0.013  14.821  36.135
    1STR   H11550142   0.034  14.814  36.308
    1STR   C11650143   0.305  14.864  36.323
    1STR   H11750144   0.335  14.759  36.325
    1STR   H11850145   0.395  14.923  36.309
    1STR   O11950146   0.240  14.900  36.445
    1STR   C12050147   0.317  14.878  36.563
    1STR   H12150148   0.367  14.781  36.558
    1STR   C12250149   0.420  14.990  36.580
    1STR   H12350150   0.372  15.088  36.581
    1STR   H12450151   0.495  14.990  36.501
    1STR   H12550152   0.474  14.979  36.675
    1STR   C12650153   0.218  14.873  36.681
    1STR   H12750154   0.167  14.969  36.691
    1STR   H12850155   0.142  14.798  36.661
    1STR   O12950156   0.289  14.841  36.801
    1STR   C13050157   0.210  14.838  36.919
    1STR   H13150158   0.141  14.923  36.920
    1STR   C13250159   0.132  14.706  36.926
    1STR   H13350160   0.199  14.620  36.919
    1STR   H13450161   0.059  14.697  36.846
    1STR   H13550162   0.077  14.698  37.020
    1STR   C13650163   0.306  14.853  37.038
    1STR   H13750164   0.375  14.769  37.041
    1STR   H13850165   0.365  14.944  37.025
    1STR   O13950166   0.230  14.860  37.159
    1STR   C14050167   0.307  14.870  37.278
    1STR   H14150168   0.392  14.801  37.274
    1STR   C14250169   0.357  15.014  37.297
    1STR   H14350170   0.274  15.084  37.296
    1STR   H14450171   0.427  15.044  37.219
    1STR   H14550172   0.409  15.025  37.392
    1STR   C14650173   0.217  14.826  37.395
    1STR   H14750174   0.131  14.893  37.403
    1STR   H14850175   0.177  14.727  37.374
    1STR   O14950176   0.292  14.825  37.516
    1STR   C15050177   0.219  14.790  37.633
    1STR   H15150178   0.122  14.840  37.633
    1STR   C15250179   0.200  14.638  37.639
    1STR   H15350180   0.296  14.586  37.634
    1STR   H15450181   0.137  14.601  37.558
    1STR   H15550182   0.151  14.609  37.732
    1STR   C15650183   0.299  14.842  37.753
    1STR   H15750184   0.396  14.793  37.758
    1STR   H15850185   0.317  14.948  37.741
    1STR   O15950186   0.225  14.818  37.873
    1STR   C16050187   0.290  14.857  37.993
    1STR   H16150188   0.395  14.828  37.991
    1STR   C16250189   0.277  15.009  38.012
    1STR   H16350190   0.173  15.041  38.010
    1STR   H16450191   0.331  15.065  37.935
    1STR   H16550192   0.319  15.040  38.108
    1STR   C16650193   0.223  14.781  38.109
    1STR   H16750194   0.117  14.809  38.115
    1STR   H16850195   0.226  14.674  38.087
    1STR   O16950196   0.290  14.810  38.231
    1STR   C17050197   0.235  14.748  38.347
    1STR   H17150198   0.126  14.756  38.345
    1STR   C17250199   0.278  14.601  38.353
    1STR   H17350200   0.387  14.592  38.350
    1STR   H17450201   0.237  14.542  38.271
    1STR   H17550202   0.244  14.555  38.446
    1STR   C17650203   0.285  14.827  38.468
    1STR   H17750204   0.394  14.821  38.474
    1STR   H17850205   0.260  14.933  38.456
    1STR   O17950206   0.225  14.775  38.587
    1STR   C18050207   0.267  14.837  38.708
    1STR   H18150208   0.375  14.853  38.707
    1STR   C18250209   0.195  14.972  38.726
    1STR   H18350210   0.086  14.959  38.722
    1STR   H18450211   0.223  15.044  38.649
    1STR   H18550212   0.219  15.016  38.822
    1STR   C18650213   0.234  14.740  38.823
    1STR   H18750214   0.126  14.724  38.827
    1STR   H18850215   0.280  14.644  38.802
    1STR   O18950216   0.282  14.794  38.946
    1STR   C19050217   0.254  14.715  39.061
    1STR   H19150218   0.151  14.678  39.057
    1STR   C19250219   0.353  14.597  39.069
    1STR   H19350220   0.456  14.632  39.068
    1STR   H19450221   0.340  14.527  38.986
    1STR   H19550222   0.338  14.541  39.161
    1STR   C19650223   0.267  14.807  39.183
    1STR   H19750224   0.369  14.845  39.191
    1STR   H19850225   0.202  14.893  39.170
    1STR   O19950226   0.231  14.735  39.301
    1STR   C20050227   0.242  14.808  39.422
    1STR   H20150228   0.335  14.866  39.423
    1STR   C20250229   0.121  14.902  39.438
    1STR   H20350230   0.028  14.847  39.433
    1STR   H20450231   0.119  14.980  39.362
    1STR   H20550232   0.124  14.953  39.535
    1STR   C20650233   0.249  14.706  39.537
    1STR   H20750234   0.157  14.647  39.540
    1STR   H20850235   0.330  14.636  39.517
    1STR   O20950236   0.270  14.774  39.660
    1STR   C21050237   0.274  14.691  39.775
    1STR   H21150238   0.194  14.616  39.771
    1STR   C21250239   0.411  14.622  39.786
    1STR   H21350240   0.491  14.695  39.786
    1STR   H21450241   0.428  14.553  39.703
    1STR   H21550242   0.418  14.564  39.878
    1STR   C21650243   0.247  14.780  39.898
    1STR   H21750244   0.325  14.855  39.907
    1STR   H21850245   0.152  14.833  39.883
    1STR   O21950246   0.240  14.699  40.015
    1STR   C22050247   0.219  14.771  40.136
    1STR   H22150248   0.281  14.860  40.139
    1STR   C22250249   0.071  14.809  40.150
    1STR   H22350250   0.007  14.720  40.143
    1STR   H22450251   0.039  14.879  40.073
    1STR   H22550252   0.052  14.856  40.246
    1STR   C22650253   0.264  14.679  40.251
    1STR   H22750254   0.203  14.589  40.253
    1STR   H22850255   0.367  14.648  40.234
    1STR   O22950256   0.254  14.750  40.375
    1STR   C23050257   0.289  14.674  40.490
    1STR   H23150258   0.247  14.574  40.485
    1STR   C23250259   0.442  14.666  40.503
    1STR   H23350260   0.487  14.766  40.505
    1STR   H23450261   0.488  14.610  40.422
    1STR   H23550262   0.471  14.616  40.596
    1STR   C23650263   0.227  14.745  40.612
    1STR   H23750264   0.268  14.846  40.622
    1STR   H23850265   0.119  14.756  40.595
    1STR   O23950266   0.251  14.668  40.729
    1STR   C24050267   0.201  14.725  40.850
    1STR   H24150268   0.222  14.832  40.853
    1STR   C24250269   0.050  14.701  40.861
    1STR   H24350270   0.027  14.594  40.854
    1STR   H24450271  60.154  14.753  40.783
    1STR   H24550272   0.012  14.736  40.957
    1STR   C24650273   0.277  14.659  40.966
    1STR   H24750274   0.258  14.552  40.967
    1STR   H24850275   0.385  14.672  40.950
    1STR   O24950276   0.238  14.720  41.089
    1STR   C25050277   0.298  14.665  41.205
    1STR   H25150278   0.300  14.555  41.200
    1STR   C25250279   0.442  14.718  41.221
    1STR   H25350280   0.443  14.827  41.222
    1STR   H25450281   0.507  14.685  41.140
    1STR   H25550282   0.486  14.684  41.314
    1STR   C25650283   0.211  14.704  41.325
    1STR   H25750284   0.208  14.813  41.336
    1STR   H25850285   0.108  14.672  41.307
    1STR   O25950286   0.262  14.643  41.444
    1STR   C26050287   0.192  14.676  41.563
    1STR   H26150288   0.168  14.782  41.566
    1STR   C26250289   0.062  14.593  41.572
    1STR   H26350290   0.083  14.486  41.565
    1STR   H26450291  60.152  14.618  41.493
    1STR   H26550292   0.012  14.610  41.667
    1STR   C26650293   0.286  14.645  41.681
    1STR   H26750294   0.310  14.539  41.683
    1STR   H26850295   0.379  14.699  41.667
    1STR   O26950296   0.223  14.684  41.803
    1STR   C27050297   0.299  14.658  41.921
    1STR   H27150298   0.344  14.558  41.915
    1STR   C27250299   0.409  14.764  41.938
    1STR   H27350300   0.366  14.864  41.939
    1STR   H27450301   0.483  14.760  41.858
    1STR   H27550302   0.462  14.750  42.032
    1STR   C27650303   0.201  14.659  42.039
    1STR   H27750304   0.155  14.757  42.049
    1STR   H27850305   0.121  14.588  42.020
    1STR   O27950306   0.270  14.624  42.159
    1STR   C28050307   0.191  14.625  42.277
    1STR   H28150308   0.127  14.713  42.279
    1STR   C28250309   0.106  14.497  42.285
    1STR   H28350310   0.168  14.408  42.278
    1STR   H28450311   0.032  14.493  42.205
    1STR   H28550312   0.052  14.492  42.379
    1STR   C28650313   0.288  14.634  42.397
    1STR   H28750314   0.353  14.547  42.399
    1STR   H28850315   0.352  14.721  42.384
    1STR   O28950316   0.214  14.644  42.518
    1STR   C29050317   0.292  14.650  42.637
    1STR   H29150318   0.373  14.577  42.633
    1STR   C29250319   0.349  14.792  42.655
    1STR   H29350320   0.270  14.867  42.654
    1STR   H29450321   0.420  14.817  42.577
    1STR   H29550322   0.402  14.800  42.750
    1STR   C29650323   0.199  14.612  42.754
    1STR   H29750324   0.117  14.684  42.761
    1STR   H29850325   0.154  14.515  42.733
    1STR   O29950326   0.273  14.608  42.876
    1STR   C30050327   0.197  14.576  42.992
    1STR   H30150328   0.102  14.630  42.989
    1STR   C30250329   0.171  14.425  42.997
    1STR   H30350330   0.265  14.369  42.993
    1STR   H30450331   0.109  14.390  42.915
    1STR   H30550332   0.121  14.397  43.090
    1STR   C30650333   0.275  14.625  43.115
    1STR   H30750334   0.369  14.570  43.123
    1STR   H30850335   0.299  14.730  43.102
    1STR   O30950336   0.195  14.605  43.232
    1STR    H1R50337   0.358  14.599  43.359
    1STR    H1S50338   0.301  14.821  43.469
    1STR    H1T50339   0.159  14.834  43.367
    1STR    H1U50340   0.320  14.842  43.297
    1STR    H1V50341   0.158  14.466  43.440
    1STR    H1W50342   0.074  14.615  43.474
    1STR    H1X50343   0.362  14.574  43.774
    1STR    H1Y50344   0.527  14.687  43.908
    1STR    H1Z50345   0.577  14.859  44.076
    1STR    H2050346   0.348  15.132  44.165
    1STR    H2150347   0.439  15.027  44.277
    1STR    H2250348   0.513  15.090  44.130
    1STR    H2350349   0.055  14.993  44.033
    1STR    H2750350   0.111  14.798  43.921
    1STR    H2850351   0.477  14.949  31.465
    1STR    H2950352   0.527  14.898  31.234
    1STR    H2A50353   0.283  14.869  30.967
    1STR    H2B50354   0.449  14.842  31.015
    1STR    H2C50355   0.401  15.001  30.957
    1STR   BCK150356   0.045  15.123  46.005
    1STR    O0350357  60.113  15.060  45.953
    1STR    N0450358   0.043  15.173  46.130
    1STR    C0550359  60.096  15.203  46.214
    1STR    C0650360  60.099  15.167  46.352
    1STR    C0750361  60.001  15.214  46.445
    1STR    N0850362  60.010  15.181  46.583
    1STR    C0950363  59.951  15.240  46.689
    1STR    O0A50364  59.879  15.339  46.683
    1STR    O0B50365  59.982  15.178  46.807
    1STR    C0C50366  59.920  15.222  46.930
    1STR    C0D50367  59.782  15.155  46.944
    1STR    C0E50368  60.008  15.192  47.054
    1STR    O0F50369  59.944  15.239  47.174
    1STR    C0G50370  60.016  15.223  47.296
    1STR    C0H50371  60.125  15.331  47.306
    1STR    C0I50372  59.919  15.233  47.416
    1STR    O0J50373  59.990  15.210  47.539
    1STR    C0K50374   0.067  15.509  58.392
    1STR    C0M50375  60.128  15.392  58.404
    1STR    C0N50376   0.169  15.510  58.507
    1STR    O0O50377   0.106  15.539  58.632
    1STR    C0P50378   0.087  15.442  58.723
    1STR    O0Q50379   0.117  15.325  58.709
    1STR    N0R50380   0.028  15.495  58.830
    1STR    C0S50381  60.146  15.437  58.950
    1STR    C0T50382  60.062  15.513  59.034
    1STR    C0U50383  60.014  15.461  59.155
    1STR    C0V50384  60.051  15.331  59.197
    1STR    C0W50385  59.991  15.275  59.325
    1STR    C0X50386  60.139  15.255  59.117
    1STR    N0Y50387   0.016  15.126  59.154
    1STR   BCK250388   0.086  15.090  59.262
    1STR    O1050389   0.133  15.167  59.344
    1STR    C1350390   0.024  15.307  58.993
    1STR    C1450391  59.897  15.296  46.395
    1STR    C1550392  59.893  15.332  46.259
    1STR    C1650393  59.992  15.289  46.169
    1STR    C1750394  59.988  15.343  46.027
    1STR    H1B50395   0.133  15.205  46.161
    1STR    H1C50396   0.019  15.104  46.387
    1STR    H1D50397  60.068  15.104  46.609
    1STR    H1E50398  59.905  15.330  46.927
    1STR    H1F50399  59.790  15.046  46.949
    1STR    H1G50400  59.731  15.188  47.034
    1STR    H1H50401  59.717  15.180  46.859
    1STR    H1I50402  60.104  15.241  47.041
    1STR    H1J50403  60.027  15.085  47.062
    1STR    H1K50404  60.062  15.124  47.299
    1STR    H1M50405  60.082  15.431  47.300
    1STR    H1N50406   0.040  15.322  47.228
    1STR    H1O50407   0.018  15.324  47.402
    1STR    H1P50408  59.872  15.332  47.418
    1STR    H1Q50409  59.839  15.160  47.404
    1STR   C01050410  59.913  15.222  47.660
    1STR   H01150411  59.851  15.311  47.656
    1STR   C01250412  59.825  15.097  47.678
    1STR   H01350413  59.885  15.006  47.678
    1STR   H01450414  59.749  15.088  47.601
    1STR   H01550415  59.772  15.102  47.774
    1STR   C01650416  60.011  15.238  47.778
    1STR   H01750417  60.076  15.150  47.784
    1STR   H01850418  60.076  15.324  47.759
    1STR   O01950419  59.940  15.256  47.901
    1STR   C02050420  60.021  15.267  48.018
    1STR   H02150421  60.101  15.193  48.016
    1STR   C02250422  60.081  15.409  48.026
    1STR   H02350423  60.003  15.485  48.024
    1STR   H02450424  60.151  15.429  47.945
    1STR   H02550425  60.137  15.421  48.119
    1STR   C02650426  59.933  15.238  48.142
    1STR   H02750427  59.852  15.311  48.148
    1STR   H02850428  59.887  15.140  48.130
    1STR   O02950429  60.013  15.242  48.261
    1STR   C03050430  59.942  15.221  48.383
    1STR   H03150431  59.848  15.277  48.383
    1STR   C03250432  59.913  15.071  48.401
    1STR   H03350433  60.005  15.012  48.398
    1STR   H03450434  59.845  15.033  48.325
    1STR   H03550435  59.866  15.052  48.498
    1STR   C03650436  60.029  15.275  48.499
    1STR   H03750437  60.123  15.220  48.503
    1STR   H03850438  60.053  15.379  48.479
    1STR   O03950439  59.958  15.263  48.622
    1STR   C04050440  60.030  15.305  48.738
    1STR   H04150441  60.133  15.269  48.735
    1STR   C04250442  60.029  15.459  48.747
    1STR   H04350443  59.927  15.497  48.746
    1STR   H04450444  60.083  15.505  48.665
    1STR   H04550445  60.076  15.492  48.839
    1STR   C04650446  59.962  15.242  48.861
    1STR   H04750447  59.859  15.277  48.869
    1STR   H04850448  59.958  15.134  48.848
    1STR   O04950449  60.035  15.275  48.979
    1STR   C05050450  59.981  15.226  49.101
    1STR   H05150451  59.872  15.240  49.103
    1STR   C05250452  60.014  15.077  49.117
    1STR   H05350453  60.122  15.060  49.112
    1STR   H05450454  59.966  15.015  49.041
    1STR   H05550455  59.980  15.040  49.214
    1STR   C05650456  60.040  15.309  49.216
    1STR   H05750457  60.149  15.296  49.219
    1STR   H05850458  60.021  15.415  49.198
    1STR   O05950459  59.982  15.269  49.340
    1STR   C06050460  60.031  15.336  49.456
    1STR   H06150461  60.140  15.344  49.451
    1STR   C06250462  59.969  15.476  49.466
    1STR   H06350463  59.860  15.470  49.467
    1STR   H06450464  59.999  15.541  49.384
    1STR   H06550465  60.000  15.525  49.559
    1STR   C06650466  59.996  15.249  49.578
    1STR   H06750467  59.888  15.240  49.587
    1STR   H06850468  60.036  15.149  49.563
    1STR   O06950469  60.052  15.308  49.696
    1STR   C07050470  60.023  15.239  49.817
    1STR   H07150471  59.918  15.209  49.820
    1STR   C07250472  60.114  15.116  49.830
    1STR   H07350473   0.059  15.143  49.824
    1STR   H07450474  60.093  15.041  49.754
    1STR   H07550475  60.099  15.067  49.927
    1STR   C07650476  60.047  15.338  49.933
    1STR   H07750477  60.151  15.369  49.934
    1STR   H07850478  59.987  15.428  49.915
    1STR   O07950479  60.010  15.277  50.056
    1STR   C08050480  60.031  15.357  50.172
    1STR   H08150481  60.127  15.408  50.166
    1STR   C08250482  59.918  15.460  50.185
    1STR   H08350483  59.820  15.412  50.186
    1STR   H08450484  59.918  15.533  50.104
    1STR   H08550485  59.928  15.517  50.278
    1STR   C08650486  60.035  15.263  50.293
    1STR   H08750487  59.939  15.211  50.303
    1STR   H08850488  60.111  15.186  50.276
    1STR   O08950489  60.064  15.337  50.411
    1STR   C09050490  60.067  15.262  50.532
    1STR   H09150491  59.983  15.192  50.534
    1STR   C09250492   0.039  15.185  50.542
    1STR   H09350493   0.125  15.252  50.535
    1STR   H09450494   0.050  15.109  50.465
    1STR   H09550495   0.046  15.133  50.638
    1STR   C09650496  60.050  15.361  50.648
    1STR   H09750497  60.134  15.431  50.649
    1STR   H09850498  59.959  15.419  50.632
    1STR   O09950499  60.043  15.289  50.771
    1STR   C10050500  60.031  15.370  50.888
    1STR   H10150501  60.099  15.455  50.882
    1STR   C10250502  59.886  15.419  50.903
    1STR   H10350503  59.816  15.335  50.904
    1STR   H10450504  59.857  15.486  50.822
    1STR   H10550505  59.874  15.474  50.996
    1STR   C10650506  60.074  15.283  51.007
    1STR   H10750507  60.007  15.198  51.017
    1STR   H10850508   0.013  15.244  50.988
    1STR   O10950509  60.073  15.363  51.126
    1STR   C11050510  60.107  15.293  51.245
    1STR   H11150511  60.058  15.196  51.248
    1STR   C11250512   0.100  15.275  51.254
    1STR   H11350513   0.151  15.371  51.246
    1STR   H11450514   0.138  15.210  51.175
    1STR   H11550515   0.128  15.229  51.349
    1STR   C11650516  60.054  15.376  51.363
    1STR   H11750517  60.102  15.474  51.365
    1STR   H11850518  59.947  15.393  51.349
    1STR   O11950519  60.077  15.306  51.485
    1STR   C12050520  60.036  15.374  51.603
    1STR   H12150521  60.064  15.479  51.598
    1STR   C12250522  59.884  15.361  51.620
    1STR   H12350523  59.853  15.257  51.621
    1STR   H12450524  59.829  15.412  51.541
    1STR   H12550525  59.852  15.406  51.715
    1STR   C12650526  60.111  15.311  51.721
    1STR   H12750527  60.084  15.205  51.731
    1STR   H12850528   0.058  15.314  51.701
    1STR   O12950529  60.081  15.382  51.841
    1STR   C13050530  60.141  15.331  51.959
    1STR   H13150531  60.135  15.222  51.960
    1STR   C13250532   0.128  15.375  51.966
    1STR   H13350533   0.137  15.484  51.959
    1STR   H13450534   0.188  15.332  51.885
    1STR   H13550535   0.174  15.344  52.060
    1STR   C13650536  60.061  15.384  52.078
    1STR   H13750537  60.066  15.493  52.081
    1STR   H13850538  59.956  15.358  52.065
    1STR   O13950539  60.112  15.328  52.199
    1STR   C14050540  60.049  15.373  52.318
    1STR   H14150541  60.033  15.481  52.314
    1STR   C14250542  59.915  15.300  52.337
    1STR   H14350543  59.928  15.192  52.336
    1STR   H14450544  59.843  15.326  52.259
    1STR   H14550545  59.869  15.327  52.432
    1STR   C14650546  60.145  15.344  52.435
    1STR   H14750547   0.002  15.237  52.443
    1STR   H14850548   0.081  15.391  52.414
    1STR   O14950549  60.090  15.396  52.556
    1STR   C15050550   0.007  15.372  52.673
    1STR   H15150551   0.045  15.270  52.673
    1STR   C15250552   0.124  15.472  52.679
    1STR   H15350553   0.089  15.574  52.674
    1STR   H15450554   0.195  15.457  52.598
    1STR   H15550555   0.180  15.460  52.772
    1STR   C15650556  60.074  15.388  52.794
    1STR   H15750557  60.035  15.490  52.798
    1STR   H15850558  59.988  15.322  52.781
    1STR   O15950559  60.145  15.356  52.913
    1STR   C16050560  60.070  15.371  53.033
    1STR   H16150561  60.012  15.463  53.031
    1STR   C16250562  59.976  15.250  53.052
    1STR   H16350563  60.032  15.156  53.050
    1STR   H16450564  59.900  15.245  52.975
    1STR   H16550565  59.925  15.256  53.148
    1STR   C16650566   0.011  15.382  53.149
    1STR   H16750567   0.070  15.290  53.155
    1STR   H16850568   0.081  15.463  53.127
    1STR   O16950569  60.101  15.406  53.271
    1STR   C17050570   0.024  15.414  53.387
    1STR   H17150571   0.099  15.335  53.385
    1STR   C17250572   0.091  15.552  53.393
    1STR   H17350573   0.017  15.632  53.390
    1STR   H17450574   0.161  15.567  53.311
    1STR   H17550575   0.148  15.562  53.486
    1STR   C17650576  60.093  15.390  53.508
    1STR   H17750577  60.017  15.468  53.514
    1STR   H17850578  60.041  15.295  53.496
    1STR   O17950579   0.013  15.387  53.627
    1STR   C18050580  60.100  15.370  53.748
    1STR   H18150581  60.010  15.431  53.747
    1STR   C18250582  60.063  15.222  53.766
    1STR   H18350583  60.151  15.158  53.762
    1STR   H18450584  59.993  15.187  53.689
    1STR   H18550585  60.014  15.205  53.862
    1STR   C18650586   0.030  15.419  53.862
    1STR   H18750587   0.121  15.358  53.867
    1STR   H18850588   0.061  15.521  53.842
    1STR   O18950589  60.118  15.412  53.985
    1STR   C19050590   0.032  15.451  54.101
    1STR   H19150591   0.133  15.409  54.097
    1STR   C19250592   0.039  15.605  54.109
    1STR   H19350593  60.099  15.649  54.108
    1STR   H19450594   0.096  15.648  54.026
    1STR   H19550595   0.088  15.636  54.201
    1STR   C19650596  60.120  15.392  54.223
    1STR   H19750597  60.020  15.433  54.231
    1STR   H19850598  60.110  15.284  54.210
    1STR   O19950599   0.036  15.421  54.341
    1STR   C20050600  60.138  15.374  54.462
    1STR   H20150601  60.031  15.395  54.463
    1STR   C20250602   0.003  15.223  54.478
    1STR   H20350603   0.110  15.201  54.473
    1STR   H20450604  60.112  15.165  54.402
    1STR   H20550605  60.127  15.188  54.575
    1STR   C20650606   0.042  15.454  54.577
    1STR   H20750607   0.150  15.435  54.580
    1STR   H20850608   0.029  15.561  54.557
    1STR   O20950609  60.141  15.418  54.700
    1STR   C21050610   0.034  15.483  54.815
    1STR   H21150611   0.143  15.484  54.811
    1STR   C21250612  60.140  15.626  54.825
    1STR   H21350613  60.031  15.626  54.826
    1STR   H21450614   0.013  15.689  54.743
    1STR   H21550615   0.013  15.673  54.918
    1STR   C21650616  60.154  15.399  54.938
    1STR   H21750617  60.045  15.396  54.947
    1STR   H21850618   0.027  15.296  54.923
    1STR   O21950619   0.053  15.454  55.055
    1STR   C22050620   0.020  15.387  55.176
    1STR   H22150621  60.074  15.363  55.179
    1STR   C22250622   0.104  15.259  55.190
    1STR   H22350623   0.211  15.280  55.183
    1STR   H22450624   0.080  15.185  55.113
    1STR   H22550625   0.086  15.211  55.286
    1STR   C22650626   0.049  15.485  55.291
    1STR   H22750627   0.155  15.510  55.293
    1STR   H22850628  60.154  15.577  55.273
    1STR   O22950629   0.009  15.426  55.415
    1STR   C23050630   0.034  15.505  55.530
    1STR   H23150631   0.133  15.550  55.525
    1STR   C23250632  60.086  15.614  55.543
    1STR   H23350633  59.986  15.571  55.544
    1STR   H23450634  60.091  15.686  55.461
    1STR   H23550635  60.099  15.671  55.636
    1STR   C23650636   0.032  15.411  55.652
    1STR   H23750637  60.094  15.365  55.662
    1STR   H23850638   0.103  15.330  55.635
    1STR   O23950639   0.066  15.484  55.769
    1STR   C24050640   0.064  15.408  55.890
    1STR   H24150641  60.136  15.343  55.893
    1STR   C24250642   0.192  15.324  55.901
    1STR   H24350643   0.281  15.387  55.894
    1STR   H24450644   0.198  15.248  55.823
    1STR   H24550645   0.196  15.272  55.997
    1STR   C24650646   0.053  15.508  56.006
    1STR   H24750647   0.140  15.574  56.008
    1STR   H24850648  60.125  15.571  55.990
    1STR   O24950649   0.041  15.437  56.129
    1STR   C25050650   0.034  15.519  56.246
    1STR   H25150651   0.106  15.600  56.240
    1STR   C25250652  60.052  15.576  56.261
    1STR   H25350653  59.977  15.496  56.262
    1STR   H25450654  60.026  15.644  56.180
    1STR   H25550655  60.042  15.631  56.354
    1STR   C25650656   0.071  15.430  56.366
    1STR   H25750657  60.160  15.348  56.376
    1STR   H25850658   0.169  15.385  56.347
    1STR   O25950659   0.075  15.509  56.484
    1STR   C26050660   0.105  15.438  56.604
    1STR   H26150661   0.050  15.344  56.606
    1STR   C26250662   0.256  15.412  56.612
    1STR   H26350663   0.313  15.505  56.605
    1STR   H26450664   0.291  15.345  56.533
    1STR   H26550665   0.282  15.365  56.707
    1STR   C26650666   0.056  15.524  56.721
    1STR   H26750667   0.110  15.619  56.723
    1STR   H26850668  60.111  15.547  56.707
    1STR   O26950669   0.076  15.453  56.843
    1STR   C27050670   0.038  15.524  56.961
    1STR   H27150671   0.072  15.627  56.956
    1STR   C27250672  60.045  15.520  56.978
    1STR   H27350673  60.009  15.417  56.979
    1STR   H27450674  59.993  15.573  56.899
    1STR   H27550675  60.016  15.566  57.072
    1STR   C27650676   0.110  15.457  57.080
    1STR   H27750677   0.077  15.353  57.089
    1STR   H27850678   0.217  15.455  57.060
    1STR   O27950679   0.082  15.530  57.199
    1STR   C28050680   0.140  15.475  57.318
    1STR   H28150681   0.127  15.367  57.319
    1STR   C28250682   0.289  15.512  57.325
    1STR   H28350683   0.303  15.619  57.318
    1STR   H28450684   0.347  15.465  57.245
    1STR   H28550685   0.332  15.478  57.419
    1STR   C28650686   0.062  15.533  57.437
    1STR   H28750687   0.073  15.642  57.439
    1STR   H28850688  60.116  15.512  57.424
    1STR   O28950689   0.110  15.475  57.558
    1STR   C29050690   0.049  15.524  57.677
    1STR   H29150691   0.038  15.633  57.672
    1STR   C29250692  60.071  15.458  57.695
    1STR   H29350693  60.079  15.350  57.696
    1STR   H29450694  60.001  15.487  57.617
    1STR   H29550695  60.027  15.488  57.790
    1STR   C29650696   0.143  15.491  57.794
    1STR   H29750697   0.155  15.383  57.802
    1STR   H29850698   0.242  15.532  57.773
    1STR   O29950699   0.091  15.545  57.914
    1STR   C30050700   0.166  15.517  58.031
    1STR   H30150701   0.199  15.413  58.031
    1STR   C30250702   0.288  15.611  58.039
    1STR   H30350703   0.258  15.715  58.034
    1STR   H30450704   0.359  15.593  57.958
    1STR   H30550705   0.343  15.596  58.132
    1STR   C30650706   0.073  15.536  58.152
    1STR   H30750707   0.041  15.640  58.159
    1STR   H30850708  60.144  15.475  58.138
    1STR   O30950709   0.142  15.497  58.271
    1STR    H1R50710   0.013  15.604  58.393
    1STR    H1S50711  60.074  15.396  58.499
    1STR    H1T50712   0.020  15.296  58.402
    1STR    H1U50713  60.054  15.391  58.325
    1STR    H1V50714   0.243  15.587  58.489
    1STR    H1W50715   0.225  15.416  58.510
    1STR    H1X50716   0.011  15.593  58.817
    1STR    H1Y50717  60.031  15.613  59.005
    1STR    H1Z50718  59.948  15.520  59.216
    1STR    H2050719  59.971  15.168  59.315
    1STR    H2150720  60.061  15.288  59.407
    1STR    H2250721  59.898  15.324  59.350
    1STR    H2350722  60.155  15.051  59.089
    1STR    H2750723   0.091  15.247  58.933
    1STR    H2850724  59.819  15.334  46.458
    1STR    H2950725  59.814  15.398  46.226
    1STR    H2A50726  60.087  15.374  45.995
    1STR    H2B50727  59.922  15.429  46.019
    1STR    H2C50728  59.952  15.266  45.959
    1STR   BCK150729   0.099  30.033   0.900
    1STR    O0350730   0.183  29.949   0.870
    1STR    N0450731   0.023  30.028   1.010
    1STR    C0550732   0.013  29.922   1.101
    1STR    C0650733   0.032  29.944   1.240
    1STR    C0750734   0.018  29.839   1.335
    1STR    N0850735   0.034  29.866   1.473
    1STR    C0950736   0.038  29.783   1.578
    1STR    O0A50737   0.033  29.661   1.571
    1STR    O0B50738   0.050  29.850   1.696
    1STR    C0C50739   0.063  29.777   1.819
    1STR    C0D50740   0.210  29.735   1.837
    1STR    C0E50741   0.014  29.861   1.939
    1STR    O0F50742   0.026  29.784   2.059
    1STR    C0G50743  60.143  29.847   2.180
    1STR    C0H50744  59.989  29.841   2.188
    1STR    C0I50745   0.047  29.774   2.300
    1STR    O0J50746   0.011  29.839   2.422
    1STR    C0K50747  59.796  29.788  13.268
    1STR    C0M50748  59.949  29.800  13.279
    1STR    C0N50749  59.725  29.865  13.380
    1STR    O0O50750  59.744  29.801  13.505
    1STR    C0P50751  59.834  29.846  13.594
    1STR    O0Q50752  59.907  29.943  13.578
    1STR    N0R50753  59.829  29.768  13.701
    1STR    C0S50754  59.899  29.767  13.821
    1STR    C0T50755  59.870  29.661  13.909
    1STR    C0U50756  59.938  29.647  14.030
    1STR    C0V50757  60.038  29.739  14.067
    1STR    C0W50758  60.118  29.710  14.193
    1STR    C0X50759  60.065  29.851  13.984
    1STR    N0Y50760   0.005  29.941  14.019
    1STR   BCK250761   0.015  30.009  14.134
    1STR    O1050762  60.085  30.022  14.216
    1STR    C1350763  59.997  29.862  13.860
    1STR    C1450764  60.142  29.711   1.287
    1STR    C1550765  60.121  29.688   1.150
    1STR    C1650766  60.133  29.793   1.057
    1STR    C1750767  60.099  29.764   0.912
    1STR    H1B50768  60.127  30.109   1.026
    1STR    H1C50769   0.060  30.043   1.272
    1STR    H1D50770   0.046  29.962   1.500
    1STR    H1E50771   0.000  29.688   1.814
    1STR    H1F50772   0.276  29.821   1.843
    1STR    H1G50773   0.222  29.676   1.928
    1STR    H1H50774   0.243  29.672   1.753
    1STR    H1I50775  60.070  29.889   1.922
    1STR    H1J50776   0.071  29.953   1.947
    1STR    H1K50777   0.017  29.951   2.182
    1STR    H1M50778  59.953  29.739   2.182
    1STR    H1N50779  59.941  29.898   2.109
    1STR    H1O50780  59.954  29.883   2.283
    1STR    H1P50781   0.014  29.670   2.302
    1STR    H1Q50782   0.155  29.773   2.288
    1STR   C01050783   0.059  29.779   2.542
    1STR   H01150784   0.045  29.671   2.538
    1STR   C01250785   0.209  29.811   2.560
    1STR   H01350786   0.226  29.919   2.560
    1STR   H01450787   0.270  29.766   2.483
    1STR   H01550788   0.245  29.773   2.656
    1STR   C01650789  60.136  29.834   2.660
    1STR   H01750790  60.148  29.942   2.666
    1STR   H01850791  60.031  29.814   2.641
    1STR   O01950792   0.016  29.772   2.783
    1STR   C02050793  60.108  29.818   2.900
    1STR   H02150794  60.100  29.927   2.898
    1STR   C02250795  59.969  29.755   2.908
    1STR   H02350796  59.975  29.646   2.905
    1STR   H02450797  59.904  29.787   2.826
    1STR   H02550798  59.919  29.783   3.000
    1STR   C02650799   0.033  29.780   3.023
    1STR   H02750800   0.043  29.672   3.029
    1STR   H02850801   0.133  29.821   3.011
    1STR   O02950802  60.132  29.832   3.142
    1STR   C03050803   0.039  29.800   3.264
    1STR   H03150804   0.069  29.695   3.264
    1STR   C03250805   0.161  29.890   3.282
    1STR   H03350806   0.133  29.995   3.278
    1STR   H03450807   0.237  29.873   3.206
    1STR   H03550808   0.209  29.872   3.379
    1STR   C03650809  60.098  29.819   3.379
    1STR   H03750810  60.066  29.923   3.384
    1STR   H03850811  60.009  29.759   3.359
    1STR   O03950812  60.158  29.780   3.503
    1STR   C04050813  60.077  29.797   3.619
    1STR   H04150814  60.025  29.893   3.615
    1STR   C04250815  59.974  29.683   3.627
    1STR   H04350816  60.023  29.585   3.627
    1STR   H04450817  59.902  29.685   3.545
    1STR   H04550818  59.916  29.690   3.720
    1STR   C04650819   0.009  29.797   3.742
    1STR   H04750820   0.061  29.702   3.750
    1STR   H04850821   0.085  29.874   3.729
    1STR   O04950822  60.093  29.822   3.860
    1STR   C05050823   0.006  29.822   3.982
    1STR   H05150824   0.076  29.738   3.983
    1STR   C05250825   0.083  29.954   3.998
    1STR   H05350826   0.015  30.039   3.992
    1STR   H05450827   0.159  29.967   3.921
    1STR   H05550828   0.133  29.958   4.094
    1STR   C05650829  60.066  29.801   4.097
    1STR   H05750830  59.995  29.884   4.100
    1STR   H05850831  60.009  29.710   4.078
    1STR   O05950832  60.137  29.791   4.220
    1STR   C06050833  60.055  29.775   4.336
    1STR   H06150834  59.969  29.842   4.331
    1STR   C06250835  60.007  29.629   4.347
    1STR   H06350836  60.091  29.560   4.347
    1STR   H06450837  59.941  29.601   4.264
    1STR   H06550838  59.951  29.614   4.439
    1STR   C06650839  60.139  29.815   4.458
    1STR   H06750840   0.065  29.749   4.467
    1STR   H06850841   0.018  29.916   4.443
    1STR   O06950842  60.058  29.810   4.576
    1STR   C07050843  60.126  29.841   4.697
    1STR   H07150844   0.064  29.792   4.700
    1STR   C07250845  60.143  29.993   4.710
    1STR   H07350846  60.047  30.044   4.703
    1STR   H07450847   0.048  30.034   4.634
    1STR   H07550848   0.027  30.019   4.807
    1STR   C07650849  60.042  29.783   4.812
    1STR   H07750850  59.944  29.831   4.814
    1STR   H07850851  60.026  29.677   4.795
    1STR   O07950852  60.110  29.804   4.936
    1STR   C08050853  60.041  29.759   5.052
    1STR   H08150854  59.935  29.786   5.046
    1STR   C08250855  60.055  29.606   5.065
    1STR   H08350856  60.159  29.576   5.066
    1STR   H08450857  60.006  29.553   4.984
    1STR   H08550858  60.009  29.571   5.158
    1STR   C08650859  60.102  29.831   5.173
    1STR   H08750860   0.047  29.805   5.183
    1STR   H08850861  60.097  29.939   5.156
    1STR   O08950862  60.029  29.796   5.291
    1STR   C09050863  60.079  29.854   5.411
    1STR   H09150864   0.028  29.848   5.414
    1STR   C09250865  60.033  30.000   5.422
    1STR   H09350866  59.925  30.008   5.415
    1STR   H09450867  60.077  30.063   5.345
    1STR   H09550868  60.063  30.043   5.518
    1STR   C09650869  60.024  29.769   5.528
    1STR   H09750870  59.915  29.774   5.529
    1STR   H09850871  60.051  29.665   5.512
    1STR   O09950872  60.078  29.817   5.651
    1STR   C10050873  60.032  29.750   5.767
    1STR   H10150874  59.924  29.733   5.762
    1STR   C10250875  60.106  29.615   5.783
    1STR   H10350876   0.054  29.630   5.784
    1STR   H10450877  60.082  29.546   5.702
    1STR   H10550878  60.077  29.567   5.876
    1STR   C10650879  60.059  29.842   5.887
    1STR   H10750880   0.006  29.860   5.897
    1STR   H10850881  60.012  29.939   5.869
    1STR   O10950882  60.006  29.783   6.006
    1STR   C11050883  60.028  29.858   6.125
    1STR   H11150884  60.130  29.896   6.128
    1STR   C11250885  59.928  29.974   6.134
    1STR   H11350886  59.825  29.938   6.127
    1STR   H11450887  59.943  30.047   6.055
    1STR   H11550888  59.938  30.026   6.229
    1STR   C11650889  60.011  29.760   6.243
    1STR   H11750890  59.909  29.721   6.245
    1STR   H11850891  60.078  29.676   6.229
    1STR   O11950892  60.041  29.828   6.365
    1STR   C12050893  60.026  29.750   6.483
    1STR   H12150894  59.934  29.691   6.478
    1STR   C12250895  60.147  29.657   6.500
    1STR   H12350896   0.080  29.713   6.501
    1STR   H12450897  60.153  29.582   6.421
    1STR   H12550898  60.140  29.602   6.595
    1STR   C12650899  60.013  29.847   6.601
    1STR   H12750900  60.104  29.907   6.611
    1STR   H12850901  59.931  29.917   6.581
    1STR   O12950902  59.988  29.774   6.721
    1STR   C13050903  59.977  29.853   6.839
    1STR   H13150904  60.056  29.929   6.840
    1STR   C13250905  59.839  29.920   6.846
    1STR   H13350906  59.759  29.846   6.839
    1STR   H13450907  59.824  29.992   6.766
    1STR   H13550908  59.827  29.973   6.940
    1STR   C13650909  60.000  29.759   6.958
    1STR   H13750910  59.923  29.683   6.961
    1STR   H13850911  60.096  29.708   6.945
    1STR   O13950912  60.001  29.835   7.079
    1STR   C14050913  60.017  29.759   7.198
    1STR   H14150914  59.956  29.669   7.194
    1STR   C14250915   0.005  29.722   7.217
    1STR   H14350916   0.068  29.811   7.216
    1STR   H14450917   0.041  29.655   7.139
    1STR   H14550918   0.021  29.671   7.312
    1STR   C14650919  59.966  29.845   7.315
    1STR   H14750920  60.026  29.936   7.323
    1STR   H14850921  59.863  29.876   7.294
    1STR   O14950922  59.971  29.770   7.436
    1STR   C15050923  59.930  29.840   7.553
    1STR   H15150924  59.972  29.941   7.553
    1STR   C15250925  59.777  29.846   7.559
    1STR   H15350926  59.733  29.746   7.554
    1STR   H15450927  59.734  29.905   7.478
    1STR   H15550928  59.744  29.892   7.652
    1STR   C15650929  59.989  29.765   7.674
    1STR   H15750930  59.948  29.664   7.678
    1STR   H15850931  60.096  29.756   7.661
    1STR   O15950932  59.958  29.837   7.793
    1STR   C16050933  60.003  29.775   7.913
    1STR   H16150934  59.984  29.668   7.911
    1STR   C16250935  60.154  29.801   7.932
    1STR   H16350936   0.016  29.908   7.930
    1STR   H16450937   0.053  29.753   7.855
    1STR   H16550938   0.028  29.762   8.028
    1STR   C16650939  59.921  29.836   8.029
    1STR   H16750940  59.940  29.943   8.035
    1STR   H16850941  59.815  29.823   8.007
    1STR   O16950942  59.956  29.771   8.151
    1STR   C17050943  59.890  29.820   8.267
    1STR   H17150944  59.887  29.929   8.265
    1STR   C17250945  59.747  29.764   8.273
    1STR   H17350946  59.747  29.655   8.270
    1STR   H17450947  59.685  29.800   8.191
    1STR   H17550948  59.698  29.794   8.366
    1STR   C17650949  59.973  29.777   8.388
    1STR   H17750950  59.976  29.668   8.394
    1STR   H17850951  60.076  29.811   8.376
    1STR   O17950952  59.916  29.832   8.507
    1STR   C18050953  59.981  29.796   8.628
    1STR   H18150954  60.006  29.690   8.628
    1STR   C18250955  60.109  29.880   8.646
    1STR   H18350956  60.087  29.987   8.642
    1STR   H18450957   0.023  29.858   8.569
    1STR   H18550958  60.155  29.860   8.742
    1STR   C18650959  59.882  29.821   8.743
    1STR   H18750960  59.856  29.927   8.747
    1STR   H18850961  59.790  29.766   8.722
    1STR   O18950962  59.939  29.777   8.866
    1STR   C19050963  59.858  29.799   8.981
    1STR   H19150964  59.813  29.898   8.977
    1STR   C19250965  59.749  29.690   8.989
    1STR   H19350966  59.793  29.591   8.988
    1STR   H19450967  59.678  29.697   8.906
    1STR   H19550968  59.692  29.700   9.081
    1STR   C19650969  59.951  29.794   9.103
    1STR   H19750970  59.998  29.695   9.111
    1STR   H19850971  60.032  29.866   9.090
    1STR   O19950972  59.876  29.824   9.221
    1STR   C20050973  59.950  29.819   9.342
    1STR   H20150974  60.016  29.731   9.343
    1STR   C20250975  60.034  29.947   9.358
    1STR   H20350976  59.970  30.036   9.353
    1STR   H20450977  60.111  29.956   9.282
    1STR   H20550978  60.084  29.948   9.455
    1STR   C20650979  59.849  29.803   9.457
    1STR   H20750980  59.783  29.890   9.460
    1STR   H20850981  59.787  29.716   9.437
    1STR   O20950982  59.919  29.788   9.580
    1STR   C21050983  59.836  29.777   9.695
    1STR   H21150984  59.754  29.849   9.691
    1STR   C21250985  59.780  29.634   9.706
    1STR   H21350986  59.860  29.560   9.706
    1STR   H21450987  59.712  29.610   9.623
    1STR   H21550988  59.723  29.622   9.798
    1STR   C21650989  59.922  29.812   9.818
    1STR   H21750990  60.004  29.740   9.827
    1STR   H21850991  59.967  29.910   9.802
    1STR   O21950992  59.841  29.811   9.935
    1STR   C22050993  59.911  29.838  10.056
    1STR   H22150994  60.006  29.784  10.059
    1STR   C22250995  59.935  29.989  10.070
    1STR   H22350996  59.842  30.045  10.063
    1STR   H22450997  60.003  30.027   9.993
    1STR   H22550998  59.981  30.013  10.166
    1STR   C22650999  59.823  29.785  10.171
    1STR   H22751000  59.728  29.838  10.173
    1STR   H22851001  59.801  29.680  10.154
    1STR   O22951002  59.893  29.801  10.295
    1STR   C23051003  59.821  29.760  10.410
    1STR   H23151004  59.717  29.793  10.405
    1STR   C23251005  59.827  29.607  10.423
    1STR   H23351006  59.930  29.571  10.424
    1STR   H23451007  59.775  29.557  10.342
    1STR   H23551008  59.779  29.574  10.516
    1STR   C23651009  59.886  29.828  10.532
    1STR   H23751010  59.990  29.796  10.542
    1STR   H23851011  59.888  29.936  10.515
    1STR   O23951012  59.812  29.797  10.649
    1STR   C24051013  59.864  29.852  10.770
    1STR   H24151014  59.973  29.840  10.773
    1STR   C24251015  59.826  30.001  10.781
    1STR   H24351016  59.719  30.014  10.774
    1STR   H24451017  59.873  30.061  10.703
    1STR   H24551018  59.858  30.041  10.877
    1STR   C24651019  59.805  29.770  10.886
    1STR   H24751020  59.696  29.781  10.887
    1STR   H24851021  59.827  29.665  10.870
    1STR   O24951022  59.862  29.815  11.009
    1STR   C25051023  59.812  29.750  11.125
    1STR   H25151024  59.704  29.739  11.120
    1STR   C25251025  59.878  29.612  11.141
    1STR   H25351026  59.987  29.620  11.142
    1STR   H25451027  59.851  29.544  11.060
    1STR   H25551028  59.847  29.565  11.234
    1STR   C25651029  59.844  29.841  11.245
    1STR   H25751030  59.952  29.853  11.256
    1STR   H25851031  59.803  29.940  11.227
    1STR   O25951032  59.788  29.785  11.364
    1STR   C26051033  59.814  29.857  11.483
    1STR   H26151034  59.918  29.890  11.486
    1STR   C26251035  59.720  29.979  11.492
    1STR   H26351036  59.615  29.949  11.485
    1STR   H26451037  59.739  30.052  11.413
    1STR   H26551038  59.733  30.031  11.587
    1STR   C26651039  59.791  29.761  11.601
    1STR   H26751040  59.688  29.727  11.602
    1STR   H26851041  59.854  29.673  11.586
    1STR   O26951042  59.825  29.826  11.723
    1STR   C27051043  59.805  29.749  11.841
    1STR   H27151044  59.710  29.696  11.835
    1STR   C27251045  59.921  29.649  11.858
    1STR   H27351046  60.017  29.700  11.859
    1STR   H27451047  59.924  29.575  11.778
    1STR   H27551048  59.911  29.595  11.952
    1STR   C27651049  59.798  29.847  11.959
    1STR   H27751050  59.892  29.901  11.968
    1STR   H27851051  59.720  29.921  11.939
    1STR   O27951052  59.768  29.775  12.078
    1STR   C28051053  59.762  29.853  12.196
    1STR   H28151054  59.845  29.925  12.198
    1STR   C28251055  59.628  29.927  12.204
    1STR   H28351056  59.544  29.857  12.197
    1STR   H28451057  59.616  30.000  12.124
    1STR   H28551058  59.618  29.981  12.298
    1STR   C28651059  59.781  29.758  12.315
    1STR   H28751060  59.699  29.685  12.317
    1STR   H28851061  59.873  29.702  12.302
    1STR   O28951062  59.785  29.833  12.436
    1STR   C29051063  59.797  29.755  12.555
    1STR   H29151064  59.731  29.668  12.550
    1STR   C29251065  59.942  29.711  12.574
    1STR   H29351066  60.010  29.796  12.574
    1STR   H29451067  59.975  29.642  12.496
    1STR   H29551068  59.955  29.659  12.669
    1STR   C29651069  59.750  29.844  12.671
    1STR   H29751070  59.814  29.932  12.679
    1STR   H29851071  59.649  29.881  12.650
    1STR   O29951072  59.751  29.769  12.792
    1STR   C30051073  59.715  29.842  12.908
    1STR   H30151074  59.760  29.941  12.906
    1STR   C30251075  59.562  29.855  12.917
    1STR   H30351076  59.514  29.757  12.913
    1STR   H30451077  59.521  29.915  12.835
    1STR   H30551078  59.532  29.903  13.010
    1STR   C30651079  59.772  29.767  13.029
    1STR   H30751080  59.724  29.669  13.039
    1STR   H30851081  59.878  29.750  13.013
    1STR   O30951082  59.751  29.846  13.146
    1STR    H1R51083  59.766  29.684  13.273
    1STR    H1S51084  59.985  29.760  13.373
    1STR    H1T51085  59.981  29.905  13.275
    1STR    H1U51086  60.001  29.747  13.199
    1STR    H1V51087  59.618  29.866  13.361
    1STR    H1W51088  59.755  29.970  13.383
    1STR    H1X51089  59.760  29.696  13.687
    1STR    H1Y51090  59.795  29.587  13.883
    1STR    H1Z51091  59.916  29.563  14.094
    1STR    H2051092   0.064  29.718  14.170
    1STR    H2151093  60.093  29.781  14.272
    1STR    H2251094  60.100  29.610  14.231
    1STR    H2351095   0.080  29.957  13.953
    1STR    H2751096  60.020  29.945  13.794
    1STR    H2851097  60.129  29.627   1.353
    1STR    H2951098  60.092  29.590   1.117
    1STR    H2A51099  60.047  29.848   0.866
    1STR    H2B51100  60.034  29.677   0.903
    1STR    H2C51101   0.030  29.744   0.855
    1STR   BCK151102   0.078  30.154  15.933
    1STR    O0351103   0.044  30.268  15.901
    1STR    N0451104   0.123  30.119  16.053
    1STR    C0551105   0.172  30.207  16.149
    1STR    C0651106   0.128  30.199  16.284
    1STR    C0751107   0.182  30.284  16.385
    1STR    N0851108   0.140  30.269  16.518
    1STR    C0951109   0.190  30.325  16.630
    1STR    O0A51110   0.283  30.405  16.633
    1STR    O0B51111   0.124  30.284  16.741
    1STR    C0C51112   0.157  30.345  16.867
    1STR    C0D51113   0.075  30.474  16.883
    1STR    C0E51114   0.133  30.248  16.985
    1STR    O0F51115   0.176  30.313  17.105
    1STR    C0G51116   0.168  30.237  17.225
    1STR    C0H51117   0.286  30.139  17.232
    1STR    C0I51118   0.170  30.335  17.344
    1STR    O0J51119   0.153  30.263  17.466
    1STR    C0K51120   0.481  30.054  28.302
    1STR    C0M51121   0.354  30.139  28.319
    1STR    C0N51122   0.499  29.951  28.415
    1STR    O0O51123   0.531  30.017  28.537
    1STR    C0P51124   0.435  30.041  28.627
    1STR    O0Q51125   0.318  30.006  28.617
    1STR    N0R51126   0.487  30.110  28.728
    1STR    C0S51127   0.427  30.159  28.844
    1STR    C0T51128   0.496  30.258  28.918
    1STR    C0U51129   0.440  30.312  29.036
    1STR    C0V51130   0.315  30.266  29.083
    1STR    C0W51131   0.256  30.327  29.209
    1STR    C0X51132   0.248  30.164  29.013
    1STR    N0Y51133   0.129  30.112  29.061
    1STR   BCK251134   0.117  30.026  29.163
    1STR    O1051135   0.007  29.986  29.199
    1STR    C1351136   0.303  30.113  28.893
    1STR    C1451137   0.277  30.380  16.345
    1STR    C1551138   0.324  30.387  16.213
    1STR    C1651139   0.275  30.299  16.115
    1STR    C1751140   0.340  30.302  15.977
    1STR    H1B51141   0.135  30.020  16.069
    1STR    H1C51142   0.052  30.127  16.309
    1STR    H1D51143   0.064  30.207  16.538
    1STR    H1E51144   0.263  30.370  16.869
    1STR    H1F51145  60.128  30.454  16.883
    1STR    H1G51146   0.101  30.525  16.975
    1STR    H1H51147   0.096  30.543  16.801
    1STR    H1I51148   0.191  30.157  16.968
    1STR    H1J51149   0.028  30.220  16.992
    1STR    H1K51150   0.073  30.182  17.228
    1STR    H1M51151   0.381  30.191  17.225
    1STR    H1N51152   0.283  30.064  17.153
    1STR    H1O51153   0.285  30.085  17.327
    1STR    H1P51154   0.265  30.390  17.345
    1STR    H1Q51155   0.091  30.408  17.331
    1STR   C01051156   0.159  30.341  17.585
    1STR   H01151157   0.243  30.411  17.581
    1STR   C01251158   0.027  30.419  17.604
    1STR   H01351159  60.101  30.351  17.603
    1STR   H01451160   0.012  30.493  17.526
    1STR   H01551161   0.027  30.472  17.699
    1STR   C01651162   0.183  30.245  17.703
    1STR   H01751163   0.101  30.173  17.710
    1STR   H01851164   0.274  30.188  17.683
    1STR   O01951165   0.196  30.318  17.825
    1STR   C02051166   0.215  30.238  17.942
    1STR   H02151167   0.148  30.152  17.940
    1STR   C02251168   0.361  30.190  17.950
    1STR   H02351169   0.430  30.275  17.947
    1STR   H02451170   0.387  30.123  17.868
    1STR   H02551171   0.379  30.136  18.042
    1STR   C02651172   0.178  30.323  18.065
    1STR   H02751173   0.244  30.410  18.071
    1STR   H02851174   0.077  30.361  18.053
    1STR   O02951175   0.188  30.244  18.184
    1STR   C03051176   0.161  30.313  18.306
    1STR   H03151177   0.209  30.411  18.305
    1STR   C03251178   0.009  30.329  18.323
    1STR   H03351179  60.119  30.232  18.319
    1STR   H03451180  60.125  30.393  18.247
    1STR   H03551181  60.146  30.374  18.420
    1STR   C03651182   0.222  30.231  18.421
    1STR   H03751183   0.175  30.132  18.425
    1STR   H03851184   0.328  30.215  18.401
    1STR   O03951185   0.204  30.300  18.544
    1STR   C04051186   0.253  30.233  18.660
    1STR   H04151187   0.226  30.127  18.656
    1STR   C04251188   0.406  30.247  18.668
    1STR   H04351189   0.435  30.352  18.668
    1STR   H04451190   0.457  30.197  18.586
    1STR   H04551191   0.444  30.203  18.761
    1STR   C04651192   0.184  30.295  18.783
    1STR   H04751193   0.210  30.400  18.791
    1STR   H04851194   0.076  30.289  18.769
    1STR   O04951195   0.223  30.224  18.900
    1STR   C05051196   0.169  30.275  19.022
    1STR   H05151197   0.174  30.384  19.024
    1STR   C05251198   0.024  30.229  19.038
    1STR   H05351199   0.016  30.120  19.032
    1STR   H05451200  60.118  30.271  18.962
    1STR   H05551201  60.144  30.259  19.135
    1STR   C05651202   0.257  30.222  19.137
    1STR   H05751203   0.254  30.113  19.140
    1STR   H05851204   0.361  30.250  19.118
    1STR   O05951205   0.213  30.277  19.261
    1STR   C06051206   0.284  30.234  19.376
    1STR   H06151207   0.301  30.126  19.371
    1STR   C06251208   0.418  30.308  19.387
    1STR   H06351209   0.402  30.416  19.387
    1STR   H06451210   0.485  30.284  19.305
    1STR   H06551211   0.469  30.282  19.479
    1STR   C06651212   0.194  30.261  19.498
    1STR   H06751213   0.176  30.368  19.508
    1STR   H06851214   0.098  30.213  19.483
    1STR   O06951215   0.257  30.211  19.616
    1STR   C07051216   0.187  30.233  19.737
    1STR   H07151217   0.148  30.335  19.740
    1STR   C07251218   0.071  30.133  19.751
    1STR   H07351219   0.108  30.030  19.744
    1STR   H07451220  60.155  30.147  19.674
    1STR   H07551221   0.022  30.144  19.847
    1STR   C07651222   0.287  30.219  19.853
    1STR   H07751223   0.327  30.117  19.855
    1STR   H07851224   0.371  30.286  19.835
    1STR   O07951225   0.223  30.250  19.976
    1STR   C08051226   0.305  30.236  20.092
    1STR   H08151227   0.364  30.145  20.086
    1STR   C08251228   0.398  30.358  20.105
    1STR   H08351229   0.341  30.451  20.106
    1STR   H08451230   0.470  30.364  20.024
    1STR   H08551231   0.455  30.353  20.198
    1STR   C08651232   0.211  30.224  20.213
    1STR   H08751233   0.151  30.315  20.223
    1STR   H08851234   0.142  30.142  20.196
    1STR   O08951235   0.288  30.201  20.331
    1STR   C09051236   0.213  30.192  20.452
    1STR   H09151237   0.136  30.270  20.454
    1STR   C09251238   0.147  30.053  20.462
    1STR   H09351239   0.222  29.974  20.455
    1STR   H09451240   0.073  30.037  20.385
    1STR   H09551241   0.097  30.042  20.558
    1STR   C09651242   0.310  30.217  20.568
    1STR   H09751243   0.387  30.140  20.569
    1STR   H09851244   0.360  30.313  20.552
    1STR   O09951245   0.238  30.219  20.691
    1STR   C10051246   0.317  30.237  20.808
    1STR   H10151247   0.408  30.177  20.802
    1STR   C10251248   0.353  30.386  20.823
    1STR   H10351249   0.264  30.448  20.824
    1STR   H10451250   0.418  30.421  20.742
    1STR   H10551251   0.407  30.403  20.916
    1STR   C10651252   0.235  30.187  20.927
    1STR   H10751253   0.144  30.246  20.937
    1STR   H10851254   0.204  30.084  20.908
    1STR   O10951255   0.314  30.195  21.046
    1STR   C11051256   0.247  30.155  21.165
    1STR   H11151257   0.146  30.195  21.168
    1STR   C11251258   0.243  30.001  21.174
    1STR   H11351259   0.343  29.959  21.166
    1STR   H11451260   0.182  29.957  21.095
    1STR   H11551261   0.200  29.969  21.269
    1STR   C11651262   0.325  30.215  21.283
    1STR   H11751263   0.427  30.175  21.285
    1STR   H11851264   0.333  30.323  21.269
    1STR   O11951265   0.258  30.186  21.405
    1STR   C12051266   0.322  30.233  21.523
    1STR   H12151267   0.429  30.214  21.518
    1STR   C12251268   0.296  30.383  21.540
    1STR   H12351269   0.189  30.405  21.541
    1STR   H12451270   0.341  30.442  21.461
    1STR   H12551271   0.337  30.419  21.635
    1STR   C12651272   0.265  30.152  21.641
    1STR   H12751273   0.158  30.170  21.651
    1STR   H12851274   0.279  30.046  21.621
    1STR   O12951275   0.334  30.189  21.761
    1STR   C13051276   0.288  30.124  21.879
    1STR   H13151277   0.179  30.121  21.880
    1STR   C13251278   0.345  29.981  21.886
    1STR   H13351279   0.454  29.982  21.879
    1STR   H13451280   0.307  29.918  21.805
    1STR   H13551281   0.318  29.933  21.980
    1STR   C13651282   0.334  30.209  21.998
    1STR   H13751283   0.443  30.213  22.001
    1STR   H13851284   0.299  30.311  21.985
    1STR   O13951285   0.283  30.153  22.119
    1STR   C14051286   0.322  30.220  22.238
    1STR   H14151287   0.428  30.246  22.234
    1STR   C14251288   0.238  30.347  22.257
    1STR   H14351289   0.131  30.324  22.256
    1STR   H14451290   0.256  30.421  22.179
    1STR   H14551291   0.261  30.395  22.352
    1STR   C14651292   0.302  30.122  22.355
    1STR   H14751293   0.196  30.095  22.363
    1STR   H14851294   0.357  30.030  22.334
    1STR   O14951295   0.349  30.181  22.476
    1STR   C15051296   0.332  30.102  22.593
    1STR   H15151297   0.233  30.055  22.593
    1STR   C15251298   0.441  29.994  22.599
    1STR   H15351299   0.540  30.038  22.594
    1STR   H15451300   0.432  29.922  22.518
    1STR   H15551301   0.434  29.938  22.692
    1STR   C15651302   0.339  30.196  22.714
    1STR   H15751303   0.438  30.244  22.718
    1STR   H15851304   0.266  30.276  22.701
    1STR   O15951305   0.313  30.123  22.833
    1STR   C16051306   0.321  30.199  22.953
    1STR   H16151307   0.408  30.265  22.951
    1STR   C16251308   0.193  30.281  22.972
    1STR   H16351309   0.105  30.218  22.970
    1STR   H16451310   0.182  30.357  22.895
    1STR   H16551311   0.194  30.333  23.068
    1STR   C16651312   0.341  30.099  23.069
    1STR   H16751313   0.255  30.032  23.075
    1STR   H16851314   0.428  30.037  23.047
    1STR   O16951315   0.359  30.170  23.191
    1STR   C17051316   0.374  30.089  23.307
    1STR   H17151317   0.302  30.007  23.305
    1STR   C17251318   0.518  30.034  23.313
    1STR   H17351319   0.591  30.114  23.310
    1STR   H17451320   0.539  29.966  23.231
    1STR   H17551321   0.533  29.979  23.406
    1STR   C17651322   0.342  30.177  23.428
    1STR   H17751323   0.414  30.260  23.434
    1STR   H17851324   0.243  30.221  23.416
    1STR   O17951325   0.347  30.098  23.547
    1STR   C18051326   0.323  30.169  23.668
    1STR   H18151327   0.377  30.264  23.667
    1STR   C18251328   0.173  30.193  23.686
    1STR   H18351329   0.117  30.099  23.682
    1STR   H18451330   0.132  30.259  23.609
    1STR   H18551331   0.152  30.240  23.782
    1STR   C18651332   0.380  30.083  23.782
    1STR   H18751333   0.328  29.988  23.787
    1STR   H18851334   0.485  30.061  23.762
    1STR   O18951335   0.367  30.154  23.905
    1STR   C19051336   0.413  30.084  24.021
    1STR   H19151337   0.379  29.980  24.017
    1STR   C19251338   0.566  30.090  24.029
    1STR   H19351339   0.601  30.193  24.028
    1STR   H19451340   0.614  30.037  23.946
    1STR   H19551341   0.602  30.044  24.121
    1STR   C19651342   0.347  30.150  24.143
    1STR   H19751343   0.379  30.254  24.151
    1STR   H19851344   0.239  30.151  24.130
    1STR   O19951345   0.382  30.078  24.261
    1STR   C20051346   0.331  30.131  24.382
    1STR   H20151347   0.342  30.240  24.383
    1STR   C20251348   0.183  30.093  24.398
    1STR   H20351349   0.170  29.985  24.393
    1STR   H20451350   0.120  30.138  24.322
    1STR   H20551351   0.145  30.126  24.495
    1STR   C20651352   0.416  30.074  24.497
    1STR   H20751353   0.407  29.966  24.500
    1STR   H20851354   0.521  30.096  24.477
    1STR   O20951355   0.375  30.132  24.620
    1STR   C21051356   0.444  30.085  24.735
    1STR   H21151357   0.455  29.976  24.731
    1STR   C21251358   0.582  30.152  24.746
    1STR   H21351359   0.573  30.260  24.746
    1STR   H21451360   0.647  30.124  24.663
    1STR   H21551361   0.632  30.123  24.838
    1STR   C21651362   0.356  30.117  24.857
    1STR   H21751363   0.344  30.225  24.867
    1STR   H21851364   0.257  30.075  24.842
    1STR   O21951365   0.417  30.063  24.975
    1STR   C22051366   0.347  30.090  25.096
    1STR   H22151367   0.314  30.194  25.099
    1STR   C22251368   0.227  29.995  25.110
    1STR   H22351369   0.258  29.891  25.103
    1STR   H22451370   0.152  30.013  25.033
    1STR   H22551371   0.178  30.009  25.206
    1STR   C22651372   0.447  30.070  25.211
    1STR   H22751373   0.482  29.967  25.213
    1STR   H22851374   0.535  30.133  25.193
    1STR   O22951375   0.385  30.105  25.335
    1STR   C23051376   0.466  30.087  25.450
    1STR   H23151377   0.520  29.992  25.444
    1STR   C23251378   0.566  30.204  25.463
    1STR   H23351379   0.514  30.300  25.464
    1STR   H23451380   0.638  30.205  25.382
    1STR   H23551381   0.623  30.196  25.556
    1STR   C23651382   0.372  30.081  25.571
    1STR   H23751383   0.317  30.175  25.581
    1STR   H23851384   0.298  30.002  25.555
    1STR   O23951385   0.448  30.053  25.689
    1STR   C24051386   0.372  30.048  25.810
    1STR   H24151387   0.300  30.130  25.812
    1STR   C24251388   0.300  29.913  25.821
    1STR   H24351389   0.370  29.830  25.813
    1STR   H24451390   0.224  29.901  25.743
    1STR   H24551391   0.248  29.905  25.917
    1STR   C24651392   0.471  30.069  25.926
    1STR   H24751393   0.544  29.988  25.927
    1STR   H24851394   0.526  30.161  25.910
    1STR   O24951395   0.399  30.074  26.049
    1STR   C25051396   0.480  30.088  26.165
    1STR   H25151397   0.567  30.023  26.159
    1STR   C25251398   0.524  30.235  26.180
    1STR   H25351399   0.438  30.302  26.182
    1STR   H25451400   0.590  30.266  26.100
    1STR   H25551401   0.579  30.249  26.274
    1STR   C25651402   0.395  30.043  26.285
    1STR   H25751403   0.307  30.107  26.295
    1STR   H25851404   0.358  29.942  26.266
    1STR   O25951405   0.474  30.046  26.403
    1STR   C26051406   0.406  30.010  26.522
    1STR   H26151407   0.307  30.057  26.525
    1STR   C26251408   0.393  29.857  26.531
    1STR   H26351409   0.490  29.809  26.524
    1STR   H26451410   0.329  29.817  26.453
    1STR   H26551411   0.348  29.828  26.627
    1STR   C26651412   0.487  30.066  26.640
    1STR   H26751413   0.587  30.021  26.642
    1STR   H26851414   0.501  30.174  26.625
    1STR   O26951415   0.418  30.041  26.762
    1STR   C27051416   0.485  30.085  26.879
    1STR   H27151417   0.591  30.060  26.874
    1STR   C27251418   0.468  30.236  26.897
    1STR   H27351419   0.362  30.264  26.898
    1STR   H27451420   0.516  30.293  26.817
    1STR   H27551421   0.511  30.270  26.991
    1STR   C27651422   0.425  30.007  26.997
    1STR   H27751423   0.319  30.031  27.007
    1STR   H27851424   0.432  29.900  26.977
    1STR   O27951425   0.495  30.040  27.116
    1STR   C28051426   0.446  29.978  27.234
    1STR   H28151427   0.337  29.981  27.236
    1STR   C28251428   0.496  29.833  27.242
    1STR   H28351429   0.604  29.828  27.236
    1STR   H28451430   0.455  29.771  27.163
    1STR   H28551431   0.466  29.787  27.337
    1STR   C28651432   0.497  30.062  27.353
    1STR   H28751433   0.606  30.060  27.355
    1STR   H28851434   0.467  30.166  27.339
    1STR   O28951435   0.443  30.009  27.473
    1STR   C29051436   0.487  30.074  27.592
    1STR   H29151437   0.594  30.093  27.587
    1STR   C29251438   0.410  30.205  27.612
    1STR   H29351439   0.302  30.188  27.613
    1STR   H29451440   0.431  30.278  27.533
    1STR   H29551441   0.436  30.252  27.707
    1STR   C29651442   0.462  29.976  27.707
    1STR   H29751443   0.355  29.956  27.717
    1STR   H29851444   0.511  29.881  27.686
    1STR   O29951445   0.513  30.032  27.827
    1STR   C30051446   0.491  29.955  27.944
    1STR   H30151447   0.390  29.913  27.944
    1STR   C30251448   0.595  29.841  27.952
    1STR   H30351449   0.696  29.881  27.949
    1STR   H30451450   0.583  29.770  27.871
    1STR   H30551451   0.584  29.786  28.045
    1STR   C30651452   0.503  30.050  28.063
    1STR   H30751453   0.603  30.092  28.068
    1STR   H30851454   0.433  30.133  28.049
    1STR   O30951455   0.472  29.978  28.182
    1STR    H1R51456   0.570  30.118  28.300
    1STR    H1S51457   0.358  30.197  28.412
    1STR    H1T51458   0.265  30.077  28.323
    1STR    H1U51459   0.341  30.211  28.239
    1STR    H1V51460   0.581  29.885  28.391
    1STR    H1W51461   0.411  29.887  28.425
    1STR    H1X51462   0.585  30.130  28.713
    1STR    H1Y51463   0.592  30.295  28.885
    1STR    H1Z51464   0.494  30.388  29.090
    1STR    H2051465   0.148  30.339  29.198
    1STR    H2151466   0.273  30.261  29.294
    1STR    H2251467   0.299  30.424  29.231
    1STR    H2351468   0.043  30.133  29.014
    1STR    H2751469   0.249  30.034  28.842
    1STR    H2851470   0.320  30.452  16.413
    1STR    H2951471   0.400  30.459  16.187
    1STR    H2A51472   0.348  30.202  15.935
    1STR    H2B51473   0.441  30.343  15.982
    1STR    H2C51474   0.281  30.365  15.910
    1STR   BCK151475   0.001  30.100  30.974
    1STR    O0351476  60.125  29.993  30.925
    1STR    N0451477  60.121  30.148  31.093
    1STR    C0551478  60.017  30.104  31.177
    1STR    C0651479  60.040  30.085  31.316
    1STR    C0751480  59.935  30.055  31.407
    1STR    N0851481  59.962  30.041  31.545
    1STR    C0951482  59.878  30.029  31.650
    1STR    O0A51483  59.755  30.028  31.641
    1STR    O0B51484  59.944  30.020  31.768
    1STR    C0C51485  59.870  29.998  31.891
    1STR    C0D51486  59.839  29.848  31.905
    1STR    C0E51487  59.947  30.051  32.014
    1STR    O0F51488  59.870  30.029  32.134
    1STR    C0G51489  59.927  30.077  32.256
    1STR    C0H51490  59.907  30.229  32.265
    1STR    C0I51491  59.860  30.006  32.376
    1STR    O0J51492  59.921  30.048  32.499
    1STR    C0K51493  59.833  30.416  43.354
    1STR    C0M51494  59.863  30.266  43.364
    1STR    C0N51495  59.898  30.495  43.469
    1STR    O0O51496  59.839  30.461  43.595
    1STR    C0P51497  59.905  30.386  43.684
    1STR    O0Q51498  60.017  30.337  43.668
    1STR    N0R51499  59.829  30.371  43.793
    1STR    C0S51500  59.849  30.301  43.912
    1STR    C0T51501  59.740  30.296  44.002
    1STR    C0U51502  59.749  30.222  44.121
    1STR    C0V51503  59.867  30.153  44.154
    1STR    C0W51504  59.867  30.067  44.280
    1STR    C0X51505  59.980  30.161  44.068
    1STR    N0Y51506  60.099  30.093  44.095
    1STR   BCK251507   0.012  30.096  44.207
    1STR    O1051508  60.149  30.168  44.304
    1STR    C1351509  59.969  30.233  43.947
    1STR    C1451510  59.805  30.041  31.353
    1STR    C1551511  59.780  30.061  31.216
    1STR    C1651512  59.884  30.094  31.128
    1STR    C1751513  59.849  30.126  30.983
    1STR    H1B51514   0.010  30.230  31.121
    1STR    H1C51515  60.141  30.096  31.353
    1STR    H1D51516  60.058  30.041  31.574
    1STR    H1E51517  59.776  30.053  31.886
    1STR    H1F51518  59.930  29.788  31.911
    1STR    H1G51519  59.780  29.829  31.995
    1STR    H1H51520  59.781  29.812  31.820
    1STR    H1I51521  59.967  30.157  32.000
    1STR    H1J51522  60.044  30.001  32.023
    1STR    H1K51523  60.034  30.053  32.259
    1STR    H1M51524  59.802  30.256  32.259
    1STR    H1N51525  59.960  30.283  32.187
    1STR    H1O51526  59.945  30.267  32.360
    1STR    H1P51527  59.753  30.029  32.377
    1STR    H1Q51528  59.870  29.899  32.364
    1STR   C01051529  59.865  29.995  32.619
    1STR   H01151530  59.756  30.000  32.615
    1STR   C01251531  59.910  29.849  32.637
    1STR   H01351532  60.019  29.841  32.637
    1STR   H01451533  59.871  29.784  32.560
    1STR   H01551534  59.875  29.810  32.733
    1STR   C01651535  59.912  30.082  32.737
    1STR   H01751536  60.021  30.081  32.744
    1STR   H01851537  59.883  30.186  32.719
    1STR   O01951538  59.855  30.036  32.860
    1STR   C02051539  59.895  30.108  32.978
    1STR   H02151540  60.003  30.126  32.976
    1STR   C02251541  59.820  30.242  32.986
    1STR   H02351542  59.712  30.227  32.983
    1STR   H02451543  59.846  30.309  32.904
    1STR   H02551544  59.844  30.294  33.078
    1STR   C02651545  59.864  30.020  33.101
    1STR   H02751546  59.757  30.001  33.107
    1STR   H02851547  59.914  29.924  33.090
    1STR   O02951548  59.910  30.086  33.220
    1STR   C03051549  59.884  30.017  33.343
    1STR   H03151550  59.782  29.977  33.342
    1STR   C03251551  59.985  29.903  33.361
    1STR   H03351552  60.087  29.940  33.357
    1STR   H03451553  59.974  29.825  33.285
    1STR   H03551554  59.971  29.854  33.458
    1STR   C03651555  59.894  30.119  33.458
    1STR   H03751556  59.995  30.160  33.463
    1STR   H03851557  59.826  30.202  33.439
    1STR   O03951558  59.861  30.055  33.582
    1STR   C04051559  59.870  30.138  33.698
    1STR   H04151560  59.962  30.197  33.694
    1STR   C04251561  59.748  30.231  33.707
    1STR   H04351562  59.655  30.173  33.706
    1STR   H04451563  59.744  30.302  33.625
    1STR   H04551564  59.750  30.289  33.799
    1STR   C04651565  59.879  30.046  33.821
    1STR   H04751566  59.789  29.986  33.829
    1STR   H04851567  59.963  29.977  33.808
    1STR   O04951568  59.898  30.124  33.939
    1STR   C05051569  59.903  30.051  34.061
    1STR   H05151570  59.826  29.974  34.062
    1STR   C05251571  60.042  29.986  34.077
    1STR   H05351572  60.121  30.061  34.072
    1STR   H05451573  60.061  29.911  34.001
    1STR   H05551574  60.050  29.937  34.174
    1STR   C05651575  59.874  30.149  34.176
    1STR   H05751576  59.950  30.227  34.179
    1STR   H05851577  59.778  30.198  34.157
    1STR   O05951578  59.870  30.078  34.300
    1STR   C06051579  59.847  30.158  34.416
    1STR   H06151580  59.907  30.249  34.410
    1STR   C06251581  59.698  30.194  34.426
    1STR   H06351582  59.636  30.104  34.427
    1STR   H06451583  59.664  30.257  34.344
    1STR   H06551584  59.678  30.248  34.519
    1STR   C06651585  59.894  30.078  34.538
    1STR   H06751586  59.835  29.986  34.547
    1STR   H06851587  59.998  30.048  34.523
    1STR   O06951588  59.882  30.158  34.655
    1STR   C07051589  59.919  30.093  34.777
    1STR   H07151590  59.879  29.991  34.779
    1STR   C07251591  60.072  30.090  34.790
    1STR   H07351592  60.114  30.190  34.783
    1STR   H07451593  60.119  30.028  34.714
    1STR   H07551594  60.101  30.048  34.887
    1STR   C07651595  59.854  30.172  34.892
    1STR   H07751596  59.893  30.274  34.894
    1STR   H07851597  59.747  30.179  34.875
    1STR   O07951598  59.881  30.105  35.016
    1STR   C08051599  59.830  30.171  35.132
    1STR   H08151600  59.848  30.278  35.126
    1STR   C08251601  59.679  30.144  35.145
    1STR   H08351602  59.658  30.037  35.146
    1STR   H08451603  59.622  30.188  35.064
    1STR   H08551604  59.640  30.186  35.238
    1STR   C08651605  59.907  30.116  35.253
    1STR   H08751606  59.890  30.009  35.263
    1STR   H08851607  60.014  30.130  35.236
    1STR   O08951608  59.866  30.185  35.371
    1STR   C09051609  59.927  30.141  35.491
    1STR   H09151610  59.931  30.032  35.494
    1STR   C09251611  60.069  30.199  35.502
    1STR   H09351612  60.068  30.308  35.495
    1STR   H09451613  60.135  30.161  35.424
    1STR   H09551614  60.114  30.173  35.598
    1STR   C09651615  59.839  30.188  35.608
    1STR   H09751616  59.834  30.297  35.609
    1STR   H09851617  59.737  30.152  35.592
    1STR   O09951618  59.891  30.138  35.731
    1STR   C10051619  59.820  30.178  35.847
    1STR   H10151620  59.794  30.284  35.842
    1STR   C10251621  59.693  30.093  35.863
    1STR   H10351622  59.716  29.987  35.864
    1STR   H10451623  59.621  30.111  35.782
    1STR   H10551624  59.642  30.117  35.956
    1STR   C10651625  59.914  30.160  35.967
    1STR   H10751626  59.941  30.054  35.977
    1STR   H10851627  60.007  30.215  35.948
    1STR   O10951628  59.851  30.207  36.086
    1STR   C11051629  59.927  30.192  36.205
    1STR   H11151630  59.974  30.094  36.208
    1STR   C11251631  60.034  30.302  36.214
    1STR   H11351632  59.989  30.401  36.207
    1STR   H11451633  60.109  30.293  36.135
    1STR   H11551634  60.087  30.297  36.308
    1STR   C11651635  59.829  30.200  36.323
    1STR   H11751636  59.781  30.298  36.325
    1STR   H11851637  59.750  30.126  36.309
    1STR   O11951638  59.899  30.176  36.445
    1STR   C12051639  59.820  30.185  36.563
    1STR   H12151640  59.753  30.272  36.558
    1STR   C12251641  59.737  30.056  36.580
    1STR   H12351642  59.802  29.968  36.581
    1STR   H12451643  59.664  30.043  36.501
    1STR   H12551644  59.683  30.058  36.675
    1STR   C12651645  59.916  30.206  36.681
    1STR   H12751646  59.983  30.121  36.691
    1STR   H12851647  59.978  30.293  36.661
    1STR   O12951648  59.841  30.225  36.801
    1STR   C13051649  59.918  30.242  36.919
    1STR   H13151650  60.001  30.171  36.920
    1STR   C13251651  59.972  30.386  36.926
    1STR   H13351652  59.891  30.459  36.919
    1STR   H13451653  60.043  30.407  36.845
    1STR   H13551654  60.025  30.403  37.020
    1STR   C13651655  59.827  30.211  37.038
    1STR   H13751656  59.743  30.282  37.041
    1STR   H13851657  59.784  30.112  37.025
    1STR   O13951658  59.902  30.218  37.159
    1STR   C14051659  59.828  30.194  37.278
    1STR   H14151660  59.733  30.247  37.274
    1STR   C14251661  59.804  30.044  37.297
    1STR   H14351662  59.898  29.989  37.296
    1STR   H14451663  59.741  30.002  37.219
    1STR   H14551664  59.755  30.024  37.392
    1STR   C14651665  59.909  30.253  37.395
    1STR   H14751666  60.005  30.201  37.403
    1STR   H14851667  59.931  30.358  37.374
    1STR   O14951668  59.835  30.241  37.516
    1STR   C15051669  59.901  30.288  37.633
    1STR   H15151670  60.005  30.256  37.633
    1STR   C15251671  59.893  30.441  37.639
    1STR   H15351672  59.790  30.476  37.634
    1STR   H15451673  59.948  30.489  37.558
    1STR   H15551674  59.936  30.478  37.732
    1STR   C15651675  59.831  30.223  37.753
    1STR   H15751676  59.727  30.255  37.758
    1STR   H15851677  59.832  30.115  37.741
    1STR   O15951678  59.900  30.260  37.873
    1STR   C16051679  59.843  30.210  37.993
    1STR   H16151680  59.734  30.220  37.991
    1STR   C16251681  59.882  30.062  38.012
    1STR   H16351682  59.990  30.049  38.010
    1STR   H16451683  59.839  29.998  37.935
    1STR   H16551684  59.846  30.025  38.108
    1STR   C16651685  59.896  30.296  38.109
    1STR   H16751686  60.004  30.287  38.115
    1STR   H16851687  59.873  30.401  38.087
    1STR   O16951688  59.834  30.256  38.231
    1STR   C17051689  59.878  30.326  38.347
    1STR   H17151690  59.986  30.338  38.345
    1STR   C17251691  59.809  30.464  38.353
    1STR   H17351692  59.701  30.454  38.350
    1STR   H17451693  59.840  30.529  38.271
    1STR   H17551694  59.835  30.515  38.446
    1STR   C17651695  59.842  30.240  38.468
    1STR   H17751696  59.734  30.227  38.474
    1STR   H17851697  59.885  30.140  38.456
    1STR   O17951698  59.892  30.301  38.587
    1STR   C18051699  59.862  30.233  38.708
    1STR   H18151700  59.758  30.199  38.707
    1STR   C18251701  59.957  30.113  38.726
    1STR   H18351702  60.061  30.145  38.722
    1STR   H18451703  59.942  30.037  38.649
    1STR   H18551704  59.940  30.065  38.822
    1STR   C18651705  59.878  30.334  38.823
    1STR   H18751706  59.981  30.369  38.827
    1STR   H18851707  59.815  30.421  38.802
    1STR   O18951708  59.839  30.273  38.945
    1STR   C19051709  59.853  30.356  39.061
    1STR   H19151710  59.948  30.410  39.057
    1STR   C19251711  59.736  30.455  39.069
    1STR   H19351712  59.640  30.402  39.068
    1STR   H19451713  59.736  30.526  38.986
    1STR   H19551714  59.740  30.513  39.161
    1STR   C19651715  59.856  30.263  39.183
    1STR   H19751716  59.762  30.208  39.191
    1STR   H19851717  59.936  30.189  39.170
    1STR   O19951718  59.880  30.340  39.301
    1STR   C20051719  59.881  30.266  39.422
    1STR   H20151720  59.800  30.193  39.423
    1STR   C20251721  60.016  30.194  39.438
    1STR   H20351722  60.099  30.265  39.433
    1STR   H20451723  60.032  30.118  39.362
    1STR   H20551724  60.022  30.144  39.535
    1STR   C20651725  59.857  30.366  39.537
    1STR   H20751726  59.938  30.439  39.540
    1STR   H20851727  59.765  30.420  39.517
    1STR   O20951728  59.848  30.295  39.660
    1STR   C21051729  59.829  30.376  39.775
    1STR   H21151730  59.895  30.464  39.771
    1STR   C21251731  59.682  30.420  39.785
    1STR   H21351732  59.616  30.334  39.786
    1STR   H21451733  59.653  30.485  39.703
    1STR   H21551734  59.665  30.476  39.878
    1STR   C21651735  59.872  30.293  39.898
    1STR   H21751736  59.808  30.205  39.907
    1STR   H21851737  59.973  30.257  39.883
    1STR   O21951738  59.864  30.374  40.015
    1STR   C22051739  59.897  30.307  40.136
    1STR   H22151740  59.852  30.208  40.139
    1STR   C22251741  60.050  30.296  40.150
    1STR   H22351742  60.097  30.393  40.143
    1STR   H22451743  60.093  30.232  40.073
    1STR   H22551744  60.077  30.252  40.246
    1STR   C22651745  59.837  30.389  40.251
    1STR   H22751746  59.881  30.489  40.253
    1STR   H22851747  59.730  30.402  40.234
    1STR   O22951748  59.859  30.322  40.375
    1STR   C23051749  59.811  30.390  40.490
    1STR   H23151750  59.836  30.496  40.485
    1STR   C23251751  59.659  30.371  40.503
    1STR   H23351752  59.633  30.265  40.504
    1STR   H23451753  59.605  30.418  40.422
    1STR   H23551754  59.623  30.415  40.596
    1STR   C23651755  59.885  30.331  40.612
    1STR   H23751756  59.862  30.225  40.622
    1STR   H23851757  59.993  30.338  40.595
    1STR   O23951758  59.848  30.402  40.729
    1STR   C24051759  59.907  30.355  40.850
    1STR   H24151760  59.905  30.246  40.853
    1STR   C24251761  60.052  30.405  40.861
    1STR   H24351762  60.056  30.514  40.854
    1STR   H24451763  60.116  30.364  40.783
    1STR   H24551764  60.095  30.377  40.957
    1STR   C24651765  59.821  30.407  40.966
    1STR   H24751766  59.821  30.516  40.968
    1STR   H24851767  59.717  30.376  40.950
    1STR   O24951768  59.870  30.354  41.089
    1STR   C25051769  59.801  30.398  41.206
    1STR   H25151770  59.781  30.505  41.200
    1STR   C25251771  59.669  30.320  41.221
    1STR   H25351772  59.687  30.212  41.222
    1STR   H25451773  59.599  30.341  41.140
    1STR   H25551774  59.619  30.346  41.314
    1STR   C25651775  59.894  30.374  41.326
    1STR   H25751776  59.915  30.267  41.336
    1STR   H25851777  59.989  30.424  41.307
    1STR   O25951778  59.833  30.425  41.444
    1STR   C26051779  59.908  30.406  41.564
    1STR   H26151780  59.949  30.305  41.567
    1STR   C26251781  60.021  30.510  41.572
    1STR   H26351782  59.981  30.611  41.565
    1STR   H26451783  60.095  30.497  41.494
    1STR   H26551784  60.074  30.502  41.667
    1STR   C26651785  59.810  30.419  41.682
    1STR   H26751786  59.767  30.520  41.683
    1STR   H26851787  59.727  30.350  41.668
    1STR   O26951788  59.878  30.392  41.804
    1STR   C27051789  59.799  30.405  41.922
    1STR   H27151790  59.738  30.495  41.916
    1STR   C27251791  59.710  30.281  41.939
    1STR   H27351792  59.769  30.189  41.940
    1STR   H27451793  59.636  30.272  41.859
    1STR   H27551794  59.655  30.286  42.033
    1STR   C27651795  59.896  30.421  42.040
    1STR   H27751796  59.958  30.332  42.050
    1STR   H27851797  59.963  30.505  42.021
    1STR   O27951798  59.821  30.443  42.160
    1STR   C28051799  59.899  30.456  42.278
    1STR   H28151800  59.978  30.381  42.280
    1STR   C28251801  59.961  30.597  42.285
    1STR   H28351802  59.884  30.674  42.278
    1STR   H28451803  60.033  30.614  42.206
    1STR   H28551804  60.014  30.611  42.380
    1STR   C28651805  59.806  30.430  42.398
    1STR   H28751806  59.726  30.505  42.400
    1STR   H28851807  59.758  30.333  42.385
    1STR   O28951808  59.881  30.433  42.519
    1STR   C29051809  59.805  30.414  42.638
    1STR   H29151810  59.713  30.472  42.633
    1STR   C29251811  59.773  30.265  42.656
    1STR   H29351812  59.865  30.205  42.656
    1STR   H29451813  59.708  30.227  42.578
    1STR   H29551814  59.723  30.247  42.751
    1STR   C29651815  59.889  30.468  42.755
    1STR   H29751816  59.982  30.411  42.763
    1STR   H29851817  59.916  30.571  42.735
    1STR   O29951818  59.814  30.459  42.876
    1STR   C30051819  59.883  30.502  42.993
    1STR   H30151820  59.986  30.465  42.992
    1STR   C30251821  59.882  30.656  43.000
    1STR   H30351822  59.781  30.695  42.996
    1STR   H30451823  59.939  30.701  42.919
    1STR   H30551824  59.927  30.690  43.094
    1STR   C30651825  59.812  30.440  43.115
    1STR   H30751826  59.710  30.478  43.122
    1STR   H30851827  59.805  30.332  43.099
    1STR   O30951828  59.886  30.469  43.233
    1STR    H1R51829  59.725  30.434  43.358
    1STR    H1S51830  59.827  30.225  43.458
    1STR    H1T51831  59.970  30.247  43.360
    1STR    H1U51832  59.816  30.208  43.285
    1STR    H1V51833  59.883  30.601  43.454
    1STR    H1W51834  60.007  30.480  43.470
    1STR    H1X51835  59.742  30.420  43.781
    1STR    H1Y51836  59.648  30.346  43.980
    1STR    H1Z51837  59.664  30.218  44.187
    1STR    H2051838  59.931  29.979  44.269
    1STR    H2151839  59.903  30.125  44.364
    1STR    H2251840  59.767  30.031  44.304
    1STR    H2351841  60.138  30.039  44.021
    1STR    H2751842  60.054  30.238  43.881
    1STR    H2851843  59.720  30.016  31.414
    1STR    H2951844  59.679  30.052  31.180
    1STR    H2A51845  59.906  30.211  30.947
    1STR    H2B51846  59.743  30.151  30.973
    1STR    H2C51847  59.869  30.040  30.920
    1STR   BCK151848   0.148  30.102  46.025
    1STR    O0351849   0.269  30.119  46.010
    1STR    N0451850   0.092  30.045  46.131
    1STR    C0551851   0.160  29.971  46.228
    1STR    C0651852   0.151  30.006  46.365
    1STR    C0751853   0.216  29.930  46.466
    1STR    N0851854   0.202  29.965  46.601
    1STR    C0951855   0.271  29.923  46.708
    1STR    O0A51856   0.367  29.847  46.704
    1STR    O0B51857   0.221  29.975  46.822
    1STR    C0C51858   0.284  29.945  46.947
    1STR    C0D51859   0.406  30.038  46.966
    1STR    C0E51860   0.185  29.957  47.064
    1STR    O0F51861   0.252  29.920  47.185
    1STR    C0G51862   0.174  29.924  47.305
    1STR    C0H51863   0.085  29.799  47.312
    1STR    C0I51864   0.271  29.931  47.424
    1STR    O0J51865   0.197  29.943  47.546
    1STR    C0K51866  60.156  29.619  58.385
    1STR    C0M51867   0.087  29.742  58.399
    1STR    C0N51868  60.047  29.616  58.494
    1STR    O0O51869  60.104  29.579  58.618
    1STR    C0P51870  60.131  29.669  58.712
    1STR    O0Q51871  60.099  29.788  58.711
    1STR    N0R51872   0.042  29.608  58.806
    1STR    C0S51873   0.105  29.653  58.921
    1STR    C0T51874   0.198  29.565  58.977
    1STR    C0U51875   0.269  29.602  59.091
    1STR    C0V51876   0.248  29.726  59.154
    1STR    C0W51877   0.334  29.748  59.276
    1STR    C0X51878   0.148  29.816  59.104
    1STR    N0Y51879   0.093  29.929  59.167
    1STR   BCK251880   0.117  30.027  59.256
    1STR    O1051881   0.024  30.101  59.285
    1STR    C1351882   0.080  29.777  58.985
    1STR    C1451883   0.290  29.817  46.424
    1STR    C1551884   0.298  29.780  46.289
    1STR    C1651885   0.232  29.855  46.191
    1STR    C1751886   0.236  29.806  46.047
    1STR    H1B51887  60.151  30.047  46.134
    1STR    H1C51888   0.094  30.094  46.393
    1STR    H1D51889   0.132  30.034  46.625
    1STR    H1E51890   0.319  29.842  46.946
    1STR    H1F51891   0.376  30.143  46.969
    1STR    H1G51892   0.458  30.015  47.058
    1STR    H1H51893   0.477  30.026  46.884
    1STR    H1I51894   0.100  29.891  47.046
    1STR    H1J51895   0.147  30.059  47.071
    1STR    H1K51896   0.113  30.014  47.306
    1STR    H1M51897   0.145  29.708  47.306
    1STR    H1N51898   0.012  29.796  47.232
    1STR    H1O51899   0.031  29.796  47.406
    1STR    H1P51900   0.334  29.841  47.426
    1STR    H1Q51901   0.338  30.016  47.412
    1STR   C01051902   0.275  29.945  47.666
    1STR   H01151903   0.351  29.867  47.662
    1STR   C01251904   0.340  30.083  47.684
    1STR   H01351905   0.265  30.162  47.683
    1STR   H01451906   0.413  30.104  47.606
    1STR   H01551907   0.392  30.088  47.779
    1STR   C01651908   0.180  29.912  47.783
    1STR   H01751909   0.102  29.987  47.790
    1STR   H01851910   0.131  29.816  47.763
    1STR   O01951911   0.254  29.906  47.905
    1STR   C02051912   0.176  29.880  48.022
    1STR   H02151913   0.084  29.939  48.020
    1STR   C02251914   0.141  29.730  48.030
    1STR   H02351915   0.231  29.669  48.027
    1STR   H02451916   0.077  29.699  47.948
    1STR   H02551917   0.089  29.707  48.122
    1STR   C02651918   0.258  29.924  48.145
    1STR   H02751919   0.350  29.866  48.151
    1STR   H02851920   0.287  30.028  48.133
    1STR   O02951921   0.180  29.907  48.264
    1STR   C03051922   0.246  29.940  48.386
    1STR   H03151923   0.348  29.901  48.385
    1STR   C03251924   0.249  30.093  48.403
    1STR   H03351925   0.148  30.135  48.400
    1STR   H03451926   0.309  30.142  48.327
    1STR   H03551927   0.292  30.120  48.500
    1STR   C03651928   0.170  29.872  48.501
    1STR   H03751929   0.068  29.910  48.505
    1STR   H03851930   0.164  29.765  48.481
    1STR   O03951931   0.237  29.896  48.624
    1STR   C04051932   0.174  29.841  48.740
    1STR   H04151933   0.067  29.859  48.736
    1STR   C04251934   0.202  29.690  48.748
    1STR   H04351935   0.309  29.670  48.747
    1STR   H04451936   0.157  29.635  48.666
    1STR   H04551937   0.162  29.649  48.841
    1STR   C04651938   0.230  29.915  48.863
    1STR   H04751939   0.338  29.898  48.870
    1STR   H04851940   0.215  30.022  48.849
    1STR   O04951941   0.163  29.870  48.980
    1STR   C05051942   0.209  29.928  49.102
    1STR   H05151943   0.318  29.933  49.103
    1STR   C05251944   0.150  30.069  49.118
    1STR   H05351945   0.041  30.067  49.112
    1STR   H05451946   0.187  30.138  49.042
    1STR   H05551947   0.177  30.112  49.215
    1STR   C05651948   0.164  29.836  49.217
    1STR   H05751949   0.056  29.830  49.220
    1STR   H05851950   0.201  29.735  49.198
    1STR   O05951951   0.216  29.885  49.341
    1STR   C06051952   0.178  29.811  49.456
    1STR   H06151953   0.072  29.784  49.451
    1STR   C06251954   0.264  29.684  49.467
    1STR   H06351955   0.370  29.708  49.467
    1STR   H06451956   0.246  29.615  49.385
    1STR   H06551957   0.242  29.630  49.559
    1STR   C06651958   0.198  29.902  49.578
    1STR   H06751959   0.303  29.930  49.588
    1STR   H06851960   0.141  29.994  49.563
    1STR   O06951961   0.153  29.835  49.696
    1STR   C07051962   0.169  29.907  49.817
    1STR   H07151963   0.267  29.955  49.820
    1STR   C07251964   0.059  30.013  49.831
    1STR   H07351965  60.120  29.968  49.824
    1STR   H07451966   0.066  30.090  49.754
    1STR   H07551967   0.065  30.064  49.927
    1STR   C07651968   0.164  29.806  49.933
    1STR   H07751969   0.066  29.757  49.935
    1STR   H07851970   0.238  29.728  49.915
    1STR   O07951971   0.189  29.873  50.056
    1STR   C08051972   0.183  29.790  50.172
    1STR   H08151973   0.096  29.723  50.166
    1STR   C08251974   0.312  29.708  50.185
    1STR   H08351975   0.400  29.773  50.187
    1STR   H08451976   0.324  29.637  50.104
    1STR   H08551977   0.312  29.651  50.278
    1STR   C08651978   0.162  29.882  50.293
    1STR   H08751979   0.248  29.950  50.303
    1STR   H08851980   0.074  29.944  50.276
    1STR   O08951981   0.146  29.804  50.411
    1STR   C09051982   0.130  29.878  50.532
    1STR   H09151983   0.201  29.961  50.534
    1STR   C09251984  60.146  29.931  50.542
    1STR   H09351985  60.074  29.850  50.535
    1STR   H09451986  60.123  30.003  50.464
    1STR   H09551987  60.130  29.980  50.638
    1STR   C09651988   0.164  29.783  50.648
    1STR   H09751989   0.094  29.699  50.649
    1STR   H09851990   0.263  29.741  50.632
    1STR   O09951991   0.159  29.855  50.771
    1STR   C10051992   0.184  29.778  50.888
    1STR   H10151993   0.132  29.682  50.882
    1STR   C10251994   0.335  29.755  50.903
    1STR   H10351995   0.390  29.849  50.904
    1STR   H10451996   0.376  29.694  50.823
    1STR   H10551997   0.357  29.703  50.996
    1STR   C10651998   0.127  29.855  51.007
    1STR   H10751999   0.178  29.951  51.017
    1STR   H10852000   0.022  29.877  50.989
    1STR   O10952001   0.142  29.778  51.126
    1STR   C11052002   0.096  29.840  51.245
    1STR   H11152003   0.127  29.945  51.248
    1STR   C11252004  60.103  29.831  51.254
    1STR   H11352005  60.069  29.727  51.247
    1STR   H11452006  60.054  29.888  51.175
    1STR   H11552007  60.067  29.871  51.349
    1STR   C11652008   0.163  29.768  51.363
    1STR   H11752009   0.132  29.663  51.365
    1STR   H11852010   0.271  29.769  51.349
    1STR   O11952011   0.128  29.833  51.485
    1STR   C12052012   0.180  29.773  51.603
    1STR   H12152013   0.171  29.664  51.598
    1STR   C12252014   0.328  29.812  51.620
    1STR   H12352015   0.340  29.920  51.621
    1STR   H12452016   0.391  29.772  51.541
    1STR   H12552017   0.367  29.774  51.715
    1STR   C12652018   0.095  29.822  51.721
    1STR   H12752019   0.104  29.931  51.731
    1STR   H12852020  60.150  29.800  51.701
    1STR   O12952021   0.138  29.757  51.841
    1STR   C13052022   0.069  29.797  51.959
    1STR   H13152023   0.056  29.906  51.960
    1STR   C13252024  60.092  29.728  51.966
    1STR   H13352025  60.102  29.620  51.959
    1STR   H13452026  60.026  29.760  51.885
    1STR   H13552027  60.042  29.751  52.060
    1STR   C13652028   0.158  29.758  52.078
    1STR   H13752029   0.171  29.650  52.081
    1STR   H13852030   0.256  29.803  52.065
    1STR   O13952031   0.097  29.805  52.199
    1STR   C14052032   0.168  29.772  52.318
    1STR   H14152033   0.202  29.668  52.314
    1STR   C14252034   0.287  29.867  52.337
    1STR   H14352035   0.255  29.971  52.337
    1STR   H14452036   0.362  29.855  52.259
    1STR   H14552037   0.337  29.848  52.432
    1STR   C14652038   0.068  29.783  52.435
    1STR   H14752039   0.032  29.886  52.443
    1STR   H14852040  60.141  29.721  52.414
    1STR   O14952041   0.131  29.742  52.556
    1STR   C15052042   0.051  29.752  52.673
    1STR   H15152043  60.156  29.846  52.673
    1STR   C15252044  60.113  29.633  52.679
    1STR   H15352045   0.006  29.538  52.674
    1STR   H15452046  60.040  29.636  52.598
    1STR   H15552047  60.056  29.635  52.772
    1STR   C15652048   0.146  29.752  52.794
    1STR   H15752049   0.201  29.659  52.798
    1STR   H15852050   0.219  29.832  52.781
    1STR   O15952051   0.070  29.772  52.913
    1STR   C16052052   0.146  29.770  53.033
    1STR   H16152053   0.219  29.689  53.031
    1STR   C16252054   0.217  29.905  53.052
    1STR   H16352055   0.146  29.988  53.050
    1STR   H16452056   0.292  29.923  52.975
    1STR   H16552057   0.269  29.909  53.148
    1STR   C16652058   0.049  29.742  53.149
    1STR   H16752059  60.135  29.822  53.155
    1STR   H16852060  60.154  29.650  53.127
    1STR   O16952061   0.121  29.730  53.271
    1STR   C17052062   0.042  29.708  53.387
    1STR   H17152063  60.114  29.772  53.385
    1STR   C17252064  60.159  29.560  53.393
    1STR   H17352065   0.086  29.494  53.390
    1STR   H17452066  60.093  29.533  53.311
    1STR   H17552067  60.105  29.540  53.486
    1STR   C17652068   0.127  29.747  53.508
    1STR   H17752069   0.215  29.684  53.514
    1STR   H17852070   0.162  29.850  53.496
    1STR   O17952071   0.048  29.736  53.627
    1STR   C18052072   0.116  29.766  53.748
    1STR   H18152073   0.216  29.720  53.747
    1STR   C18252074   0.128  29.918  53.766
    1STR   H18352075   0.029  29.965  53.762
    1STR   H18452076   0.190  29.964  53.689
    1STR   H18552077   0.172  29.942  53.862
    1STR   C18652078   0.036  29.701  53.863
    1STR   H18752079  60.097  29.745  53.867
    1STR   H18852080   0.024  29.595  53.842
    1STR   O18952081   0.106  29.721  53.985
    1STR   C19052082   0.040  29.669  54.101
    1STR   H19152083  60.094  29.693  54.097
    1STR   C19252084   0.060  29.517  54.109
    1STR   H19352085   0.165  29.491  54.108
    1STR   H19452086   0.011  29.465  54.026
    1STR   H19552087   0.017  29.477  54.201
    1STR   C19652088   0.100  29.740  54.223
    1STR   H19752089   0.207  29.717  54.231
    1STR   H19852090   0.092  29.848  54.210
    1STR   O19952091   0.031  29.699  54.341
    1STR   C20052092   0.080  29.755  54.462
    1STR   H20152093   0.189  29.753  54.463
    1STR   C20252094   0.029  29.899  54.478
    1STR   H20352095  60.080  29.902  54.473
    1STR   H20452096   0.069  29.965  54.402
    1STR   H20552097   0.058  29.940  54.575
    1STR   C20652098   0.030  29.665  54.577
    1STR   H20752099  60.081  29.665  54.580
    1STR   H20852100   0.062  29.562  54.557
    1STR   O20952101   0.085  29.711  54.700
    1STR   C21052102   0.043  29.638  54.815
    1STR   H21152103  60.096  29.617  54.811
    1STR   C21252104   0.122  29.507  54.825
    1STR   H21352105   0.230  29.525  54.826
    1STR   H21452106   0.100  29.439  54.743
    1STR   H21552107   0.098  29.454  54.918
    1STR   C21652108   0.068  29.728  54.937
    1STR   H21752109   0.175  29.750  54.947
    1STR   H21852110   0.018  29.823  54.922
    1STR   O21952111   0.020  29.664  55.055
    1STR   C22052112   0.040  29.735  55.176
    1STR   H22152113   0.141  29.777  55.178
    1STR   C22252114  60.095  29.847  55.190
    1STR   H22352115  59.994  29.807  55.183
    1STR   H22452116  60.107  29.923  55.113
    1STR   H22552117  60.105  29.897  55.286
    1STR   C22652118   0.029  29.634  55.291
    1STR   H22752119  60.089  29.590  55.293
    1STR   H22852120   0.099  29.552  55.273
    1STR   O22952121   0.059  29.699  55.415
    1STR   C23052122   0.048  29.616  55.530
    1STR   H23152123  60.118  29.554  55.524
    1STR   C23252124   0.173  29.527  55.543
    1STR   H23352125   0.264  29.587  55.544
    1STR   H23452126   0.181  29.456  55.461
    1STR   H23552127   0.170  29.470  55.636
    1STR   C23652128   0.033  29.710  55.651
    1STR   H23752129   0.122  29.772  55.661
    1STR   H23852130  60.108  29.776  55.634
    1STR   O23952131   0.012  29.632  55.769
    1STR   C24052132   0.001  29.706  55.890
    1STR   H24152133   0.076  29.785  55.892
    1STR   C24252134  60.020  29.767  55.901
    1STR   H24352135  59.943  29.690  55.893
    1STR   H24452136  60.001  29.841  55.823
    1STR   H24552137  60.007  29.817  55.996
    1STR   C24652138   0.030  29.610  56.005
    1STR   H24752139  60.115  29.530  56.007
    1STR   H24852140   0.127  29.563  55.989
    1STR   O24952141   0.029  29.682  56.128
    1STR   C25052142   0.050  29.603  56.245
    1STR   H25152143  60.153  29.510  56.239
    1STR   C25252144   0.200  29.571  56.260
    1STR   H25352145   0.259  29.663  56.262
    1STR   H25452146   0.237  29.508  56.180
    1STR   H25552147   0.219  29.518  56.354
    1STR   C25652148  60.157  29.684  56.364
    1STR   H25752149   0.054  29.776  56.375
    1STR   H25852150  60.054  29.711  56.346
    1STR   O25952151   0.008  29.605  56.483
    1STR   C26052152  60.126  29.670  56.602
    1STR   H26152153   0.003  29.772  56.605
    1STR   C26252154  59.972  29.669  56.611
    1STR   H26352155  59.933  29.568  56.604
    1STR   H26452156  59.926  29.729  56.532
    1STR   H26552157  59.939  29.711  56.706
    1STR   C26652158   0.029  29.593  56.720
    1STR   H26752159  60.152  29.490  56.721
    1STR   H26852160   0.137  29.589  56.705
    1STR   O26952161  60.158  29.660  56.841
    1STR   C27052162   0.047  29.597  56.959
    1STR   H27152163   0.031  29.489  56.953
    1STR   C27252164   0.197  29.628  56.977
    1STR   H27352165   0.215  29.735  56.978
    1STR   H27452166   0.257  29.585  56.897
    1STR   H27552167   0.233  29.587  57.071
    1STR   C27652168  60.124  29.650  57.077
    1STR   H27752169  60.139  29.758  57.087
    1STR   H27852170  60.019  29.634  57.057
    1STR   O27952171   0.004  29.583  57.196
    1STR   C28052172  60.098  29.627  57.314
    1STR   H28152173  60.092  29.736  57.316
    1STR   C28252174  59.958  29.565  57.323
    1STR   H28352175  59.962  29.456  57.316
    1STR   H28452176  59.893  29.601  57.243
    1STR   H28552177  59.910  29.590  57.417
    1STR   C28652178   0.026  29.583  57.433
    1STR   H28752179   0.034  29.474  57.435
    1STR   H28852180   0.127  29.622  57.419
    1STR   O28952181  60.129  29.632  57.553
    1STR   C29052182   0.038  29.595  57.672
    1STR   H29152183   0.067  29.489  57.668
    1STR   C29252184   0.162  29.683  57.691
    1STR   H29352185   0.135  29.789  57.692
    1STR   H29452186   0.236  29.667  57.613
    1STR   H29552187   0.211  29.661  57.786
    1STR   C29652188  60.098  29.612  57.788
    1STR   H29752189  60.068  29.716  57.795
    1STR   H29852190  60.008  29.554  57.766
    1STR   O29952191  60.158  29.567  57.909
    1STR   C30052192  60.075  29.584  58.024
    1STR   H30152193  60.023  29.679  58.020
    1STR   C30252194  59.974  29.468  58.032
    1STR   H30352195  60.024  29.372  58.031
    1STR   H30452196  59.903  29.470  57.950
    1STR   H30552197  59.916  29.474  58.124
    1STR   C30652198   0.007  29.586  58.147
    1STR   H30752199   0.055  29.489  58.160
    1STR   H30852200   0.086  29.660  58.131
    1STR   O30952201  60.088  29.622  58.260
    1STR    H1R52202   0.055  29.528  58.393
    1STR    H1S52203   0.137  29.744  58.497
    1STR    H1T52204   0.030  29.835  58.391
    1STR    H1U52205   0.166  29.745  58.324
    1STR    H1V52206  59.973  29.540  58.468
    1STR    H1W52207  59.993  29.711  58.499
    1STR    H1X52208   0.054  29.511  58.781
    1STR    H1Y52209   0.217  29.468  58.934
    1STR    H1Z52210   0.340  29.532  59.132
    1STR    H2052211   0.377  29.847  59.276
    1STR    H2152212   0.278  29.724  59.365
    1STR    H2252213   0.421  29.682  59.275
    1STR    H2352214  60.160  29.949  59.134
    1STR    H2752215   0.006  29.843  58.942
    1STR    H2852216   0.342  29.753  46.494
    1STR    H2952217   0.354  29.692  46.261
    1STR    H2A52218   0.139  29.816  45.999
    1STR    H2B52219   0.264  29.701  46.041
    1STR    H2C52220   0.309  29.863  45.990
    1STR   BCK152221   0.042  45.193   0.878
    1STR    O0352222  60.109  45.244   0.816
    1STR    N0452223   0.071  45.214   1.007
    1STR    C0552224   0.020  45.310   1.096
    1STR    C0652225   0.000  45.274   1.233
    1STR    C0752226  60.117  45.368   1.331
    1STR    N0852227  60.105  45.331   1.467
    1STR    C0952228  60.091  45.409   1.576
    1STR    O0A52229  60.086  45.532   1.574
    1STR    O0B52230  60.082  45.336   1.691
    1STR    C0C52231  60.053  45.403   1.815
    1STR    C0D52232  59.900  45.419   1.828
    1STR    C0E52233  60.112  45.329   1.937
    1STR    O0F52234  60.084  45.403   2.057
    1STR    C0G52235  60.137  45.350   2.179
    1STR    C0H52236   0.127  45.384   2.188
    1STR    C0I52237  60.061  45.411   2.298
    1STR    O0J52238  60.108  45.354   2.421
    1STR    C0K52239   0.312  45.487  13.266
    1STR    C0M52240   0.167  45.437  13.282
    1STR    C0N52241   0.404  45.439  13.379
    1STR    O0O52242   0.369  45.500  13.503
    1STR    C0P52243   0.298  45.431  13.593
    1STR    O0Q52244   0.255  45.317  13.576
    1STR    N0R52245   0.280  45.506  13.702
    1STR    C0S52246   0.214  45.478  13.822
    1STR    C0T52247   0.194  45.584  13.913
    1STR    C0U52248   0.125  45.563  14.034
    1STR    C0V52249   0.075  45.435  14.067
    1STR    C0W52250  60.155  45.418  14.195
    1STR    C0X52251   0.096  45.327  13.978
    1STR    N0Y52252   0.044  45.200  14.000
    1STR   BCK252253   0.075  45.109  14.092
    1STR    O1052254   0.021  44.999  14.089
    1STR    C1352255   0.165  45.350  13.857
    1STR    C1452256  60.089  45.500   1.286
    1STR    C1552257  60.111  45.537   1.153
    1STR    C1652258   0.000  45.446   1.059
    1STR    C1752259   0.037  45.501   0.922
    1STR    H1B52260   0.142  45.153   1.042
    1STR    H1C52261   0.020  45.172   1.263
    1STR    H1D52262  60.110  45.234   1.490
    1STR    H1E52263  60.098  45.502   1.814
    1STR    H1F52264  59.850  45.323   1.832
    1STR    H1G52265  59.875  45.474   1.919
    1STR    H1H52266  59.860  45.476   1.745
    1STR    H1I52267   0.060  45.318   1.923
    1STR    H1J52268  60.071  45.228   1.944
    1STR    H1K52269  60.123  45.242   2.182
    1STR    H1M52270   0.144  45.491   2.181
    1STR    H1N52271   0.185  45.336   2.109
    1STR    H1O52272   0.168  45.350   2.283
    1STR    H1P52273  60.074  45.520   2.300
    1STR    H1Q52274  59.954  45.392   2.286
    1STR   C01052275  60.049  45.406   2.541
    1STR   H01152276  60.045  45.515   2.537
    1STR   C01252277  59.908  45.349   2.559
    1STR   H01352278  59.909  45.240   2.559
    1STR   H01452279  59.839  45.382   2.482
    1STR   H01552280  59.866  45.381   2.655
    1STR   C01652281  60.141  45.367   2.659
    1STR   H01752282  60.148  45.258   2.666
    1STR   H01852283   0.081  45.404   2.640
    1STR   O01952284  60.090  45.420   2.782
    1STR   C02052285   0.005  45.387   2.899
    1STR   H02152286   0.032  45.281   2.897
    1STR   C02252287   0.132  45.474   2.907
    1STR   H02352288   0.107  45.580   2.905
    1STR   H02452289   0.201  45.453   2.825
    1STR   H02552290   0.186  45.455   3.000
    1STR   C02652291  60.075  45.409   3.023
    1STR   H02752292  60.046  45.514   3.029
    1STR   H02852293  59.984  45.352   3.011
    1STR   O02952294  60.144  45.370   3.142
    1STR   C03052295  60.073  45.390   3.264
    1STR   H03152296  60.025  45.487   3.264
    1STR   C03252297  59.968  45.279   3.282
    1STR   H03352298  60.014  45.180   3.278
    1STR   H03452299  59.890  45.283   3.206
    1STR   H03552300  59.919  45.288   3.379
    1STR   C03652301   0.015  45.388   3.379
    1STR   H03752302   0.065  45.291   3.383
    1STR   H03852303   0.092  45.463   3.359
    1STR   O03952304  60.109  45.416   3.503
    1STR   C04052305   0.033  45.414   3.619
    1STR   H04152306   0.100  45.328   3.615
    1STR   C04252307   0.114  45.544   3.627
    1STR   H04352308   0.049  45.631   3.627
    1STR   H04452309   0.185  45.554   3.545
    1STR   H04552310   0.172  45.547   3.720
    1STR   C04652311  60.102  45.397   3.742
    1STR   H04752312  60.034  45.482   3.750
    1STR   H04852313  60.040  45.308   3.729
    1STR   O04952314   0.021  45.385   3.860
    1STR   C05052315  60.108  45.373   3.982
    1STR   H05152316  60.025  45.443   3.983
    1STR   C05252317  60.057  45.229   3.997
    1STR   H05352318  60.138  45.157   3.992
    1STR   H05452319  59.983  45.203   3.921
    1STR   H05552320  60.008  45.217   4.094
    1STR   C05652321   0.044  45.411   4.097
    1STR   H05752322   0.128  45.342   4.100
    1STR   H05852323   0.084  45.510   4.078
    1STR   O05952324  60.132  45.409   4.220
    1STR   C06052325   0.050  45.439   4.336
    1STR   H06152326   0.146  45.387   4.331
    1STR   C06252327   0.073  45.590   4.347
    1STR   H06352328  60.138  45.644   4.347
    1STR   H06452329   0.133  45.629   4.265
    1STR   H06552330   0.125  45.615   4.439
    1STR   C06652331  60.134  45.385   4.458
    1STR   H06752332  60.038  45.435   4.468
    1STR   H06852333  60.113  45.279   4.443
    1STR   O06952334   0.053  45.404   4.576
    1STR   C07052335  60.152  45.362   4.697
    1STR   H07152336  60.047  45.393   4.700
    1STR   C07252337   0.002  45.209   4.710
    1STR   H07352338   0.105  45.175   4.704
    1STR   H07452339  60.105  45.157   4.634
    1STR   H07552340  60.123  45.176   4.807
    1STR   C07652341   0.064  45.433   4.813
    1STR   H07752342   0.169  45.403   4.814
    1STR   H07852343   0.062  45.540   4.795
    1STR   O07952344   0.001  45.401   4.936
    1STR   C08052345   0.061  45.457   5.052
    1STR   H08152346   0.170  45.448   5.046
    1STR   C08252347   0.021  45.605   5.065
    1STR   H08352348  60.073  45.616   5.066
    1STR   H08452349   0.060  45.666   4.984
    1STR   H08552350   0.060  45.647   5.158
    1STR   C08652351   0.014  45.375   5.173
    1STR   H08752352  60.065  45.383   5.183
    1STR   H08852353   0.037  45.270   5.156
    1STR   O08952354   0.079  45.422   5.291
    1STR   C09052355   0.041  45.357   5.411
    1STR   H09152356  60.092  45.344   5.414
    1STR   C09252357   0.111  45.221   5.422
    1STR   H09352358   0.219  45.231   5.415
    1STR   H09452359   0.078  45.152   5.344
    1STR   H09552360   0.089  45.174   5.518
    1STR   C09652361   0.080  45.450   5.528
    1STR   H09752362   0.188  45.464   5.529
    1STR   H09852363   0.035  45.548   5.512
    1STR   O09952364   0.035  45.393   5.651
    1STR   C10052365   0.068  45.467   5.767
    1STR   H10152366   0.172  45.503   5.762
    1STR   C10252367  60.133  45.587   5.783
    1STR   H10352368  60.029  45.554   5.784
    1STR   H10452369  60.144  45.659   5.702
    1STR   H10552370  60.152  45.640   5.876
    1STR   C10652371   0.058  45.371   5.887
    1STR   H10752372  60.115  45.335   5.897
    1STR   H10852373   0.121  45.284   5.868
    1STR   O10952374   0.100  45.439   6.006
    1STR   C11052375   0.091  45.362   6.125
    1STR   H11152376  60.157  45.306   6.128
    1STR   C11252377   0.210  45.265   6.134
    1STR   H11352378   0.305  45.319   6.126
    1STR   H11452379   0.208  45.190   6.055
    1STR   H11552380   0.210  45.211   6.229
    1STR   C11652381   0.091  45.460   6.243
    1STR   H11752382   0.184  45.517   6.245
    1STR   H11852383   0.010  45.532   6.229
    1STR   O11952384   0.073  45.389   6.365
    1STR   C12052385   0.075  45.468   6.483
    1STR   H12152386   0.155  45.542   6.478
    1STR   C12252387  60.099  45.539   6.500
    1STR   H12352388  60.017  45.467   6.501
    1STR   H12452389  60.080  45.611   6.421
    1STR   H12552390  60.096  45.594   6.595
    1STR   C12652391   0.104  45.374   6.601
    1STR   H12752392   0.025  45.300   6.611
    1STR   H12852393   0.197  45.320   6.581
    1STR   O12952394   0.117  45.451   6.721
    1STR   C13052395   0.140  45.375   6.839
    1STR   H13152396   0.076  45.287   6.840
    1STR   C13252397   0.288  45.334   6.846
    1STR   H13352398   0.354  45.421   6.839
    1STR   H13452399   0.316  45.265   6.766
    1STR   H13552400   0.310  45.283   6.940
    1STR   C13652401   0.101  45.464   6.958
    1STR   H13752402   0.164  45.553   6.961
    1STR   H13852403  60.159  45.498   6.945
    1STR   O13952404   0.114  45.389   7.079
    1STR   C14052405   0.085  45.461   7.198
    1STR   H14152406   0.129  45.561   7.194
    1STR   C14252407  60.093  45.471   7.217
    1STR   H14352408  60.046  45.373   7.216
    1STR   H14452409  60.046  45.531   7.139
    1STR   H14552410  60.068  45.519   7.312
    1STR   C14652411   0.150  45.385   7.315
    1STR   H14752412   0.107  45.285   7.323
    1STR   H14852413   0.257  45.373   7.294
    1STR   O14952414   0.132  45.458   7.436
    1STR   C15052415   0.184  45.396   7.553
    1STR   H15152416   0.161  45.290   7.553
    1STR   C15252417   0.336  45.418   7.559
    1STR   H15352418   0.362  45.523   7.554
    1STR   H15452419   0.388  45.367   7.478
    1STR   H15552420   0.377  45.378   7.652
    1STR   C15652421   0.114  45.460   7.674
    1STR   H15752422   0.136  45.567   7.678
    1STR   H15852423   0.006  45.450   7.661
    1STR   O15952424   0.156  45.395   7.793
    1STR   C16052425   0.101  45.447   7.913
    1STR   H16152426   0.102  45.557   7.911
    1STR   C16252427  60.118  45.396   7.932
    1STR   H16352428  60.114  45.287   7.930
    1STR   H16452429  60.050  45.433   7.855
    1STR   H16552430  60.077  45.428   8.028
    1STR   C16652431   0.192  45.402   8.029
    1STR   H16752432   0.193  45.293   8.035
    1STR   H16852433   0.295  45.434   8.007
    1STR   O16952434   0.147  45.460   8.151
    1STR   C17052435   0.221  45.423   8.267
    1STR   H17152436   0.242  45.316   8.265
    1STR   C17252437   0.352  45.503   8.273
    1STR   H17352438   0.332  45.610   8.270
    1STR   H17452439   0.419  45.478   8.191
    1STR   H17552440   0.405  45.481   8.366
    1STR   C17652441   0.131  45.451   8.388
    1STR   H17752442   0.109  45.558   8.394
    1STR   H17852443   0.036  45.399   8.376
    1STR   O17952444   0.197  45.407   8.507
    1STR   C18052445   0.126  45.431   8.628
    1STR   H18152446   0.084  45.531   8.627
    1STR   C18252447   0.015  45.326   8.646
    1STR   H18352448   0.056  45.225   8.642
    1STR   H18452449  60.098  45.334   8.569
    1STR   H18552450  60.126  45.338   8.742
    1STR   C18652451   0.229  45.424   8.742
    1STR   H18752452   0.273  45.324   8.747
    1STR   H18852453   0.310  45.494   8.722
    1STR   O18952454   0.165  45.457   8.865
    1STR   C19052455   0.248  45.450   8.981
    1STR   H19152456   0.310  45.360   8.977
    1STR   C19252457   0.336  45.576   8.989
    1STR   H19352458   0.276  45.666   8.988
    1STR   H19452459   0.407  45.581   8.907
    1STR   H19552460   0.394  45.576   9.081
    1STR   C19652461   0.156  45.438   9.103
    1STR   H19752462   0.093  45.527   9.111
    1STR   H19852463   0.089  45.353   9.090
    1STR   O19952464   0.234  45.422   9.221
    1STR   C20052465   0.161  45.414   9.342
    1STR   H20152466   0.081  45.489   9.343
    1STR   C20252467   0.101  45.273   9.358
    1STR   H20352468   0.179  45.197   9.353
    1STR   H20452469   0.027  45.251   9.282
    1STR   H20552470   0.052  45.263   9.455
    1STR   C20652471   0.258  45.447   9.457
    1STR   H20752472   0.338  45.373   9.460
    1STR   H20852473   0.304  45.544   9.437
    1STR   O20952474   0.187  45.450   9.580
    1STR   C21052475   0.266  45.475   9.695
    1STR   H21152476   0.359  45.418   9.691
    1STR   C21252477   0.297  45.625   9.706
    1STR   H21352478   0.206  45.684   9.706
    1STR   H21452479   0.360  45.660   9.623
    1STR   H21552480   0.351  45.648   9.798
    1STR   C21652481   0.187  45.426   9.817
    1STR   H21752482   0.094  45.482   9.827
    1STR   H21852483   0.160  45.321   9.802
    1STR   O21952484   0.267  45.440   9.935
    1STR   C22052485   0.203  45.402  10.056
    1STR   H22152486   0.100  45.438  10.059
    1STR   C22252487   0.205  45.249  10.070
    1STR   H22352488   0.307  45.210  10.063
    1STR   H22452489   0.145  45.200   9.993
    1STR   H22552490   0.164  45.218  10.166
    1STR   C22652491   0.280  45.469  10.171
    1STR   H22752492   0.383  45.433  10.173
    1STR   H22852493   0.283  45.576  10.153
    1STR   O22952494   0.214  45.441  10.295
    1STR   C23052495   0.278  45.494  10.410
    1STR   H23152496   0.386  45.479  10.404
    1STR   C23252497   0.246  45.644  10.423
    1STR   H23352498   0.138  45.662  10.424
    1STR   H23452499   0.289  45.703  10.341
    1STR   H23552500   0.287  45.685  10.516
    1STR   C23652501   0.226  45.416  10.531
    1STR   H23752502   0.118  45.430  10.542
    1STR   H23852503   0.243  45.309  10.515
    1STR   O23952504   0.294  45.459  10.649
    1STR   C24052505   0.252  45.396  10.770
    1STR   H24152506   0.143  45.389  10.773
    1STR   C24252507   0.314  45.256  10.781
    1STR   H24352508   0.423  45.261  10.773
    1STR   H24452509   0.279  45.189  10.703
    1STR   H24552510   0.290  45.211  10.877
    1STR   C24652511   0.296  45.487  10.886
    1STR   H24752512   0.404  45.495  10.887
    1STR   H24852513   0.256  45.587  10.870
    1STR   O24952514   0.247  45.433  11.009
    1STR   C25052515   0.285  45.506  11.125
    1STR   H25152516   0.390  45.535  11.119
    1STR   C25252517   0.196  45.630  11.140
    1STR   H25352518   0.091  45.603  11.142
    1STR   H25452519   0.211  45.702  11.060
    1STR   H25552520   0.218  45.682  11.234
    1STR   C25652521   0.270  45.411  11.245
    1STR   H25752522   0.165  45.380  11.255
    1STR   H25852523   0.328  45.320  11.226
    1STR   O25952524   0.315  45.476  11.363
    1STR   C26052525   0.302  45.400  11.483
    1STR   H26152526   0.206  45.349  11.485
    1STR   C26252527   0.416  45.296  11.492
    1STR   H26352528   0.513  45.345  11.484
    1STR   H26452529   0.410  45.221  11.413
    1STR   H26552530   0.412  45.243  11.587
    1STR   C26652531   0.307  45.499  11.600
    1STR   H26752532   0.404  45.550  11.602
    1STR   H26852533   0.231  45.575  11.586
    1STR   O26952534   0.285  45.428  11.722
    1STR   C27052535   0.292  45.508  11.840
    1STR   H27152536   0.376  45.577  11.834
    1STR   C27252537   0.160  45.586  11.857
    1STR   H27352538   0.074  45.519  11.858
    1STR   H27452539   0.145  45.659  11.778
    1STR   H27552540   0.161  45.641  11.951
    1STR   C27652541   0.316  45.413  11.958
    1STR   H27752542   0.233  45.343  11.967
    1STR   H27852543   0.405  45.353  11.938
    1STR   O27952544   0.333  45.489  12.077
    1STR   C28052545   0.352  45.412  12.195
    1STR   H28152546   0.283  45.327  12.197
    1STR   C28252547   0.497  45.363  12.203
    1STR   H28352548   0.567  45.446  12.197
    1STR   H28452549   0.521  45.293  12.123
    1STR   H28552550   0.516  45.311  12.297
    1STR   C28652551   0.317  45.503  12.314
    1STR   H28752552   0.385  45.589  12.317
    1STR   H28852553   0.216  45.542  12.301
    1STR   O28952554   0.326  45.428  12.435
    1STR   C29052555   0.301  45.502  12.553
    1STR   H29152556   0.351  45.600  12.549
    1STR   C29252557   0.150  45.521  12.572
    1STR   H29352558   0.098  45.425  12.573
    1STR   H29452559   0.105  45.582  12.494
    1STR   H29552560   0.129  45.571  12.667
    1STR   C29652561   0.363  45.423  12.670
    1STR   H29752562   0.314  45.326  12.679
    1STR   H29852563   0.468  45.405  12.648
    1STR   O29952564   0.349  45.499  12.790
    1STR   C30052565   0.397  45.434  12.907
    1STR   H30152566   0.368  45.329  12.907
    1STR   C30252567   0.550  45.447  12.915
    1STR   H30352568   0.581  45.552  12.911
    1STR   H30452569   0.600  45.394  12.834
    1STR   H30552570   0.587  45.405  13.008
    1STR   C30652571   0.328  45.502  13.026
    1STR   H30752572   0.356  45.607  13.031
    1STR   H30852573   0.220  45.497  13.012
    1STR   O30952574   0.367  45.434  13.146
    1STR    H1R52575   0.314  45.596  13.264
    1STR    H1S52576   0.124  45.473  13.376
    1STR    H1T52577   0.163  45.328  13.285
    1STR    H1U52578   0.102  45.471  13.202
    1STR    H1V52579   0.507  45.468  13.356
    1STR    H1W52580   0.404  45.330  13.385
    1STR    H1X52581   0.323  45.596  13.691
    1STR    H1Y52582   0.229  45.684  13.890
    1STR    H1Z52583   0.110  45.646  14.101
    1STR    H2052584  60.076  45.344  14.182
    1STR    H2152585   0.060  45.386  14.276
    1STR    H2252586  60.107  45.512  14.224
    1STR    H2352587  60.141  45.164  13.930
    1STR    H2752588   0.180  45.266  13.791
    1STR    H2852589  60.051  45.576   1.352
    1STR    H2952590  60.093  45.640   1.124
    1STR    H2A52591   0.123  45.448   0.880
    1STR    H2B52592   0.064  45.606   0.928
    1STR    H2C52593  60.113  45.492   0.853
    1STR   BCK152594   0.044  45.077  15.940
    1STR    O0352595   0.080  44.968  15.898
    1STR    N0452596  60.137  45.098  16.054
    1STR    C0552597  60.081  45.002  16.140
    1STR    C0652598  60.108  45.008  16.280
    1STR    C0752599  60.049  44.918  16.372
    1STR    N0852600  60.075  44.931  16.510
    1STR    C0952601  60.033  44.857  16.615
    1STR    O0A52602  59.961  44.758  16.606
    1STR    O0B52603  60.079  44.906  16.733
    1STR    C0C52604  60.050  44.835  16.855
    1STR    C0D52605  60.150  44.720  16.872
    1STR    C0E52606  60.054  44.930  16.977
    1STR    O0F52607  60.023  44.857  17.097
    1STR    C0G52608  60.020  44.933  17.218
    1STR    C0H52609  59.887  45.010  17.227
    1STR    C0I52610  60.035  44.837  17.338
    1STR    O0J52611  60.040  44.911  17.461
    1STR    C0K52612  59.696  45.066  28.314
    1STR    C0M52613  59.832  44.996  28.324
    1STR    C0N52614  59.675  45.167  28.428
    1STR    O0O52615  59.662  45.101  28.553
    1STR    C0P52616  59.764  45.099  28.640
    1STR    O0Q52617  59.875  45.148  28.622
    1STR    N0R52618  59.724  45.034  28.749
    1STR    C0S52619  59.790  45.001  28.868
    1STR    C0T52620  59.717  44.924  28.961
    1STR    C0U52621  59.777  44.881  29.081
    1STR    C0V52622  59.910  44.916  29.111
    1STR    C0W52623  59.973  44.856  29.235
    1STR    C0X52624  59.982  45.000  29.022
    1STR    N0Y52625  60.114  45.037  29.050
    1STR   BCK252626  60.156  45.098  29.161
    1STR    O1052627  60.083  45.147  29.247
    1STR    C1352628  59.922  45.040  28.900
    1STR    C1452629  59.961  44.820  16.320
    1STR    C1552630  59.932  44.814  16.183
    1STR    C1652631  59.989  44.906  16.092
    1STR    C1752632  59.945  44.900  15.947
    1STR    H1B52633  60.125  45.195  16.077
    1STR    H1C52634   0.017  45.084  16.315
    1STR    H1D52635  60.136  45.005  16.540
    1STR    H1E52636  59.949  44.794  16.850
    1STR    H1F52637   0.093  44.756  16.878
    1STR    H1G52638  60.129  44.662  16.962
    1STR    H1H52639  60.144  44.650  16.788
    1STR    H1I52640  59.982  45.010  16.962
    1STR    H1J52641  60.152  44.977  16.986
    1STR    H1K52642  60.104  45.003  17.221
    1STR    H1M52643  59.802  44.943  17.221
    1STR    H1N52644  59.877  45.085  17.148
    1STR    H1O52645  59.880  45.064  17.322
    1STR    H1P52646  59.952  44.766  17.340
    1STR    H1Q52647  60.126  44.778  17.326
    1STR   C01052648  60.048  44.834  17.581
    1STR   H01152649  59.978  44.751  17.577
    1STR   C01252650   0.032  44.781  17.599
    1STR   H01352651   0.104  44.863  17.598
    1STR   H01452652   0.060  44.711  17.521
    1STR   H01552653   0.042  44.729  17.694
    1STR   C01652654  60.007  44.925  17.699
    1STR   H01752655  60.075  45.010  17.705
    1STR   H01852656  59.908  44.965  17.680
    1STR   O01952657  60.009  44.851  17.822
    1STR   C02052658  59.976  44.927  17.939
    1STR   H02152659  60.027  45.023  17.937
    1STR   C02252660  59.824  44.948  17.947
    1STR   H02352661  59.771  44.853  17.944
    1STR   H02452662  59.787  45.010  17.865
    1STR   H02552663  59.797  44.999  18.039
    1STR   C02652664  60.027  44.849  18.062
    1STR   H02752665  59.978  44.752  18.068
    1STR   H02852666  60.134  44.830  18.051
    1STR   O02952667  60.003  44.925  18.181
    1STR   C03052668  60.042  44.862  18.303
    1STR   H03152669  60.012  44.757  18.303
    1STR   C03252670   0.034  44.873  18.321
    1STR   H03352671   0.067  44.977  18.318
    1STR   H03452672   0.089  44.817  18.245
    1STR   H03552673   0.064  44.833  18.418
    1STR   C03652674  59.968  44.932  18.419
    1STR   H03752675  59.996  45.038  18.423
    1STR   H03852676  59.860  44.929  18.399
    1STR   O03952677  59.997  44.867  18.542
    1STR   C04052678  59.938  44.925  18.658
    1STR   H04152679  59.946  45.034  18.655
    1STR   C04252680  59.790  44.884  18.667
    1STR   H04352681  59.779  44.776  18.666
    1STR   H04452682  59.731  44.925  18.585
    1STR   H04552683  59.745  44.921  18.759
    1STR   C04652684  60.016  44.876  18.781
    1STR   H04752685  60.009  44.768  18.789
    1STR   H04852686  60.122  44.901  18.768
    1STR   O04952687  59.965  44.939  18.899
    1STR   C05052688  60.027  44.898  19.021
    1STR   H05152689  60.041  44.790  19.023
    1STR   C05252690   0.002  44.970  19.037
    1STR   H05352691  60.151  45.078  19.032
    1STR   H05452692   0.074  44.939  18.961
    1STR   H05552693   0.047  44.946  19.134
    1STR   C05652694  59.931  44.935  19.136
    1STR   H05752695  59.916  45.043  19.139
    1STR   H05852696  59.834  44.889  19.117
    1STR   O05952697  59.985  44.888  19.260
    1STR   C06052698  59.907  44.919  19.376
    1STR   H06152699  59.871  45.022  19.371
    1STR   C06252700  59.789  44.822  19.386
    1STR   H06352701  59.823  44.718  19.387
    1STR   H06452702  59.718  44.834  19.304
    1STR   H06552703  59.733  44.839  19.479
    1STR   C06652704  60.000  44.908  19.498
    1STR   H06752705  60.037  44.805  19.507
    1STR   H06852706  60.087  44.972  19.483
    1STR   O06952707  59.929  44.947  19.615
    1STR   C07052708  60.003  44.936  19.737
    1STR   H07152709  60.059  44.843  19.739
    1STR   C07252710  60.099  45.056  19.750
    1STR   H07352711  60.045  45.150  19.743
    1STR   H07452712   0.016  45.056  19.674
    1STR   H07552713  60.149  45.054  19.847
    1STR   C07652714  59.901  44.933  19.852
    1STR   H07752715  59.844  45.026  19.854
    1STR   H07852716  59.830  44.852  19.835
    1STR   O07952717  59.970  44.914  19.976
    1STR   C08052718  59.887  44.913  20.092
    1STR   H08152719  59.813  44.993  20.086
    1STR   C08252720  59.817  44.777  20.105
    1STR   H08352721  59.889  44.695  20.106
    1STR   H08452722  59.747  44.758  20.023
    1STR   H08552723  59.760  44.772  20.198
    1STR   C08652724  59.977  44.941  20.213
    1STR   H08752725  60.052  44.862  20.223
    1STR   H08852726  60.032  45.034  20.196
    1STR   O08952727  59.898  44.951  20.331
    1STR   C09052728  59.970  44.973  20.451
    1STR   H09152729  60.059  44.909  20.454
    1STR   C09252730  60.010  45.121  20.462
    1STR   H09352731  59.923  45.186  20.455
    1STR   H09452732  60.081  45.150  20.384
    1STR   H09552733  60.058  45.141  20.558
    1STR   C09652734  59.879  44.931  20.568
    1STR   H09752735  59.789  44.993  20.569
    1STR   H09852736  59.846  44.828  20.552
    1STR   O09952737  59.950  44.942  20.691
    1STR   C10052738  59.875  44.910  20.807
    1STR   H10152739  59.775  44.954  20.802
    1STR   C10252740  59.865  44.757  20.823
    1STR   H10352741  59.964  44.711  20.824
    1STR   H10452742  59.808  44.711  20.742
    1STR   H10552743  59.815  44.731  20.916
    1STR   C10652744  59.948  44.974  20.927
    1STR   H10752745  60.048  44.931  20.937
    1STR   H10852746  59.960  45.080  20.908
    1STR   O10952747  59.871  44.952  21.046
    1STR   C11052748  59.929  45.003  21.165
    1STR   H11152749  60.036  44.981  21.168
    1STR   C11252750  59.907  45.155  21.174
    1STR   H11352751  59.801  45.180  21.167
    1STR   H11452752  59.960  45.209  21.095
    1STR   H11552753  59.944  45.194  21.269
    1STR   C11652754  59.863  44.930  21.283
    1STR   H11752755  59.756  44.952  21.285
    1STR   H11852756  59.874  44.823  21.269
    1STR   O11952757  59.925  44.971  21.405
    1STR   C12052758  59.870  44.913  21.523
    1STR   H12152759  59.761  44.914  21.518
    1STR   C12252760  59.922  44.770  21.540
    1STR   H12352761  60.031  44.767  21.541
    1STR   H12452762  59.887  44.704  21.461
    1STR   H12552763  59.887  44.727  21.635
    1STR   C12652764  59.911  45.003  21.641
    1STR   H12752765  60.020  45.004  21.651
    1STR   H12852766  59.880  45.105  21.621
    1STR   O12952767  59.851  44.955  21.761
    1STR   C13052768  59.884  45.027  21.879
    1STR   H13152769  59.991  45.049  21.880
    1STR   C13252770  59.803  45.157  21.886
    1STR   H13352771  59.696  45.137  21.879
    1STR   H13452772  59.829  45.226  21.805
    1STR   H13552773  59.822  45.209  21.980
    1STR   C13652774  59.853  44.935  21.998
    1STR   H13752775  59.747  44.912  22.001
    1STR   H13852776  59.906  44.841  21.985
    1STR   O13952777  59.894  44.999  22.119
    1STR   C14052778  59.867  44.926  22.238
    1STR   H14152779  59.767  44.882  22.234
    1STR   C14252780  59.972  44.815  22.257
    1STR   H14352781  60.073  44.857  22.256
    1STR   H14452782  59.967  44.740  22.179
    1STR   H14552783  59.958  44.764  22.352
    1STR   C14652784  59.870  45.026  22.355
    1STR   H14752785  59.969  45.071  22.363
    1STR   H14852786  59.800  45.107  22.334
    1STR   O14952787  59.834  44.960  22.476
    1STR   C15052788  59.837  45.041  22.593
    1STR   H15152789  59.927  45.104  22.593
    1STR   C15252790  59.711  45.128  22.599
    1STR   H15352791  59.621  45.067  22.594
    1STR   H15452792  59.707  45.201  22.518
    1STR   H15552793  59.708  45.184  22.692
    1STR   C15652794  59.846  44.946  22.713
    1STR   H15752795  59.757  44.883  22.718
    1STR   H15852796  59.932  44.880  22.701
    1STR   O15952797  59.859  45.023  22.833
    1STR   C16052798  59.864  44.947  22.953
    1STR   H16152799  59.790  44.867  22.951
    1STR   C16252800  60.005  44.888  22.972
    1STR   H16352801  60.081  44.966  22.970
    1STR   H16452802  60.029  44.815  22.895
    1STR   H16552803  60.013  44.837  23.068
    1STR   C16652804  59.827  45.042  23.069
    1STR   H16752805  59.901  45.122  23.075
    1STR   H16852806  59.731  45.088  23.047
    1STR   O16952807  59.822  44.968  23.191
    1STR   C17052808  59.793  45.046  23.307
    1STR   H17152809  59.849  45.139  23.305
    1STR   C17252810  59.642  45.075  23.313
    1STR   H17352811  59.584  44.983  23.310
    1STR   H17452812  59.609  45.139  23.231
    1STR   H17552813  59.617  45.127  23.406
    1STR   C17652814  59.840  44.964  23.429
    1STR   H17752815  59.784  44.871  23.435
    1STR   H17852816  59.945  44.938  23.416
    1STR   O17952817  59.821  45.042  23.547
    1STR   C18052818  59.857  44.976  23.668
    1STR   H18152819  59.821  44.873  23.668
    1STR   C18252820  60.010  44.979  23.686
    1STR   H18352821  60.048  45.081  23.682
    1STR   H18452822  60.061  44.921  23.609
    1STR   H18552823  60.038  44.937  23.782
    1STR   C18652824  59.786  45.051  23.783
    1STR   H18752825  59.821  45.154  23.787
    1STR   H18852826  59.679  45.054  23.762
    1STR   O18952827  59.811  44.983  23.906
    1STR   C19052828  59.754  45.044  24.021
    1STR   H19152829  59.769  45.152  24.017
    1STR   C19252830  59.604  45.011  24.029
    1STR   H19352831  59.588  44.904  24.028
    1STR   H19452832  59.548  45.055  23.946
    1STR   H19552833  59.561  45.050  24.121
    1STR   C19652834  59.830  44.990  24.143
    1STR   H19752835  59.816  44.882  24.151
    1STR   H19852836  59.937  45.008  24.130
    1STR   O19952837  59.783  45.056  24.261
    1STR   C20052838  59.843  45.012  24.382
    1STR   H20152839  59.851  44.903  24.383
    1STR   C20252840  59.982  45.075  24.398
    1STR   H20352841  59.977  45.184  24.393
    1STR   H20452842  60.052  45.041  24.322
    1STR   H20552843  60.026  45.049  24.495
    1STR   C20652844  59.749  45.053  24.497
    1STR   H20752845  59.740  45.162  24.500
    1STR   H20852846  59.650  45.013  24.477
    1STR   O20952847  59.800  45.003  24.620
    1STR   C21052848  59.724  45.038  24.735
    1STR   H21152849  59.694  45.143  24.731
    1STR   C21252850  59.600  44.948  24.746
    1STR   H21352851  59.627  44.843  24.746
    1STR   H21452852  59.530  44.965  24.663
    1STR   H21552853  59.545  44.968  24.838
    1STR   C21652854  59.816  45.021  24.858
    1STR   H21752855  59.846  44.917  24.867
    1STR   H21852856  59.906  45.080  24.843
    1STR   O21952857  59.747  45.064  24.975
    1STR   C22052858  59.820  45.050  25.096
    1STR   H22152859  59.871  44.953  25.099
    1STR   C22252860  59.922  45.164  25.110
    1STR   H22352861  59.873  45.261  25.103
    1STR   H22452862  59.999  45.160  25.033
    1STR   H22552863  59.973  45.159  25.206
    1STR   C22652864  59.718  45.052  25.211
    1STR   H22752865  59.666  45.148  25.213
    1STR   H22852866  59.643  44.975  25.194
    1STR   O22952867  59.785  45.028  25.335
    1STR   C23052868  59.702  45.032  25.451
    1STR   H23152869  59.633  45.116  25.445
    1STR   C23252870  59.624  44.900  25.463
    1STR   H23352871  59.692  44.814  25.464
    1STR   H23452872  59.554  44.886  25.382
    1STR   H23552873  59.567  44.898  25.556
    1STR   C23652874  59.794  45.055  25.572
    1STR   H23752875  59.864  44.972  25.582
    1STR   H23852876  59.853  45.145  25.555
    1STR   O23952877  59.714  45.069  25.689
    1STR   C24052878  59.788  45.087  25.810
    1STR   H24152879  59.873  45.019  25.813
    1STR   C24252880  59.836  45.232  25.821
    1STR   H24352881  59.752  45.302  25.814
    1STR   H24452882  59.908  45.258  25.743
    1STR   H24552883  59.885  45.250  25.917
    1STR   C24652884  59.694  45.050  25.926
    1STR   H24752885  59.608  45.117  25.928
    1STR   H24852886  59.656  44.949  25.910
    1STR   O24952887  59.766  45.057  26.049
    1STR   C25052888  59.689  45.028  26.166
    1STR   H25152889  59.592  45.077  26.160
    1STR   C25252890  59.671  44.876  26.181
    1STR   H25352891  59.767  44.825  26.182
    1STR   H25452892  59.611  44.834  26.100
    1STR   H25552893  59.620  44.853  26.274
    1STR   C25652894  59.765  45.088  26.286
    1STR   H25752895  59.862  45.040  26.296
    1STR   H25852896  59.783  45.193  26.268
    1STR   O25952897  59.687  45.070  26.404
    1STR   C26052898  59.748  45.118  26.524
    1STR   H26152899  59.854  45.090  26.527
    1STR   C26252900  59.734  45.271  26.533
    1STR   H26352901  59.630  45.301  26.525
    1STR   H26452902  59.790  45.322  26.454
    1STR   H26552903  59.773  45.308  26.628
    1STR   C26652904  59.678  45.049  26.642
    1STR   H26752905  59.572  45.076  26.644
    1STR   H26852906  59.683  44.941  26.628
    1STR   O26952907  59.741  45.086  26.764
    1STR   C27052908  59.683  45.031  26.882
    1STR   H27152909  59.574  45.037  26.877
    1STR   C27252910  59.727  44.885  26.899
    1STR   H27352911  59.836  44.876  26.900
    1STR   H27452912  59.689  44.821  26.819
    1STR   H27552913  59.690  44.844  26.993
    1STR   C27652914  59.729  45.118  27.001
    1STR   H27752915  59.838  45.113  27.010
    1STR   H27852916  59.703  45.222  26.981
    1STR   O27952917  59.666  45.072  27.120
    1STR   C28052918  59.703  45.142  27.239
    1STR   H28152919  59.811  45.159  27.240
    1STR   C28252920  59.629  45.277  27.246
    1STR   H28352921  59.521  45.263  27.239
    1STR   H28452922  59.659  45.344  27.166
    1STR   H28552923  59.650  45.327  27.340
    1STR   C28652924  59.667  45.052  27.358
    1STR   H28752925  59.559  45.034  27.360
    1STR   H28852926  59.715  44.955  27.345
    1STR   O28952927  59.710  45.114  27.479
    1STR   C29052928  59.679  45.042  27.598
    1STR   H29152929  59.577  45.004  27.594
    1STR   C29252930  59.778  44.925  27.616
    1STR   H29352931  59.881  44.961  27.616
    1STR   H29452932  59.769  44.850  27.538
    1STR   H29552933  59.761  44.875  27.711
    1STR   C29652934  59.688  45.141  27.715
    1STR   H29752935  59.789  45.180  27.723
    1STR   H29852936  59.622  45.226  27.695
    1STR   O29952937  59.649  45.076  27.836
    1STR   C30052938  59.657  45.157  27.953
    1STR   H30152939  59.749  45.216  27.952
    1STR   C30252940  59.535  45.250  27.961
    1STR   H30352941  59.442  45.194  27.957
    1STR   H30452942  59.534  45.323  27.880
    1STR   H30552943  59.535  45.306  28.054
    1STR   C30652944  59.664  45.063  28.074
    1STR   H30752945  59.572  45.005  28.083
    1STR   H30852946  59.745  44.991  28.059
    1STR   O30952947  59.687  45.140  28.192
    1STR    H1R52948  59.615  44.992  28.318
    1STR    H1S52949  59.842  44.943  28.418
    1STR    H1T52950  59.913  45.069  28.320
    1STR    H1U52951  59.848  44.924  28.245
    1STR    H1V52952  59.582  45.222  28.411
    1STR    H1W52953  59.754  45.242  28.429
    1STR    H1X52954  59.629  45.003  28.739
    1STR    H1Y52955  59.616  44.894  28.941
    1STR    H1Z52956  59.721  44.820  29.149
    1STR    H2052957  60.073  44.820  29.212
    1STR    H2152958  59.979  44.930  29.315
    1STR    H2252959  59.916  44.772  29.273
    1STR    H2352960   0.024  45.019  28.980
    1STR    H2752961  59.979  45.101  28.832
    1STR    H2852962  59.911  44.748  16.383
    1STR    H2952963  59.863  44.739  16.147
    1STR    H2A52964  59.938  44.999  15.904
    1STR    H2B52965  59.847  44.853  15.937
    1STR    H2C52966  60.016  44.841  15.889
    1STR   BCK152967   0.106  45.203  30.978
    1STR    O0352968   0.157  45.313  30.962
    1STR    N0452969   0.116  45.131  31.090
    1STR    C0552970   0.210  45.155  31.190
    1STR    C0652971   0.170  45.172  31.325
    1STR    C0752972   0.266  45.194  31.428
    1STR    N0852973   0.223  45.206  31.561
    1STR    C0952974   0.293  45.239  31.671
    1STR    O0A52975   0.410  45.274  31.672
    1STR    O0B52976   0.217  45.230  31.783
    1STR    C0C52977   0.276  45.264  31.909
    1STR    C0D52978   0.274  45.416  31.927
    1STR    C0E52979   0.206  45.192  32.026
    1STR    O0F52980   0.276  45.223  32.146
    1STR    C0G52981   0.227  45.162  32.266
    1STR    C0H52982   0.274  45.016  32.273
    1STR    C0I52983   0.282  45.243  32.385
    1STR    O0J52984   0.228  45.192  32.507
    1STR    C0K52985   0.385  44.838  43.352
    1STR    C0M52986   0.330  44.980  43.367
    1STR    C0N52987   0.337  44.745  43.465
    1STR    O0O52988   0.399  44.778  43.589
    1STR    C0P52989   0.332  44.848  43.682
    1STR    O0Q52990   0.217  44.888  43.672
    1STR    N0R52991   0.413  44.872  43.785
    1STR    C0S52992   0.392  44.953  43.897
    1STR    C0T52993   0.505  45.014  43.954
    1STR    C0U52994   0.491  45.107  44.059
    1STR    C0V52995   0.363  45.137  44.111
    1STR    C0W52996   0.348  45.248  44.213
    1STR    C0X52997   0.251  45.067  44.062
    1STR    N0Y52998   0.127  45.091  44.120
    1STR   BCK252999   0.072  45.024  44.222
    1STR    O1053000  60.130  45.065  44.276
    1STR    C1353001   0.265  44.977  43.954
    1STR    C1453002   0.402  45.199  31.391
    1STR    C1553003   0.443  45.179  31.258
    1STR    C1653004   0.348  45.154  31.158
    1STR    C1753005   0.399  45.124  31.018
    1STR    H1B53006   0.061  45.047  31.094
    1STR    H1C53007   0.065  45.170  31.348
    1STR    H1D53008   0.126  45.188  31.582
    1STR    H1E53009   0.380  45.229  31.910
    1STR    H1F53010   0.173  45.455  31.928
    1STR    H1G53011   0.323  45.445  32.021
    1STR    H1H53012   0.329  45.466  31.847
    1STR    H1I53013   0.207  45.084  32.007
    1STR    H1J53014   0.102  45.223  32.033
    1STR    H1K53015   0.118  45.168  32.268
    1STR    H1M53016   0.382  45.009  32.266
    1STR    H1N53017   0.231  44.955  32.193
    1STR    H1O53018   0.243  44.971  32.367
    1STR    H1P53019   0.391  45.239  32.386
    1STR    H1Q53020   0.254  45.348  32.372
    1STR   C01053021   0.274  45.255  32.626
    1STR   H01153022   0.382  45.269  32.622
    1STR   C01253023   0.205  45.391  32.644
    1STR   H01353024   0.096  45.380  32.644
    1STR   H01453025   0.232  45.462  32.567
    1STR   H01553026   0.233  45.436  32.740
    1STR   C01653027   0.243  45.161  32.744
    1STR   H01753028   0.135  45.144  32.751
    1STR   H01853029   0.289  45.064  32.724
    1STR   O01953030   0.293  45.215  32.866
    1STR   C02053031   0.266  45.138  32.983
    1STR   H02153032   0.163  45.101  32.981
    1STR   C02253033   0.364  45.019  32.990
    1STR   H02353034   0.467  45.053  32.987
    1STR   H02453035   0.349  44.949  32.908
    1STR   H02553036   0.350  44.963  33.083
    1STR   C02653037   0.281  45.230  33.105
    1STR   H02753038   0.383  45.267  33.112
    1STR   H02853039   0.216  45.316  33.093
    1STR   O02953040   0.247  45.158  33.224
    1STR   C03053041   0.261  45.230  33.346
    1STR   H03153042   0.354  45.287  33.346
    1STR   C03253043   0.141  45.325  33.364
    1STR   H03353044   0.047  45.271  33.360
    1STR   H03453045   0.139  45.403  33.288
    1STR   H03553046   0.146  45.376  33.460
    1STR   C03653047   0.268  45.128  33.461
    1STR   H03753048   0.176  45.070  33.465
    1STR   H03853049   0.349  45.058  33.441
    1STR   O03953050   0.291  45.196  33.584
    1STR   C04053051   0.296  45.113  33.700
    1STR   H04153052   0.216  45.039  33.696
    1STR   C04253053   0.432  45.043  33.708
    1STR   H04353054   0.514  45.115  33.708
    1STR   H04453055   0.448  44.973  33.626
    1STR   H04553056   0.440  44.985  33.801
    1STR   C04653057   0.271  45.202  33.823
    1STR   H04753058   0.350  45.277  33.831
    1STR   H04853059   0.177  45.256  33.809
    1STR   O04953060   0.266  45.122  33.941
    1STR   C05053061   0.248  45.194  34.062
    1STR   H05153062   0.311  45.283  34.064
    1STR   C05253063   0.100  45.233  34.078
    1STR   H05353064   0.035  45.145  34.073
    1STR   H05453065   0.068  45.304  34.002
    1STR   H05553066   0.083  45.280  34.175
    1STR   C05653067   0.294  45.102  34.177
    1STR   H05753068   0.232  45.012  34.180
    1STR   H05853069   0.396  45.070  34.158
    1STR   O05953070   0.286  45.173  34.301
    1STR   C06053071   0.322  45.098  34.416
    1STR   H06153072   0.279  44.997  34.411
    1STR   C06253073   0.475  45.089  34.427
    1STR   H06353074   0.520  45.188  34.428
    1STR   H06453075   0.519  45.032  34.345
    1STR   H06553076   0.504  45.039  34.519
    1STR   C06653077   0.261  45.169  34.539
    1STR   H06753078   0.303  45.269  34.548
    1STR   H06853079   0.154  45.180  34.523
    1STR   O06953080   0.287  45.092  34.656
    1STR   C07053081   0.240  45.150  34.778
    1STR   H07153082   0.262  45.257  34.780
    1STR   C07253083   0.088  45.126  34.791
    1STR   H07353084   0.064  45.020  34.784
    1STR   H07453085   0.032  45.179  34.714
    1STR   H07553086   0.052  45.162  34.887
    1STR   C07653087   0.317  45.083  34.893
    1STR   H07753088   0.296  44.976  34.895
    1STR   H07853089   0.424  45.095  34.875
    1STR   O07953090   0.280  45.144  35.016
    1STR   C08053091   0.341  45.089  35.132
    1STR   H08153092   0.342  44.980  35.126
    1STR   C08253093   0.485  45.141  35.145
    1STR   H08353094   0.487  45.250  35.147
    1STR   H08453095   0.549  45.108  35.064
    1STR   H08553096   0.531  45.106  35.238
    1STR   C08653097   0.256  45.129  35.253
    1STR   H08753098   0.254  45.238  35.263
    1STR   H08853099   0.153  45.097  35.236
    1STR   O08953100   0.308  45.068  35.371
    1STR   C09053101   0.240  45.101  35.492
    1STR   H09153102   0.217  45.207  35.494
    1STR   C09253103   0.110  45.019  35.502
    1STR   H09353104   0.130  44.912  35.495
    1STR   H09453105   0.038  45.045  35.425
    1STR   H09553106   0.061  45.036  35.598
    1STR   C09653107   0.335  45.070  35.608
    1STR   H09753108   0.359  44.963  35.609
    1STR   H09853109   0.429  45.123  35.592
    1STR   O09953110   0.275  45.110  35.731
    1STR   C10053111   0.352  45.083  35.848
    1STR   H10153112   0.396  44.983  35.842
    1STR   C10253113   0.463  45.188  35.863
    1STR   H10353114   0.421  45.289  35.864
    1STR   H10453115   0.536  45.183  35.782
    1STR   H10553116   0.517  45.174  35.956
    1STR   C10653117   0.256  45.084  35.967
    1STR   H10753118   0.211  45.183  35.978
    1STR   H10853119   0.174  45.014  35.948
    1STR   O10953120   0.326  45.048  36.086
    1STR   C11053121   0.249  45.050  36.205
    1STR   H11153122   0.185  45.139  36.208
    1STR   C11253123   0.163  44.923  36.214
    1STR   H11353124   0.224  44.833  36.206
    1STR   H11453125   0.088  44.919  36.135
    1STR   H11553126   0.109  44.919  36.308
    1STR   C11653127   0.347  45.059  36.323
    1STR   H11753128   0.411  44.971  36.325
    1STR   H11853129   0.412  45.146  36.309
    1STR   O11953130   0.274  45.071  36.445
    1STR   C12053131   0.353  45.076  36.563
    1STR   H12153132   0.434  45.002  36.558
    1STR   C12253133   0.412  45.217  36.580
    1STR   H12353134   0.334  45.293  36.581
    1STR   H12453135   0.482  45.242  36.501
    1STR   H12553136   0.466  45.225  36.675
    1STR   C12653137   0.262  45.038  36.681
    1STR   H12753138   0.182  45.111  36.691
    1STR   H12853139   0.216  44.942  36.661
    1STR   O12953140   0.340  45.033  36.801
    1STR   C13053141   0.266  45.002  36.919
    1STR   H13153142   0.173  45.058  36.920
    1STR   C13253143   0.238  44.851  36.926
    1STR   H13353144   0.331  44.794  36.919
    1STR   H13453145   0.172  44.818  36.845
    1STR   H13553146   0.189  44.825  37.020
    1STR   C13653147   0.351  45.049  37.038
    1STR   H13753148   0.445  44.994  37.041
    1STR   H13853149   0.376  45.154  37.025
    1STR   O13953150   0.278  45.029  37.159
    1STR   C14053151   0.347  45.065  37.278
    1STR   H14153152   0.450  45.030  37.274
    1STR   C14253153   0.344  45.218  37.297
    1STR   H14353154   0.242  45.255  37.296
    1STR   H14453155   0.399  45.270  37.219
    1STR   H14553156   0.389  45.246  37.392
    1STR   C14653157   0.277  44.993  37.395
    1STR   H14753158   0.174  45.028  37.403
    1STR   H14853159   0.274  44.886  37.374
    1STR   O14953160   0.348  45.018  37.516
    1STR   C15053161   0.291  44.960  37.633
    1STR   H15153162   0.183  44.974  37.633
    1STR   C15253163   0.326  44.811  37.639
    1STR   H15353164   0.433  44.795  37.634
    1STR   H15453165   0.280  44.754  37.558
    1STR   H15553166   0.290  44.767  37.732
    1STR   C15653167   0.349  45.036  37.754
    1STR   H15753168   0.457  45.023  37.758
    1STR   H15853169   0.329  45.143  37.741
    1STR   O15953170   0.287  44.988  37.873
    1STR   C16053171   0.335  45.048  37.993
    1STR   H16153172   0.444  45.056  37.991
    1STR   C16253173   0.271  45.186  38.012
    1STR   H16353174   0.162  45.180  38.010
    1STR   H16453175   0.302  45.256  37.935
    1STR   H16553176   0.300  45.229  38.108
    1STR   C16653177   0.298  44.953  38.109
    1STR   H16753178   0.189  44.943  38.115
    1STR   H16853179   0.338  44.854  38.087
    1STR   O16953180   0.351  45.003  38.231
    1STR   C17053181   0.321  44.927  38.347
    1STR   H17153182   0.216  44.896  38.345
    1STR   C17253183   0.412  44.803  38.353
    1STR   H17353184   0.517  44.832  38.350
    1STR   H17453185   0.393  44.734  38.271
    1STR   H17553186   0.395  44.748  38.446
    1STR   C17653187   0.341  45.018  38.468
    1STR   H17753188   0.446  45.049  38.474
    1STR   H17853189   0.281  45.108  38.456
    1STR   O17953190   0.303  44.949  38.587
    1STR   C18053191   0.320  45.021  38.708
    1STR   H18153192   0.417  45.073  38.707
    1STR   C18253193   0.206  45.122  38.726
    1STR   H18353194   0.109  45.073  38.722
    1STR   H18453195   0.208  45.200  38.649
    1STR   H18553196   0.214  45.173  38.822
    1STR   C18653197   0.323  44.919  38.822
    1STR   H18753198   0.227  44.866  38.827
    1STR   H18853199   0.399  44.844  38.802
    1STR   O18953200   0.350  44.985  38.945
    1STR   C19053201   0.351  44.902  39.061
    1STR   H19153202   0.267  44.832  39.057
    1STR   C19253203   0.483  44.825  39.069
    1STR   H19353204   0.568  44.893  39.068
    1STR   H19453205   0.495  44.755  38.986
    1STR   H19553206   0.489  44.767  39.161
    1STR   C19653207   0.331  44.993  39.183
    1STR   H19753208   0.414  45.063  39.191
    1STR   H19853209   0.240  45.051  39.170
    1STR   O19953210   0.321  44.913  39.301
    1STR   C20053211   0.307  44.985  39.422
    1STR   H20153212   0.375  45.071  39.423
    1STR   C20253213   0.161  45.032  39.438
    1STR   H20353214   0.092  44.948  39.433
    1STR   H20453215   0.133  45.104  39.362
    1STR   H20553216   0.147  45.081  39.535
    1STR   C20653217   0.348  44.891  39.537
    1STR   H20753218   0.282  44.805  39.540
    1STR   H20853219   0.449  44.854  39.517
    1STR   O20953220   0.345  44.962  39.660
    1STR   C21053221   0.377  44.885  39.775
    1STR   H21153222   0.328  44.788  39.771
    1STR   C21253223   0.529  44.868  39.786
    1STR   H21353224   0.580  44.965  39.786
    1STR   H21453225   0.570  44.809  39.703
    1STR   H21553226   0.556  44.816  39.878
    1STR   C21653227   0.321  44.960  39.897
    1STR   H21753228   0.369  45.058  39.907
    1STR   H21853229   0.214  44.978  39.882
    1STR   O21953230   0.343  44.882  40.015
    1STR   C22053231   0.298  44.942  40.136
    1STR   H22153232   0.326  45.048  40.138
    1STR   C22253233   0.146  44.927  40.150
    1STR   H22353234   0.116  44.822  40.143
    1STR   H22453235   0.092  44.982  40.073
    1STR   H22553236   0.112  44.965  40.246
    1STR   C22653237   0.372  44.872  40.251
    1STR   H22753238   0.346  44.766  40.253
    1STR   H22853239   0.479  44.877  40.234
    1STR   O22953240   0.338  44.934  40.375
    1STR   C23053241   0.397  44.876  40.490
    1STR   H23153242   0.392  44.767  40.485
    1STR   C23253243   0.543  44.921  40.503
    1STR   H23353244   0.551  45.029  40.504
    1STR   H23453245   0.605  44.884  40.422
    1STR   H23553246   0.587  44.884  40.596
    1STR   C23653247   0.314  44.921  40.612
    1STR   H23753248   0.318  45.029  40.622
    1STR   H23853249   0.210  44.894  40.595
    1STR   O23953250   0.363  44.857  40.729
    1STR   C24053251   0.297  44.893  40.850
    1STR   H24153252   0.280  45.001  40.853
    1STR   C24253253   0.163  44.818  40.861
    1STR   H24353254   0.178  44.711  40.854
    1STR   H24453255   0.093  44.848  40.783
    1STR   H24553256   0.116  44.839  40.957
    1STR   C24653257   0.391  44.858  40.966
    1STR   H24753258   0.409  44.750  40.968
    1STR   H24853259   0.488  44.906  40.950
    1STR   O24953260   0.333  44.901  41.089
    1STR   C25053261   0.409  44.870  41.205
    1STR   H25153262   0.448  44.768  41.200
    1STR   C25253263   0.525  44.969  41.221
    1STR   H25353264   0.489  45.072  41.222
    1STR   H25453265   0.598  44.961  41.140
    1STR   H25553266   0.579  44.952  41.314
    1STR   C25653267   0.313  44.877  41.325
    1STR   H25753268   0.274  44.978  41.336
    1STR   H25853269   0.228  44.811  41.307
    1STR   O25953270   0.382  44.837  41.444
    1STR   C26053271   0.305  44.843  41.563
    1STR   H26153272   0.246  44.935  41.566
    1STR   C26253273   0.212  44.721  41.572
    1STR   H26353274   0.269  44.628  41.565
    1STR   H26453275   0.137  44.721  41.493
    1STR   H26553276   0.159  44.720  41.667
    1STR   C26653277   0.404  44.847  41.681
    1STR   H26753278   0.463  44.755  41.683
    1STR   H26853279   0.473  44.930  41.666
    1STR   O26953280   0.332  44.863  41.803
    1STR   C27053281   0.412  44.864  41.921
    1STR   H27153282   0.488  44.785  41.915
    1STR   C27253283   0.478  45.001  41.938
    1STR   H27353284   0.404  45.081  41.939
    1STR   H27453285   0.549  45.023  41.858
    1STR   H27553286   0.533  45.006  42.032
    1STR   C27653287   0.319  44.831  42.039
    1STR   H27753288   0.243  44.908  42.049
    1STR   H27853289   0.268  44.737  42.019
    1STR   O27953290   0.397  44.821  42.158
    1STR   C28053291   0.322  44.795  42.277
    1STR   H28153292   0.231  44.856  42.279
    1STR   C28253293   0.286  44.646  42.284
    1STR   H28353294   0.375  44.583  42.277
    1STR   H28453295   0.218  44.616  42.204
    1STR   H28553296   0.236  44.623  42.378
    1STR   C28653297   0.410  44.837  42.396
    1STR   H28753298   0.501  44.778  42.398
    1STR   H28853299   0.440  44.941  42.383
    1STR   O28953300   0.336  44.822  42.517
    1STR   C29053301   0.407  44.854  42.636
    1STR   H29153302   0.509  44.813  42.631
    1STR   C29253303   0.413  45.006  42.654
    1STR   H29353304   0.313  45.049  42.654
    1STR   H29453305   0.470  45.055  42.576
    1STR   H29553306   0.459  45.032  42.749
    1STR   C29653307   0.334  44.786  42.752
    1STR   H29753308   0.233  44.825  42.761
    1STR   H29853309   0.325  44.679  42.731
    1STR   O29953310   0.406  44.807  42.873
    1STR   C30053311   0.346  44.752  42.990
    1STR   H30153312   0.238  44.770  42.989
    1STR   C30253313   0.373  44.600  42.997
    1STR   H30353314   0.480  44.579  42.992
    1STR   H30453315   0.325  44.547  42.915
    1STR   H30553316   0.335  44.558  43.090
    1STR   C30653317   0.405  44.825  43.112
    1STR   H30753318   0.512  44.806  43.118
    1STR   H30853319   0.392  44.932  43.098
    1STR   O30953320   0.339  44.781  43.230
    1STR    H1R53321   0.494  44.839  43.353
    1STR    H1S53322   0.361  45.024  43.462
    1STR    H1T53323   0.221  44.980  43.366
    1STR    H1U53324   0.364  45.047  43.289
    1STR    H1V53325   0.366  44.642  43.442
    1STR    H1W53326   0.228  44.744  43.472
    1STR    H1X53327   0.504  44.832  43.770
    1STR    H1Y53328   0.604  44.996  43.915
    1STR    H1Z53329   0.578  45.157  44.098
    1STR    H2053330   0.284  45.326  44.172
    1STR    H2153331   0.300  45.213  44.304
    1STR    H2253332   0.444  45.293  44.239
    1STR    H2353333   0.072  45.169  44.089
    1STR    H2753334   0.177  44.928  43.914
    1STR    H2853335   0.481  45.216  31.463
    1STR    H2953336   0.548  45.182  31.235
    1STR    H2A53337   0.340  45.046  30.970
    1STR    H2B53338   0.503  45.090  31.019
    1STR    H2C53339   0.395  45.213  30.955
    1STR   BCK153340  60.153  45.157  45.994
    1STR    O0353341  60.060  45.150  45.915
    1STR    N0453342  60.146  45.188  46.125
    1STR    C0553343  60.040  45.225  46.210
    1STR    C0653344  60.050  45.191  46.348
    1STR    C0753345  59.951  45.228  46.444
    1STR    N0853346  59.968  45.197  46.581
    1STR    C0953347  59.895  45.233  46.689
    1STR    O0A53348  59.792  45.300  46.683
    1STR    O0B53349  59.946  45.186  46.806
    1STR    C0C53350  59.874  45.206  46.929
    1STR    C0D53351  59.767  45.097  46.943
    1STR    C0E53352  59.967  45.209  47.053
    1STR    O0F53353  59.890  45.232  47.173
    1STR    C0G53354  59.963  45.242  47.295
    1STR    C0H53355  60.028  45.381  47.305
    1STR    C0I53356  59.868  45.218  47.415
    1STR    O0J53357  59.942  45.221  47.538
    1STR    C0K53358  60.063  45.582  58.394
    1STR    C0M53359  60.009  45.439  58.405
    1STR    C0N53360  60.159  45.616  58.509
    1STR    O0O53361  60.091  45.620  58.634
    1STR    C0P53362  60.107  45.522  58.724
    1STR    O0Q53363   0.017  45.422  58.709
    1STR    N0R53364  60.035  45.551  58.833
    1STR    C0S53365  60.017  45.482  58.953
    1STR    C0T53366  59.916  45.530  59.039
    1STR    C0U53367  59.888  45.464  59.161
    1STR    C0V53368  59.961  45.350  59.199
    1STR    C0W53369  59.922  45.278  59.327
    1STR    C0X53370  60.065  45.303  59.116
    1STR    N0Y53371  60.136  45.188  59.148
    1STR   BCK253372   0.049  45.165  59.258
    1STR    O1053373   0.075  45.249  59.344
    1STR    C1353374  60.091  45.368  58.993
    1STR    C1453375  59.837  45.296  46.396
    1STR    C1553376  59.827  45.334  46.261
    1STR    C1653377  59.929  45.303  46.169
    1STR    C1753378  59.915  45.365  46.031
    1STR    H1B53379   0.076  45.179  46.169
    1STR    H1C53380  60.136  45.136  46.382
    1STR    H1D53381  60.048  45.143  46.608
    1STR    H1E53382  59.824  45.303  46.926
    1STR    H1F53383  59.811  44.997  46.948
    1STR    H1G53384  59.707  45.112  47.033
    1STR    H1H53385  59.698  45.098  46.858
    1STR    H1I53386  60.040  45.288  47.040
    1STR    H1J53387  60.021  45.115  47.061
    1STR    H1K53388  60.040  45.165  47.299
    1STR    H1M53389  59.953  45.460  47.298
    1STR    H1N53390  60.102  45.398  47.227
    1STR    H1O53391  60.079  45.393  47.400
    1STR    H1P53392  59.790  45.295  47.417
    1STR    H1Q53393  59.818  45.122  47.403
    1STR   C01053394  59.866  45.206  47.659
    1STR   H01153395  59.777  45.269  47.655
    1STR   C01253396  59.825  45.059  47.677
    1STR   H01353397  59.913  44.994  47.677
    1STR   H01453398  59.757  45.025  47.599
    1STR   H01553399  59.774  45.045  47.773
    1STR   C01653400  59.952  45.255  47.777
    1STR   H01753401  60.043  45.195  47.784
    1STR   H01853402  59.983  45.358  47.758
    1STR   O01953403  59.879  45.247  47.900
    1STR   C02053404  59.951  45.286  48.018
    1STR   H02153405  60.052  45.243  48.015
    1STR   C02253406  59.960  45.439  48.026
    1STR   H02353407  59.860  45.484  48.023
    1STR   H02453408  60.018  45.482  47.944
    1STR   H02553409  60.008  45.470  48.118
    1STR   C02653410  59.879  45.228  48.141
    1STR   H02753411  59.778  45.269  48.147
    1STR   H02853412  59.869  45.120  48.130
    1STR   O02953413  59.952  45.259  48.260
    1STR   C03053414  59.893  45.215  48.383
    1STR   H03153415  59.786  45.236  48.382
    1STR   C03253416  59.917  45.064  48.401
    1STR   H03353417  60.024  45.041  48.397
    1STR   H03453418  59.867  45.005  48.325
    1STR   H03553419  59.880  45.031  48.498
    1STR   C03653420  59.956  45.295  48.498
    1STR   H03753421  60.064  45.276  48.503
    1STR   H03853422  59.944  45.402  48.479
    1STR   O03953423  59.894  45.260  48.622
    1STR   C04053424  59.947  45.325  48.738
    1STR   H04153425  60.056  45.325  48.734
    1STR   C04253426  59.893  45.468  48.747
    1STR   H04353427  59.784  45.470  48.746
    1STR   H04453428  59.928  45.531  48.665
    1STR   H04553429  59.926  45.516  48.839
    1STR   C04653430  59.905  45.242  48.861
    1STR   H04753431  59.796  45.240  48.869
    1STR   H04853432  59.938  45.139  48.848
    1STR   O04953433  59.962  45.298  48.979
    1STR   C05053434  59.928  45.233  49.101
    1STR   H05153435  59.821  45.210  49.102
    1STR   C05253436  60.010  45.104  49.117
    1STR   H05353437  60.117  45.125  49.112
    1STR   H05453438  59.986  45.030  49.041
    1STR   H05553439  59.991  45.058  49.214
    1STR   C05653440  59.955  45.332  49.216
    1STR   H05753441  60.062  45.356  49.219
    1STR   H05853442  59.901  45.424  49.197
    1STR   O05953443  59.914  45.274  49.340
    1STR   C06053444  59.938  45.354  49.456
    1STR   H06153445  60.037  45.398  49.451
    1STR   C06253446  59.831  45.464  49.466
    1STR   H06353447  59.731  45.421  49.467
    1STR   H06453448  59.837  45.535  49.384
    1STR   H06553449  59.843  45.521  49.559
    1STR   C06653450  59.934  45.260  49.578
    1STR   H06753451  59.836  45.215  49.587
    1STR   H06853452  60.006  45.179  49.563
    1STR   O06953453  59.967  45.334  49.695
    1STR   C07053454  59.963  45.260  49.817
    1STR   H07153455  59.875  45.196  49.819
    1STR   C07253456  60.091  45.175  49.830
    1STR   H07353457   0.020  45.237  49.824
    1STR   H07453458  60.097  45.098  49.754
    1STR   H07553459  60.093  45.124  49.927
    1STR   C07653460  59.951  45.361  49.932
    1STR   H07753461  60.039  45.426  49.934
    1STR   H07853462  59.864  45.425  49.915
    1STR   O07953463  59.938  45.291  50.056
    1STR   C08053464  59.930  45.374  50.172
    1STR   H08153465  60.003  45.454  50.166
    1STR   C08253466  59.788  45.432  50.185
    1STR   H08353467  59.713  45.353  50.186
    1STR   H08453468  59.764  45.500  50.104
    1STR   H08553469  59.778  45.489  50.278
    1STR   C08653470  59.966  45.286  50.293
    1STR   H08753471  59.893  45.205  50.303
    1STR   H08853472  60.063  45.240  50.276
    1STR   O08953473  59.968  45.367  50.411
    1STR   C09053474  59.996  45.296  50.531
    1STR   H09153475  59.941  45.202  50.534
    1STR   C09253476  60.147  45.269  50.542
    1STR   H09353477   0.045  45.362  50.535
    1STR   H09453478   0.023  45.202  50.464
    1STR   H09553479   0.011  45.223  50.638
    1STR   C09653480  59.947  45.384  50.648
    1STR   H09753481  60.001  45.478  50.649
    1STR   H09853482  59.842  45.408  50.632
    1STR   O09953483  59.964  45.314  50.771
    1STR   C10053484  59.926  45.386  50.887
    1STR   H10153485  59.961  45.489  50.882
    1STR   C10253486  59.773  45.382  50.903
    1STR   H10353487  59.736  45.280  50.904
    1STR   H10453488  59.722  45.435  50.822
    1STR   H10553489  59.743  45.430  50.996
    1STR   C10653490  59.995  45.319  51.007
    1STR   H10753491  59.961  45.216  51.017
    1STR   H10853492  60.103  45.316  50.988
    1STR   O10953493  59.968  45.393  51.126
    1STR   C11053494  60.024  45.340  51.245
    1STR   H11153495  60.010  45.231  51.248
    1STR   C11253496   0.013  45.375  51.254
    1STR   H11353497   0.028  45.483  51.247
    1STR   H11453498   0.071  45.328  51.175
    1STR   H11553499   0.055  45.342  51.348
    1STR   C11653500  59.945  45.399  51.363
    1STR   H11753501  59.957  45.508  51.365
    1STR   H11853502  59.839  45.379  51.349
    1STR   O11953503  59.991  45.341  51.485
    1STR   C12053504  59.929  45.391  51.603
    1STR   H12153505  59.920  45.500  51.598
    1STR   C12253506  59.790  45.327  51.620
    1STR   H12353507  59.797  45.218  51.621
    1STR   H12453508  59.721  45.356  51.541
    1STR   H12553509  59.745  45.358  51.715
    1STR   C12653510  60.021  45.357  51.721
    1STR   H12753511  60.032  45.249  51.731
    1STR   H12853512  60.121  45.398  51.701
    1STR   O12953513  59.968  45.414  51.841
    1STR   C13053514  60.043  45.386  51.959
    1STR   H13153515  60.074  45.282  51.960
    1STR   C13253516   0.006  45.479  51.966
    1STR   H13353517  60.137  45.583  51.960
    1STR   H13453518   0.077  45.459  51.885
    1STR   H13553519   0.059  45.465  52.060
    1STR   C13653520  59.949  45.409  52.078
    1STR   H13753521  59.917  45.514  52.081
    1STR   H13853522  59.859  45.349  52.065
    1STR   O13953523  60.016  45.374  52.199
    1STR   C14053524  59.941  45.395  52.318
    1STR   H14153525  59.889  45.490  52.314
    1STR   C14253526  59.840  45.280  52.337
    1STR   H14353527  59.890  45.183  52.336
    1STR   H14453528  59.764  45.279  52.259
    1STR   H14553529  59.788  45.290  52.432
    1STR   C14653530  60.041  45.400  52.435
    1STR   H14753531  60.094  45.305  52.443
    1STR   H14853532  60.116  45.477  52.414
    1STR   O14953533  59.972  45.430  52.556
    1STR   C15053534  60.053  45.434  52.673
    1STR   H15153535  60.123  45.351  52.673
    1STR   C15253536  60.129  45.568  52.679
    1STR   H15353537  60.060  45.652  52.674
    1STR   H15453538   0.040  45.579  52.598
    1STR   H15553539   0.025  45.576  52.772
    1STR   C15653540  59.959  45.417  52.793
    1STR   H15753541  59.888  45.500  52.798
    1STR   H15853542  59.902  45.326  52.781
    1STR   O15953543  60.037  45.411  52.913
    1STR   C16053544  59.962  45.399  53.033
    1STR   H16153545  59.876  45.466  53.031
    1STR   C16253546  59.916  45.254  53.052
    1STR   H16353547  60.000  45.185  53.050
    1STR   H16453548  59.845  45.223  52.975
    1STR   H16553549  59.865  45.242  53.148
    1STR   C16653550  60.053  45.444  53.149
    1STR   H16753551  60.140  45.378  53.155
    1STR   H16853552  60.091  45.544  53.127
    1STR   O16953553  59.980  45.443  53.271
    1STR   C17053554  60.054  45.479  53.387
    1STR   H17153555  60.152  45.431  53.385
    1STR   C17253556  60.070  45.632  53.393
    1STR   H17353557  59.973  45.682  53.390
    1STR   H17453558  60.131  45.671  53.311
    1STR   H17553559  60.120  45.661  53.486
    1STR   C17653560  59.977  45.426  53.509
    1STR   H17753561  59.879  45.473  53.514
    1STR   H17853562  59.960  45.319  53.496
    1STR   O17953563  60.053  45.451  53.627
    1STR   C18053564  59.991  45.409  53.748
    1STR   H18153565  59.885  45.436  53.747
    1STR   C18253566  60.006  45.257  53.766
    1STR   H18353567  60.111  45.228  53.762
    1STR   H18453568  59.953  45.201  53.689
    1STR   H18553569  59.967  45.226  53.862
    1STR   C18653570  60.058  45.486  53.863
    1STR   H18753571   0.004  45.460  53.867
    1STR   H18853572  60.052  45.593  53.842
    1STR   O18953573  59.993  45.455  53.986
    1STR   C19053574  60.049  45.518  54.101
    1STR   H19153575  60.158  45.513  54.097
    1STR   C19253576  60.003  45.664  54.109
    1STR   H19353577  59.894  45.671  54.108
    1STR   H19453578  60.042  45.724  54.026
    1STR   H19553579  60.038  45.710  54.201
    1STR   C19653580  60.002  45.437  54.223
    1STR   H19753581  59.893  45.441  54.231
    1STR   H19853582  60.029  45.333  54.210
    1STR   O19953583  60.063  45.490  54.341
    1STR   C20053584  60.025  45.427  54.462
    1STR   H20153585  59.917  45.409  54.463
    1STR   C20253586  60.100  45.294  54.478
    1STR   H20353587   0.048  45.309  54.473
    1STR   H20453588  60.072  45.221  54.402
    1STR   H20553589  60.078  45.248  54.575
    1STR   C20653590  60.058  45.524  54.577
    1STR   H20753591   0.005  45.542  54.580
    1STR   H20853592  60.009  45.619  54.557
    1STR   O20953593  60.012  45.469  54.700
    1STR   C21053594  60.040  45.548  54.815
    1STR   H21153595  60.142  45.587  54.811
    1STR   C21253596  59.940  45.664  54.826
    1STR   H21353597  59.837  45.627  54.826
    1STR   H21453598  59.950  45.734  54.743
    1STR   H21553599  59.955  45.720  54.918
    1STR   C21653600  60.031  45.455  54.938
    1STR   H21753601  59.930  45.415  54.947
    1STR   H21853602  60.098  45.370  54.922
    1STR   O21953603  60.068  45.527  55.055
    1STR   C22053604  60.060  45.453  55.176
    1STR   H22153605  59.968  45.394  55.179
    1STR   C22253606   0.023  45.361  55.190
    1STR   H22353607   0.115  45.418  55.183
    1STR   H22453608   0.025  45.284  55.113
    1STR   H22553609   0.022  45.310  55.286
    1STR   C22653610  60.053  45.554  55.291
    1STR   H22753611  60.144  45.615  55.293
    1STR   H22853612  59.970  45.623  55.274
    1STR   O22953613  60.036  45.485  55.415
    1STR   C23053614  60.032  45.568  55.530
    1STR   H23153615  60.109  45.645  55.525
    1STR   C23253616  59.893  45.634  55.543
    1STR   H23353617  59.814  45.559  55.544
    1STR   H23453618  59.873  45.703  55.462
    1STR   H23553619  59.886  45.691  55.636
    1STR   C23653620  60.063  45.479  55.652
    1STR   H23753621  59.986  45.402  55.662
    1STR   H23853622  60.158  45.428  55.635
    1STR   O23953623  60.070  45.559  55.769
    1STR   C24053624  60.094  45.488  55.890
    1STR   H24153625  60.034  45.397  55.893
    1STR   C24253626   0.083  45.453  55.901
    1STR   H24353627   0.145  45.542  55.894
    1STR   H24453628   0.115  45.383  55.823
    1STR   H24553629   0.105  45.405  55.997
    1STR   C24653630  60.049  45.578  56.006
    1STR   H24753631  60.108  45.669  56.008
    1STR   H24853632  59.945  45.607  55.990
    1STR   O24953633  60.062  45.507  56.129
    1STR   C25053634  60.027  45.581  56.246
    1STR   H25153635  60.068  45.682  56.240
    1STR   C25253636  59.874  45.586  56.261
    1STR   H25353637  59.832  45.485  56.262
    1STR   H25453638  59.827  45.641  56.180
    1STR   H25553639  59.846  45.635  56.354
    1STR   C25653640  60.093  45.511  56.366
    1STR   H25753641  60.054  45.409  56.376
    1STR   H25853642   0.040  45.502  56.347
    1STR   O25953643  60.069  45.586  56.484
    1STR   C26053644  60.122  45.530  56.604
    1STR   H26153645  60.103  45.422  56.606
    1STR   C26253646   0.113  45.557  56.612
    1STR   H26353647   0.134  45.664  56.605
    1STR   H26453648   0.169  45.507  56.533
    1STR   H26553649   0.153  45.522  56.707
    1STR   C26653650  60.047  45.594  56.722
    1STR   H26753651  60.065  45.702  56.723
    1STR   H26853652  59.940  45.580  56.707
    1STR   O26953653  60.089  45.534  56.844
    1STR   C27053654  60.030  45.587  56.962
    1STR   H27153655  60.026  45.696  56.956
    1STR   C27253656  59.888  45.531  56.978
    1STR   H27353657  59.889  45.422  56.979
    1STR   H27453658  59.821  45.563  56.899
    1STR   H27553659  59.844  45.564  57.073
    1STR   C27653660  60.120  45.549  57.080
    1STR   H27753661  60.125  45.440  57.090
    1STR   H27853662   0.061  45.584  57.060
    1STR   O27953663  60.069  45.608  57.200
    1STR   C28053664  60.142  45.577  57.318
    1STR   H28153665   0.008  45.471  57.320
    1STR   C28253666   0.110  45.662  57.325
    1STR   H28353667   0.086  45.769  57.318
    1STR   H28453668   0.180  45.638  57.246
    1STR   H28553669   0.162  45.646  57.420
    1STR   C28653670  60.049  45.605  57.438
    1STR   H28753671  60.022  45.711  57.440
    1STR   H28853672  59.957  45.549  57.425
    1STR   O28953673  60.114  45.567  57.559
    1STR   C29053674  60.040  45.592  57.678
    1STR   H29153675  59.993  45.690  57.673
    1STR   C29253676  59.933  45.483  57.696
    1STR   H29353677  59.978  45.384  57.695
    1STR   H29453678  59.857  45.486  57.617
    1STR   H29553679  59.881  45.495  57.791
    1STR   C29653680  60.139  45.593  57.795
    1STR   H29753681   0.028  45.495  57.803
    1STR   H29853682   0.058  45.665  57.774
    1STR   O29953683  60.071  45.626  57.916
    1STR   C30053684  60.152  45.625  58.033
    1STR   H30153685   0.059  45.539  58.032
    1STR   C30253686   0.074  45.755  58.040
    1STR   H30353687   0.010  45.843  58.035
    1STR   H30453688   0.147  45.763  57.959
    1STR   H30553689   0.130  45.760  58.133
    1STR   C30653690  60.059  45.611  58.154
    1STR   H30753691  59.992  45.698  58.161
    1STR   H30853692  59.996  45.523  58.139
    1STR   O30953693  60.137  45.597  58.273
    1STR    H1R53694  59.980  45.654  58.396
    1STR    H1S53695  59.957  45.424  58.500
    1STR    H1T53696  60.091  45.366  58.402
    1STR    H1U53697  59.939  45.414  58.326
    1STR    H1V53698   0.042  45.715  58.493
    1STR    H1W53699   0.084  45.547  58.510
    1STR    H1X53700  59.986  45.638  58.820
    1STR    H1Y53701  59.857  45.617  59.014
    1STR    H1Z53702  59.809  45.502  59.224
    1STR    H2053703  59.932  45.170  59.316
    1STR    H2153704  59.986  45.310  59.408
    1STR    H2253705  59.818  45.298  59.354
    1STR    H2353706  60.137  45.113  59.081
    1STR    H2753707   0.010  45.331  58.930
    1STR    H2853708  59.755  45.324  46.459
    1STR    H2953709  59.741  45.390  46.230
    1STR    H2A53710  60.012  45.392  45.990
    1STR    H2B53711  59.856  45.456  46.034
    1STR    H2C53712  59.866  45.295  45.963
    1STR   BCK153713  15.174  60.131   0.905
    1STR    O0353714  15.283  60.079   0.885
    1STR    N0453715  15.097  60.108   1.012
    1STR    C0553716  15.116  60.005   1.105
    1STR    C0653717  15.127  60.035   1.244
    1STR    C0753718  15.143  59.933   1.341
    1STR    N0853719  15.150  59.966   1.478
    1STR    C0953720  15.182  59.890   1.583
    1STR    O0A53721  15.219  59.773   1.577
    1STR    O0B53722  15.169  59.958   1.700
    1STR    C0C53723  15.206  59.896   1.823
    1STR    C0D53724  15.358  59.907   1.842
    1STR    C0E53725  15.130  59.958   1.942
    1STR    O0F53726  15.167  59.890   2.063
    1STR    C0G53727  15.103  59.935   2.182
    1STR    C0H53728  14.961  59.877   2.190
    1STR    C0I53729  15.189  59.888   2.302
    1STR    O0J53730  15.133  59.938   2.424
    1STR    C0K53731  14.795  59.766  13.262
    1STR    C0M53732  14.936  59.826  13.275
    1STR    C0N53733  14.700  59.818  13.371
    1STR    O0O53734  14.735  59.763  13.497
    1STR    C0P53735  14.806  59.832  13.586
    1STR    O0Q53736  14.847  59.947  13.573
    1STR    N0R53737  14.827  59.752  13.690
    1STR    C0S53738  14.895  59.768  13.810
    1STR    C0T53739  14.898  59.655  13.894
    1STR    C0U53740  14.968  59.657  14.016
    1STR    C0V53741  15.036  59.773  14.056
    1STR    C0W53742  15.120  59.765  14.182
    1STR    C0X53743  15.031  59.891  13.976
    1STR    N0Y53744  15.101  60.005  14.015
    1STR   BCK253745  15.090  60.067  14.133
    1STR    O1053746  14.998  60.051  14.212
    1STR    C1353747  14.962  59.886  13.852
    1STR    C1453748  15.147  59.799   1.295
    1STR    C1553749  15.134  59.768   1.159
    1STR    C1653750  15.117  59.870   1.063
    1STR    C1753751  15.094  59.830   0.918
    1STR    H1B53752  15.017   0.007   1.022
    1STR    H1C53753  15.125  60.139   1.274
    1STR    H1D53754  15.129  60.061   1.504
    1STR    H1E53755  15.178  59.790   1.820
    1STR    H1F53756  15.390  60.010   1.847
    1STR    H1G53757  15.390  59.857   1.934
    1STR    H1H53758  15.411  59.859   1.760
    1STR    H1I53759  15.022  59.949   1.924
    1STR    H1J53760  15.152  60.064   1.950
    1STR    H1K53761  15.100  60.044   2.184
    1STR    H1M53762  14.963  59.768   2.184
    1STR    H1N53763  14.897  59.914   2.110
    1STR    H1O53764  14.914  59.904   2.285
    1STR    H1P53765  15.194  59.779   2.304
    1STR    H1Q53766  15.291  59.925   2.290
    1STR   C01053767  15.199  59.898   2.544
    1STR   H01153768  15.222  59.791   2.540
    1STR   C01253769  15.328  59.979   2.562
    1STR   H01353770  15.308  60.086   2.561
    1STR   H01453771  15.401  59.958   2.484
    1STR   H01553772  15.375  59.956   2.658
    1STR   C01653773  15.102  59.921   2.662
    1STR   H01753774  15.076  60.027   2.668
    1STR   H01853775  15.010  59.867   2.642
    1STR   O01953776  15.161  59.877   2.784
    1STR   C02053777  15.081  59.896   2.901
    1STR   H02153778  15.036  59.996   2.899
    1STR   C02253779  14.972  59.789   2.909
    1STR   H02353780  15.015  59.689   2.906
    1STR   H02453781  14.900  59.797   2.827
    1STR   H02553782  14.915  59.798   3.001
    1STR   C02653783  15.174  59.890   3.024
    1STR   H02753784  15.221  59.791   3.030
    1STR   H02853785  15.254  59.963   3.012
    1STR   O02953786  15.099  59.917   3.143
    1STR   C03053787  15.173  59.910   3.265
    1STR   H03153788  15.238  59.822   3.265
    1STR   C03253789  15.257  60.037   3.283
    1STR   H03353790  15.194  60.127   3.279
    1STR   H03453791  15.334  60.047   3.207
    1STR   H03553792  15.307  60.037   3.379
    1STR   C03653793  15.072  59.893   3.380
    1STR   H03753794  15.006  59.980   3.384
    1STR   H03853795  15.009  59.806   3.360
    1STR   O03953796  15.142  59.877   3.504
    1STR   C04053797  15.059  59.865   3.619
    1STR   H04153798  14.978  59.938   3.616
    1STR   C04253799  15.002  59.723   3.628
    1STR   H04353800  15.081  59.648   3.627
    1STR   H04453801  14.934  59.701   3.546
    1STR   H04553802  14.945  59.710   3.720
    1STR   C04653803  15.146  59.898   3.742
    1STR   H04753804  15.228  59.826   3.750
    1STR   H04853805  15.191  59.996   3.729
    1STR   O04953806  15.065  59.895   3.860
    1STR   C05053807  15.135  59.920   3.982
    1STR   H05153808  15.229  59.865   3.983
    1STR   C05253809  15.161  60.070   3.998
    1STR   H05353810  15.068  60.127   3.992
    1STR   H05453811  15.229  60.109   3.922
    1STR   H05553812  15.207  60.092   4.095
    1STR   C05653813  15.048  59.866   4.097
    1STR   H05753814  14.953  59.919   4.100
    1STR   H05853815  15.025  59.761   4.078
    1STR   O05953816  15.117  59.880   4.221
    1STR   C06053817  15.046  59.837   4.336
    1STR   H06153818  14.942  59.872   4.331
    1STR   C06253819  15.050  59.684   4.347
    1STR   H06353820  15.153  59.648   4.347
    1STR   H06453821  14.998  59.636   4.265
    1STR   H06553822  15.003  59.651   4.439
    1STR   C06653823  15.111  59.904   4.458
    1STR   H06753824  15.215  59.871   4.468
    1STR   H06853825  15.113  60.012   4.443
    1STR   O06953826  15.037  59.871   4.576
    1STR   C07053827  15.090  59.924   4.697
    1STR   H07153828  15.199  59.911   4.700
    1STR   C07253829  15.054  60.072   4.711
    1STR   H07353830  14.946  60.087   4.704
    1STR   H07453831  15.101  60.134   4.634
    1STR   H07553832  15.086  60.112   4.807
    1STR   C07653833  15.031  59.841   4.813
    1STR   H07753834  14.922  59.852   4.814
    1STR   H07853835  15.052  59.735   4.795
    1STR   O07953836  15.088  59.884   4.936
    1STR   C08053837  15.038  59.817   5.052
    1STR   H08153838  14.930  59.807   5.046
    1STR   C08253839  15.104  59.679   5.065
    1STR   H08353840  15.212  59.686   5.066
    1STR   H08453841  15.076  59.612   4.984
    1STR   H08553842  15.073  59.630   5.158
    1STR   C08653843  15.071  59.906   5.173
    1STR   H08753844  15.179  59.917   5.183
    1STR   H08853845  15.030  60.006   5.156
    1STR   O08953846  15.015  59.849   5.291
    1STR   C09053847  15.041  59.920   5.411
    1STR   H09153848  15.146  59.952   5.414
    1STR   C09253849  14.948  60.041   5.422
    1STR   H09353850  14.844  60.012   5.415
    1STR   H09453851  14.968  60.115   5.344
    1STR   H09553852  14.962  60.092   5.518
    1STR   C09653853  15.019  59.822   5.528
    1STR   H09753854  14.915  59.788   5.529
    1STR   H09853855  15.081  59.733   5.512
    1STR   O09953856  15.054  59.885   5.651
    1STR   C10053857  15.034  59.806   5.767
    1STR   H10153858  14.938  59.753   5.762
    1STR   C10253859  15.149  59.705   5.783
    1STR   H10353860  15.245  59.756   5.784
    1STR   H10453861  15.150  59.632   5.702
    1STR   H10553862  15.139  59.650   5.876
    1STR   C10653863  15.027  59.902   5.887
    1STR   H10753864  15.121  59.956   5.897
    1STR   H10853865  14.950  59.977   5.868
    1STR   O10953866  14.997  59.829   6.006
    1STR   C11053867  14.992  59.906   6.125
    1STR   H11153868  15.075  59.977   6.128
    1STR   C11253869  14.858  59.981   6.134
    1STR   H11353870  14.774  59.912   6.126
    1STR   H11453871  14.848  60.055   6.055
    1STR   H11553872  14.850  60.034   6.229
    1STR   C11653873  15.010  59.809   6.243
    1STR   H11753874  14.928  59.737   6.245
    1STR   H11853875  15.102  59.752   6.229
    1STR   O11953876  15.015  59.883   6.365
    1STR   C12053877  15.027  59.804   6.483
    1STR   H12153878  14.961  59.718   6.478
    1STR   C12253879  15.173  59.758   6.500
    1STR   H12353880  15.241  59.843   6.501
    1STR   H12453881  15.204  59.690   6.421
    1STR   H12553882  15.185  59.705   6.595
    1STR   C12653883  14.982  59.891   6.601
    1STR   H12753884  15.047  59.978   6.611
    1STR   H12853885  14.881  59.929   6.581
    1STR   O12953886  14.983  59.814   6.721
    1STR   C13053887  14.946  59.884   6.839
    1STR   H13153888  14.994  59.983   6.840
    1STR   C13253889  14.794  59.899   6.846
    1STR   H13353890  14.744  59.802   6.839
    1STR   H13453891  14.755  59.962   6.766
    1STR   H13553892  14.764  59.945   6.940
    1STR   C13653893  15.000  59.804   6.958
    1STR   H13753894  14.954  59.705   6.961
    1STR   H13853895  15.107  59.788   6.945
    1STR   O13953896  14.974  59.875   7.079
    1STR   C14053897  15.016  59.809   7.198
    1STR   H14153898  14.989  59.704   7.194
    1STR   C14253899  15.168  59.826   7.217
    1STR   H14353900  15.196  59.931   7.216
    1STR   H14453901  15.224  59.775   7.139
    1STR   H14553902  15.199  59.783   7.312
    1STR   C14653903  14.938  59.873   7.315
    1STR   H14753904  14.963  59.979   7.323
    1STR   H14853905  14.831  59.867   7.294
    1STR   O14953906  14.969  59.804   7.436
    1STR   C15053907  14.907  59.856   7.553
    1STR   H15153908  14.911  59.965   7.553
    1STR   C15253909  14.760  59.808   7.559
    1STR   H15353910  14.754  59.700   7.554
    1STR   H15453911  14.700  59.849   7.478
    1STR   H15553912  14.714  59.840   7.652
    1STR   C15653913  14.987  59.805   7.673
    1STR   H15753914  14.984  59.696   7.678
    1STR   H15853915  15.091  59.834   7.661
    1STR   O15953916  14.934  59.862   7.793
    1STR   C16053917  14.997  59.820   7.913
    1STR   H16153918  15.015  59.712   7.911
    1STR   C16253919  15.130  59.896   7.932
    1STR   H16353920  15.114  60.004   7.930
    1STR   H16453921  15.202  59.871   7.855
    1STR   H16553922  15.175  59.871   8.028
    1STR   C16653923  14.900  59.849   8.029
    1STR   H16753924  14.880  59.956   8.035
    1STR   H16853925  14.804  59.800   8.007
    1STR   O16953926  14.955  59.800   8.151
    1STR   C17053927  14.876  59.824   8.267
    1STR   H17153928  14.836  59.925   8.265
    1STR   C17253929  14.760  59.722   8.273
    1STR   H17353930  14.798  59.620   8.270
    1STR   H17453931  14.690  59.734   8.191
    1STR   H17553932  14.704  59.734   8.366
    1STR   C17653933  14.968  59.811   8.389
    1STR   H17753934  15.009  59.710   8.394
    1STR   H17853935  15.053  59.879   8.376
    1STR   O17953936  14.896  59.844   8.507
    1STR   C18053937  14.970  59.832   8.628
    1STR   H18153938  15.029  59.741   8.627
    1STR   C18253939  15.061  59.955   8.646
    1STR   H18353940  15.003  60.048   8.642
    1STR   H18453941  15.138  59.960   8.569
    1STR   H18553942  15.111  59.952   8.742
    1STR   C18653943  14.868  59.821   8.743
    1STR   H18753944  14.807  59.912   8.747
    1STR   H18853945  14.800  59.738   8.722
    1STR   O18953946  14.937  59.800   8.866
    1STR   C19053947  14.853  59.792   8.981
    1STR   H19153948  14.776  59.869   8.977
    1STR   C19253949  14.788  59.653   8.989
    1STR   H19353950  14.864  59.574   8.987
    1STR   H19453951  14.720  59.635   8.906
    1STR   H19553952  14.731  59.642   9.081
    1STR   C19653953  14.942  59.819   9.103
    1STR   H19753954  15.020  59.743   9.111
    1STR   H19853955  14.993  59.915   9.090
    1STR   O19953956  14.862  59.822   9.221
    1STR   C20053957  14.933  59.843   9.342
    1STR   H20153958  15.024  59.783   9.343
    1STR   C20253959  14.967  59.992   9.358
    1STR   H20353960  14.877  60.053   9.353
    1STR   H20453961  15.036  60.026   9.282
    1STR   H20553962  15.014  60.010   9.455
    1STR   C20653963  14.843  59.793   9.457
    1STR   H20753964  14.751  59.852   9.460
    1STR   H20853965  14.814  59.690   9.437
    1STR   O20953966  14.913  59.803   9.580
    1STR   C21053967  14.839  59.764   9.695
    1STR   H21153968  14.738  59.804   9.691
    1STR   C21253969  14.835  59.610   9.705
    1STR   H21353970  14.936  59.568   9.706
    1STR   H21453971  14.780  59.565   9.623
    1STR   H21553972  14.787  59.579   9.798
    1STR   C21653973  14.909  59.826   9.817
    1STR   H21753974  15.010  59.787   9.827
    1STR   H21853975  14.917  59.934   9.802
    1STR   O21953976  14.833  59.798   9.935
    1STR   C22053977  14.889  59.847  10.056
    1STR   H22153978  14.997  59.829  10.058
    1STR   C22253979  14.860  59.998  10.070
    1STR   H22353980  14.753  60.018  10.063
    1STR   H22453981  14.911  60.056   9.993
    1STR   H22553982  14.895  60.035  10.166
    1STR   C22653983  14.825  59.767  10.171
    1STR   H22753984  14.717  59.785  10.173
    1STR   H22853985  14.840  59.661  10.153
    1STR   O22953986  14.885  59.807  10.294
    1STR   C23053987  14.832  59.743  10.410
    1STR   H23153988  14.723  59.739  10.404
    1STR   C23253989  14.889  59.601  10.423
    1STR   H23353990  14.998  59.603  10.424
    1STR   H23453991  14.857  59.536  10.341
    1STR   H23553992  14.856  59.554  10.516
    1STR   C23653993  14.869  59.830  10.531
    1STR   H23753994  14.978  59.835  10.541
    1STR   H23853995  14.834  59.931  10.514
    1STR   O23953996  14.810  59.775  10.649
    1STR   C24053997  14.840  59.844  10.770
    1STR   H24153998  14.946  59.870  10.772
    1STR   C24253999  14.754  59.971  10.781
    1STR   H24354000  14.648  59.947  10.773
    1STR   H24454001  14.777  60.044  10.703
    1STR   H24554002  14.770  60.020  10.877
    1STR   C24654003  14.813  59.747  10.886
    1STR   H24754004  14.707  59.720  10.887
    1STR   H24854005  14.869  59.655  10.869
    1STR   O24954006  14.851  59.808  11.008
    1STR   C25054007  14.826  59.730  11.125
    1STR   H25154008  14.728  59.683  11.119
    1STR   C25254009  14.936  59.623  11.140
    1STR   H25354010  15.035  59.668  11.142
    1STR   H25454011  14.933  59.550  11.060
    1STR   H25554012  14.923  59.568  11.234
    1STR   C25654013  14.825  59.827  11.245
    1STR   H25754014  14.923  59.875  11.255
    1STR   H25854015  14.752  59.906  11.226
    1STR   O25954016  14.791  59.755  11.363
    1STR   C26054017  14.791  59.832  11.482
    1STR   H26154018  14.878  59.898  11.485
    1STR   C26254019  14.661  59.914  11.491
    1STR   H26354020  14.573  59.849  11.484
    1STR   H26454021  14.654  59.989  11.413
    1STR   H26554022  14.656  59.967  11.586
    1STR   C26654023  14.803  59.734  11.600
    1STR   H26754024  14.717  59.666  11.601
    1STR   H26854025  14.892  59.672  11.585
    1STR   O26954026  14.813  59.807  11.721
    1STR   C27054027  14.820  59.727  11.839
    1STR   H27154028  14.749  59.644  11.833
    1STR   C27254029  14.963  59.673  11.857
    1STR   H27354030  15.036  59.754  11.858
    1STR   H27454031  14.991  59.604  11.777
    1STR   H27554032  14.972  59.619  11.951
    1STR   C27654033  14.779  59.817  11.957
    1STR   H27754034  14.850  59.900  11.967
    1STR   H27854035  14.681  59.860  11.937
    1STR   O27954036  14.776  59.739  12.076
    1STR   C28054037  14.744  59.811  12.194
    1STR   H28154038  14.797  59.906  12.196
    1STR   C28254039  14.593  59.834  12.203
    1STR   H28354040  14.538  59.740  12.197
    1STR   H28454041  14.556  59.899  12.123
    1STR   H28554042  14.566  59.881  12.297
    1STR   C28654043  14.795  59.727  12.312
    1STR   H28754044  14.743  59.631  12.315
    1STR   H28854045  14.901  59.706  12.299
    1STR   O28954046  14.774  59.799  12.433
    1STR   C29054047  14.811  59.730  12.552
    1STR   H29154048  14.779  59.626  12.547
    1STR   C29254049  14.963  59.738  12.571
    1STR   H29354050  14.997  59.842  12.572
    1STR   H29454051  15.018  59.686  12.493
    1STR   H29554052  14.992  59.693  12.666
    1STR   C29654053  14.736  59.798  12.667
    1STR   H29754054  14.767  59.902  12.676
    1STR   H29854055  14.629  59.798  12.645
    1STR   O29954056  14.762  59.727  12.788
    1STR   C30054057  14.703  59.784  12.903
    1STR   H30154058  14.711  59.893  12.900
    1STR   C30254059  14.555  59.743  12.912
    1STR   H30354060  14.544  59.635  12.910
    1STR   H30454061  14.496  59.785  12.831
    1STR   H30554062  14.510  59.779  13.005
    1STR   C30654063  14.782  59.735  13.024
    1STR   H30754064  14.770  59.627  13.036
    1STR   H30854065  14.888  59.754  13.008
    1STR   O30954066  14.736  59.805  13.139
    1STR    H1R54067  14.799  59.657  13.269
    1STR    H1S54068  14.982  59.799  13.370
    1STR    H1T54069  14.933  59.935  13.271
    1STR    H1U54070  15.003  59.792  13.197
    1STR    H1V54071  14.599  59.786  13.349
    1STR    H1W54072  14.698  59.927  13.374
    1STR    H1X54073  14.782  59.664  13.675
    1STR    H1Y54074  14.847  59.564  13.866
    1STR    H1Z54075  14.970  59.569  14.077
    1STR    H2054076  15.218  59.808  14.164
    1STR    H2154077  15.072  59.817  14.264
    1STR    H2254078  15.135  59.662  14.215
    1STR    H2354079  15.169  60.043  13.951
    1STR    H2754080  14.960  59.974  13.790
    1STR    H2854081  15.158  59.716   1.362
    1STR    H2954082  15.136  59.665   1.128
    1STR    H2A54083  15.017  59.892   0.872
    1STR    H2B54084  15.061  59.726   0.910
    1STR    H2C54085  15.186  59.841   0.861
    1STR   BCK154086  15.112   0.072  15.926
    1STR    O0354087  15.045   0.163  15.880
    1STR    N0454088  15.157   0.065  16.052
    1STR    C0554089  15.164   0.169  16.145
    1STR    C0654090  15.125   0.147  16.280
    1STR    C0754091  15.140   0.248  16.379
    1STR    N0854092  15.107   0.221  16.514
    1STR    C0954093  15.135   0.292  16.625
    1STR    O0A54094  15.197   0.398  16.626
    1STR    O0B54095  15.088   0.232  16.737
    1STR    C0C54096  15.098   0.301  16.863
    1STR    C0D54097  14.977   0.395  16.878
    1STR    C0E54098  15.109   0.204  16.982
    1STR    O0F54099  15.127   0.280  17.102
    1STR    C0G54100  15.144   0.206  17.223
    1STR    C0H54101  15.289   0.154  17.231
    1STR    C0I54102  15.113   0.298  17.342
    1STR    O0J54103  15.121   0.225  17.464
    1STR    C0K54104  15.502   0.142  28.303
    1STR    C0M54105  15.353   0.177  28.321
    1STR    C0N54106  15.555   0.053  28.416
    1STR    O0O54107  15.560   0.125  28.539
    1STR    C0P54108  15.464   0.110  28.630
    1STR    O0Q54109  15.367   0.036  28.618
    1STR    N0R54110  15.489   0.189  28.734
    1STR    C0S54111  15.417   0.208  28.852
    1STR    C0T54112  15.452   0.317  28.934
    1STR    C0U54113  15.382   0.343  29.054
    1STR    C0V54114  15.277   0.259  29.095
    1STR    C0W54115  15.200   0.291  29.222
    1STR    C0X54116  15.243   0.146  29.016
    1STR    N0Y54117  15.142   0.059  29.054
    1STR   BCK254118  15.146  60.128  29.152
    1STR    O1054119  15.049  60.057  29.173
    1STR    C1354120  15.312   0.123  28.895
    1STR    C1454121  15.189   0.374  16.338
    1STR    C1554122  15.231   0.396  16.206
    1STR    C1654123  15.222   0.294  16.110
    1STR    C1754124  15.283   0.321  15.973
    1STR    H1B54125  15.199  60.138  16.077
    1STR    H1C54126  15.085   0.051  16.307
    1STR    H1D54127  15.058   0.136  16.535
    1STR    H1E54128  15.190   0.361  16.864
    1STR    H1F54129  14.884   0.340  16.879
    1STR    H1G54130  14.984   0.453  16.970
    1STR    H1H54131  14.973   0.466  16.795
    1STR    H1I54132  15.195   0.138  16.966
    1STR    H1J54133  15.020   0.141  16.989
    1STR    H1K54134  15.074   0.122  17.226
    1STR    H1M54135  15.360   0.236  17.224
    1STR    H1N54136  15.311   0.082  17.152
    1STR    H1O54137  15.306   0.103  17.326
    1STR    H1P54138  15.182   0.383  17.343
    1STR    H1Q54139  15.013   0.340  17.329
    1STR   C01054140  15.100   0.300  17.584
    1STR   H01154141  15.155   0.394  17.580
    1STR   C01254142  14.949   0.328  17.602
    1STR   H01354143  14.892   0.235  17.602
    1STR   H01454144  14.909   0.392  17.524
    1STR   H01554145  14.931   0.377  17.698
    1STR   C01654146  15.156   0.218  17.702
    1STR   H01754147  15.104   0.122  17.709
    1STR   H01854148  15.261   0.196  17.682
    1STR   O01954149  15.142   0.291  17.824
    1STR   C02054150  15.188   0.222  17.941
    1STR   H02154151  15.154   0.118  17.939
    1STR   C02254152  15.341   0.228  17.949
    1STR   H02354153  15.377   0.331  17.946
    1STR   H02454154  15.388   0.173  17.867
    1STR   H02554155  15.377   0.183  18.042
    1STR   C02654156  15.124   0.290  18.064
    1STR   H02754157  15.156   0.394  18.070
    1STR   H02854158  15.015   0.290  18.052
    1STR   O02954159  15.160   0.219  18.183
    1STR   C03054160  15.111   0.274  18.305
    1STR   H03154161  15.123   0.383  18.305
    1STR   C03254162  14.963   0.237  18.323
    1STR   H03354163  14.949   0.129  18.319
    1STR   H03454164  14.900   0.282  18.247
    1STR   H03554165  14.926   0.271  18.420
    1STR   C03654166  15.197   0.218  18.420
    1STR   H03754167  15.187   0.109  18.424
    1STR   H03854168  15.302   0.240  18.400
    1STR   O03954169  15.156   0.277  18.544
    1STR   C04054170  15.225   0.230  18.659
    1STR   H04154171  15.236   0.122  18.656
    1STR   C04254172  15.364   0.296  18.668
    1STR   H04354173  15.356   0.405  18.667
    1STR   H04454174  15.429   0.267  18.586
    1STR   H04554175  15.414   0.268  18.760
    1STR   C04654176  15.139   0.265  18.782
    1STR   H04754177  15.128   0.373  18.790
    1STR   H04854178  15.040   0.223  18.769
    1STR   O04954179  15.200   0.212  18.900
    1STR   C05054180  15.132   0.241  19.022
    1STR   H05154181  15.100   0.346  19.023
    1STR   C05254182  15.011   0.148  19.038
    1STR   H05354183  15.041   0.043  19.032
    1STR   H05454184  14.936   0.165  18.962
    1STR   H05554185  14.963   0.163  19.135
    1STR   C05654186  15.233   0.222  19.137
    1STR   H05754187  15.267   0.119  19.140
    1STR   H05854188  15.321   0.284  19.118
    1STR   O05954189  15.172   0.259  19.261
    1STR   C06054190  15.254   0.242  19.376
    1STR   H06154191  15.307   0.147  19.371
    1STR   C06254192  15.354   0.358  19.387
    1STR   H06354193  15.303   0.454  19.387
    1STR   H06454194  15.425   0.358  19.305
    1STR   H06554195  15.411   0.351  19.479
    1STR   C06654196  15.160   0.237  19.498
    1STR   H06754197  15.106   0.331  19.508
    1STR   H06854198  15.086   0.159  19.483
    1STR   O06954199  15.237   0.211  19.616
    1STR   C07054200  15.163   0.208  19.737
    1STR   H07154201  15.091   0.291  19.740
    1STR   C07254202  15.089   0.074  19.751
    1STR   H07354203  15.158  60.150  19.744
    1STR   H07454204  15.013   0.061  19.674
    1STR   H07554205  15.039   0.067  19.847
    1STR   C07654206  15.262   0.229  19.853
    1STR   H07754207  15.335   0.148  19.854
    1STR   H07854208  15.318   0.321  19.835
    1STR   O07954209  15.191   0.236  19.976
    1STR   C08054210  15.272   0.252  20.092
    1STR   H08154211  15.359   0.186  20.086
    1STR   C08254212  15.318   0.398  20.105
    1STR   H08354213  15.233   0.466  20.106
    1STR   H08454214  15.384   0.428  20.024
    1STR   H08554215  15.374   0.413  20.198
    1STR   C08654216  15.188   0.208  20.213
    1STR   H08754217  15.101   0.273  20.223
    1STR   H08854218  15.151   0.107  20.196
    1STR   O08954219  15.269   0.213  20.331
    1STR   C09054220  15.201   0.178  20.452
    1STR   H09154221  15.103   0.225  20.454
    1STR   C09254222  15.188   0.026  20.462
    1STR   H09354223  15.285  60.137  20.455
    1STR   H09454224  15.123  60.145  20.385
    1STR   H09554225  15.144  60.157  20.558
    1STR   C09654226  15.284   0.235  20.568
    1STR   H09754227  15.383   0.190  20.569
    1STR   H09854228  15.298   0.342  20.552
    1STR   O09954229  15.216   0.212  20.691
    1STR   C10054230  15.284   0.257  20.808
    1STR   H10154231  15.390   0.231  20.802
    1STR   C10254232  15.267   0.409  20.823
    1STR   H10354233  15.162   0.437  20.824
    1STR   H10454234  15.316   0.464  20.742
    1STR   H10554235  15.312   0.443  20.916
    1STR   C10654236  15.224   0.181  20.927
    1STR   H10754237  15.118   0.206  20.937
    1STR   H10854238  15.230   0.074  20.909
    1STR   O10954239  15.295   0.215  21.046
    1STR   C11054240  15.247   0.155  21.165
    1STR   H11154241  15.138   0.158  21.168
    1STR   C11254242  15.295   0.009  21.174
    1STR   H11354243  15.404   0.004  21.166
    1STR   H11454244  15.253  60.107  21.095
    1STR   H11554245  15.266  60.124  21.269
    1STR   C11654246  15.299   0.238  21.283
    1STR   H11754247  15.408   0.236  21.285
    1STR   H11854248  15.270   0.342  21.269
    1STR   O11954249  15.246   0.187  21.405
    1STR   C12054250  15.290   0.254  21.523
    1STR   H12154251  15.397   0.273  21.518
    1STR   C12254252  15.214   0.386  21.540
    1STR   H12354253  15.106   0.370  21.541
    1STR   H12454254  15.237   0.457  21.461
    1STR   H12554255  15.241   0.434  21.635
    1STR   C12654256  15.264   0.159  21.641
    1STR   H12754257  15.158   0.139  21.651
    1STR   H12854258  15.313   0.063  21.621
    1STR   O12954259  15.316   0.217  21.761
    1STR   C13054260  15.295   0.140  21.879
    1STR   H13154261  15.194   0.100  21.880
    1STR   C13254262  15.398   0.026  21.886
    1STR   H13354263  15.500   0.064  21.879
    1STR   H13454264  15.384  60.113  21.806
    1STR   H13554265  15.389  60.131  21.980
    1STR   C13654266  15.310   0.236  21.998
    1STR   H13754267  15.411   0.277  22.001
    1STR   H13854268  15.241   0.319  21.985
    1STR   O13954269  15.281   0.165  22.119
    1STR   C14054270  15.295   0.242  22.238
    1STR   H14154271  15.385   0.302  22.234
    1STR   C14254272  15.172   0.333  22.257
    1STR   H14354273  15.080   0.274  22.256
    1STR   H14454274  15.164   0.408  22.179
    1STR   H14554275  15.177   0.385  22.352
    1STR   C14654276  15.309   0.143  22.355
    1STR   H14754277  15.219   0.081  22.363
    1STR   H14854278  15.392   0.075  22.334
    1STR   O14954279  15.333   0.215  22.476
    1STR   C15054280  15.344   0.134  22.593
    1STR   H15154281  15.267   0.057  22.593
    1STR   C15254282  15.484   0.070  22.599
    1STR   H15354283  15.562   0.146  22.594
    1STR   H15454284  15.500  60.160  22.518
    1STR   H15554285  15.497   0.015  22.692
    1STR   C15654286  15.319   0.226  22.713
    1STR   H15754287  15.395   0.304  22.718
    1STR   H15854288  15.222   0.275  22.701
    1STR   O15954289  15.320   0.148  22.833
    1STR   C16054290  15.301   0.222  22.953
    1STR   H16154291  15.361   0.313  22.951
    1STR   C16254292  15.153   0.255  22.972
    1STR   H16354293  15.091   0.165  22.970
    1STR   H16454294  15.116   0.323  22.895
    1STR   H16554295  15.136   0.304  23.068
    1STR   C16654296  15.354   0.135  23.069
    1STR   H16754297  15.296   0.042  23.075
    1STR   H16854298  15.457   0.106  23.047
    1STR   O16954299  15.346   0.208  23.191
    1STR   C17054300  15.389   0.137  23.307
    1STR   H17154301  15.349   0.035  23.305
    1STR   C17254302  15.542   0.134  23.313
    1STR   H17354303  15.584   0.235  23.310
    1STR   H17454304  15.586   0.077  23.231
    1STR   H17554305  15.576   0.087  23.406
    1STR   C17654306  15.329   0.209  23.428
    1STR   H17754307  15.367   0.311  23.434
    1STR   H17854308  15.221   0.216  23.416
    1STR   O17954309  15.360   0.136  23.547
    1STR   C18054310  15.313   0.194  23.668
    1STR   H18154311  15.331   0.302  23.667
    1STR   C18254312  15.163   0.165  23.686
    1STR   H18354313  15.143   0.058  23.682
    1STR   H18454314  15.103   0.214  23.609
    1STR   H18554315  15.128   0.202  23.782
    1STR   C18654316  15.396   0.133  23.783
    1STR   H18754317  15.379   0.026  23.787
    1STR   H18854318  15.502   0.149  23.762
    1STR   O18954319  15.360   0.195  23.906
    1STR   C19054320  15.426   0.145  24.021
    1STR   H19154321  15.431   0.036  24.017
    1STR   C19254322  15.568   0.204  24.029
    1STR   H19354323  15.566   0.313  24.028
    1STR   H19454324  15.631   0.170  23.947
    1STR   H19554325  15.617   0.173  24.121
    1STR   C19654326  15.342   0.185  24.143
    1STR   H19754327  15.337   0.294  24.151
    1STR   H19854328  15.240   0.149  24.130
    1STR   O19954329  15.400   0.129  24.261
    1STR   C20054330  15.334   0.162  24.382
    1STR   H20154331  15.306   0.267  24.383
    1STR   C20254332  15.208   0.075  24.398
    1STR   H20354333  15.232  60.129  24.393
    1STR   H20454334  15.133   0.096  24.322
    1STR   H20554335  15.161   0.093  24.495
    1STR   C20654336  15.433   0.137  24.497
    1STR   H20754337  15.462   0.032  24.500
    1STR   H20854338  15.524   0.194  24.477
    1STR   O20954339  15.375   0.178  24.620
    1STR   C21054340  15.456   0.156  24.735
    1STR   H21154341  15.503   0.058  24.731
    1STR   C21254342  15.562   0.267  24.746
    1STR   H21354343  15.517   0.366  24.746
    1STR   H21454344  15.634   0.263  24.663
    1STR   H21554345  15.619   0.256  24.838
    1STR   C21654346  15.362   0.157  24.858
    1STR   H21754347  15.314   0.255  24.867
    1STR   H21854348  15.283   0.084  24.842
    1STR   O21954349  15.437   0.127  24.975
    1STR   C22054350  15.363   0.128  25.096
    1STR   H22154351  15.296   0.215  25.099
    1STR   C22254352  15.282  60.158  25.110
    1STR   H22354353  15.347  60.071  25.103
    1STR   H22454354  15.205  60.149  25.033
    1STR   H22554355  15.231  60.154  25.206
    1STR   C22654356  15.463   0.144  25.211
    1STR   H22754357  15.531   0.059  25.213
    1STR   H22854358  15.524   0.233  25.193
    1STR   O22954359  15.393   0.155  25.335
    1STR   C23054360  15.475   0.166  25.450
    1STR   H23154361  15.559   0.096  25.444
    1STR   C23254362  15.529   0.310  25.463
    1STR   H23354363  15.447   0.382  25.464
    1STR   H23454364  15.596   0.336  25.382
    1STR   H23554365  15.585   0.322  25.556
    1STR   C23654366  15.389   0.128  25.571
    1STR   H23754367  15.306   0.197  25.582
    1STR   H23854368  15.346   0.029  25.555
    1STR   O23954369  15.470   0.128  25.689
    1STR   C24054370  15.401   0.098  25.810
    1STR   H24154371  15.305   0.150  25.812
    1STR   C24254372  15.379  60.106  25.821
    1STR   H24354373  15.473  60.052  25.813
    1STR   H24454374  15.312  60.068  25.743
    1STR   H24554375  15.334  60.080  25.917
    1STR   C24654376  15.486   0.151  25.926
    1STR   H24754377  15.583   0.100  25.927
    1STR   H24854378  15.506   0.257  25.910
    1STR   O24954379  15.417   0.131  26.049
    1STR   C25054380  15.488   0.172  26.165
    1STR   H25154381  15.592   0.141  26.159
    1STR   C25254382  15.479   0.325  26.180
    1STR   H25354383  15.376   0.359  26.182
    1STR   H25454384  15.531   0.377  26.100
    1STR   H25554385  15.526   0.357  26.274
    1STR   C25654386  15.423   0.100  26.285
    1STR   H25754387  15.319   0.131  26.295
    1STR   H25854388  15.424  60.153  26.266
    1STR   O25954389  15.497   0.131  26.403
    1STR   C26054390  15.445   0.074  26.522
    1STR   H26154391  15.336   0.083  26.525
    1STR   C26254392  15.485  60.086  26.531
    1STR   H26354393  15.594  60.074  26.524
    1STR   H26454394  15.440  60.026  26.453
    1STR   H26554395  15.454  60.043  26.627
    1STR   C26654396  15.503   0.154  26.640
    1STR   H26754397  15.611   0.146  26.642
    1STR   H26854398  15.479   0.260  26.625
    1STR   O26954399  15.446   0.107  26.762
    1STR   C27054400  15.494   0.171  26.879
    1STR   H27154401  15.603   0.184  26.874
    1STR   C27254402  15.426   0.307  26.897
    1STR   H27354403  15.317   0.297  26.898
    1STR   H27454404  15.452   0.377  26.818
    1STR   H27554405  15.455   0.353  26.991
    1STR   C27654406  15.464   0.077  26.997
    1STR   H27754407  15.356   0.063  27.007
    1STR   H27854408  15.507  60.139  26.977
    1STR   O27954409  15.519   0.132  27.116
    1STR   C28054410  15.494   0.057  27.234
    1STR   H28154411  15.390   0.022  27.236
    1STR   C28254412  15.590  60.098  27.242
    1STR   H28354413  15.694  60.131  27.236
    1STR   H28454414  15.573  60.026  27.162
    1STR   H28554415  15.578  60.045  27.337
    1STR   C28654416  15.513   0.153  27.353
    1STR   H28754417  15.616   0.189  27.356
    1STR   H28854418  15.449   0.240  27.340
    1STR   O28954419  15.480   0.085  27.474
    1STR   C29054420  15.499   0.161  27.592
    1STR   H29154421  15.593   0.216  27.588
    1STR   C29254422  15.382   0.258  27.612
    1STR   H29354423  15.286   0.205  27.612
    1STR   H29454424  15.377   0.334  27.533
    1STR   H29554425  15.391   0.311  27.707
    1STR   C29654426  15.509   0.061  27.708
    1STR   H29754427  15.416   0.005  27.717
    1STR   H29854428  15.588  60.148  27.687
    1STR   O29954429  15.538   0.132  27.828
    1STR   C30054430  15.544   0.051  27.945
    1STR   H30154431  15.463  60.138  27.945
    1STR   C30254432  15.680  60.140  27.953
    1STR   H30354433  15.762   0.052  27.949
    1STR   H30454434  15.694  60.069  27.872
    1STR   H30554435  15.689  60.085  28.046
    1STR   C30654436  15.523   0.145  28.064
    1STR   H30754437  15.602   0.220  28.068
    1STR   H30854438  15.429   0.199  28.051
    1STR   O30954439  15.519   0.068  28.183
    1STR    H1R54440  15.562   0.233  28.300
    1STR    H1S54441  15.336   0.232  28.414
    1STR    H1T54442  15.291   0.088  28.325
    1STR    H1U54443  15.315   0.240  28.241
    1STR    H1V54444  15.656   0.021  28.393
    1STR    H1W54445  15.496  60.121  28.425
    1STR    H1X54446  15.572   0.243  28.720
    1STR    H1Y54447  15.532   0.384  28.906
    1STR    H1Z54448  15.410   0.428  29.114
    1STR    H2054449  15.094   0.267  29.210
    1STR    H2154450  15.239   0.232  29.305
    1STR    H2254451  15.208   0.396  29.248
    1STR    H2354452  15.058   0.056  28.998
    1STR    H2754453  15.284   0.036  28.837
    1STR    H2854454  15.200   0.457  16.405
    1STR    H2954455  15.272   0.492  16.179
    1STR    H2A54456  15.330   0.232  15.932
    1STR    H2B54457  15.361   0.397  15.979
    1STR    H2C54458  15.207   0.356  15.904
    1STR   BCK154459  15.048  60.153  30.976
    1STR    O0354460  15.039  60.041  30.929
    1STR    N0454461  14.994   0.032  31.093
    1STR    C0554462  14.905  60.124  31.177
    1STR    C0654463  14.932  60.114  31.316
    1STR    C0754464  14.839  60.055  31.407
    1STR    N0854465  14.868  60.051  31.545
    1STR    C0954466  14.792  60.014  31.650
    1STR    O0A54467  14.677  59.972  31.641
    1STR    O0B54468  14.858  60.027  31.769
    1STR    C0C54469  14.796  59.982  31.891
    1STR    C0D54470  14.816  59.831  31.905
    1STR    C0E54471  14.850  60.058  32.014
    1STR    O0F54472  14.785  60.012  32.133
    1STR    C0G54473  14.822  60.077  32.256
    1STR    C0H54474  14.751   0.054  32.265
    1STR    C0I54475  14.783  59.988  32.376
    1STR    O0J54476  14.826  60.048  32.498
    1STR    C0K54477  14.618   0.202  43.354
    1STR    C0M54478  14.697   0.071  43.363
    1STR    C0N54479  14.653   0.297  43.471
    1STR    O0O54480  14.608   0.245  43.596
    1STR    C0P54481  14.695   0.192  43.684
    1STR    O0Q54482  14.815   0.179  43.666
    1STR    N0R54483  14.628   0.156  43.793
    1STR    C0S54484  14.668   0.094  43.912
    1STR    C0T54485  14.567   0.060  44.004
    1STR    C0U54486  14.598  60.154  44.124
    1STR    C0V54487  14.731  60.120  44.155
    1STR    C0W54488  14.757  60.041  44.282
    1STR    C0X54489  14.836  60.158  44.067
    1STR    N0Y54490  14.968  60.124  44.092
    1STR   BCK254491  15.041  60.148  44.201
    1STR    O1054492  15.003   0.056  44.296
    1STR    C1354493  14.803   0.063  43.945
    1STR    C1454494  14.719  60.004  31.353
    1STR    C1554495  14.691  60.015  31.216
    1STR    C1654496  14.781  60.076  31.127
    1STR    C1754497  14.740  60.093  30.982
    1STR    H1B54498  15.021   0.125  31.121
    1STR    H1C54499  15.026  60.152  31.353
    1STR    H1D54500  14.959  60.082  31.575
    1STR    H1E54501  14.688  60.003  31.886
    1STR    H1F54502  14.922  59.805  31.912
    1STR    H1G54503  14.767  59.793  31.995
    1STR    H1H54504  14.774  59.777  31.821
    1STR    H1I54505  14.832   0.005  32.000
    1STR    H1J54506  14.958  60.045  32.023
    1STR    H1K54507  14.930  60.091  32.258
    1STR    H1M54508  14.643   0.042  32.258
    1STR    H1N54509  14.782   0.122  32.186
    1STR    H1O54510  14.773   0.102  32.360
    1STR    H1P54511  14.675  59.972  32.377
    1STR    H1Q54512  14.829  59.890  32.363
    1STR   C01054513  14.792  59.979  32.619
    1STR   H01154514  14.688  59.946  32.615
    1STR   C01254515  14.884  59.857  32.637
    1STR   H01354516  14.989  59.887  32.637
    1STR   H01454517  14.870  59.783  32.559
    1STR   H01554518  14.865  59.808  32.732
    1STR   C01654519  14.806  60.077  32.737
    1STR   H01754520  14.909  60.113  32.743
    1STR   H01854521  14.744   0.004  32.718
    1STR   O01954522  14.768  60.015  32.860
    1STR   C02054523  14.782  60.095  32.978
    1STR   H02154524  14.877  60.149  32.975
    1STR   C02254525  14.665   0.035  32.985
    1STR   H02354526  14.569  60.144  32.983
    1STR   H02454527  14.667   0.107  32.904
    1STR   H02554528  14.670   0.093  33.078
    1STR   C02654529  14.783  60.003  33.101
    1STR   H02754530  14.689  59.948  33.107
    1STR   H02854531  14.863  59.930  33.090
    1STR   O02954532  14.803  60.080  33.220
    1STR   C03054533  14.802  60.006  33.343
    1STR   H03154534  14.720  59.934  33.342
    1STR   C03254535  14.936  59.934  33.361
    1STR   H03354536  15.020  60.004  33.357
    1STR   H03454537  14.953  59.858  33.285
    1STR   H03554538  14.940  59.883  33.457
    1STR   C03654539  14.777  60.105  33.458
    1STR   H03754540  14.857   0.019  33.462
    1STR   H03854541  14.684  60.160  33.438
    1STR   O03954542  14.767  60.034  33.582
    1STR   C04054543  14.748  60.115  33.698
    1STR   H04154544  14.814   0.043  33.694
    1STR   C04254545  14.601   0.000  33.707
    1STR   H04354546  14.534  60.075  33.706
    1STR   H04454547  14.573   0.066  33.624
    1STR   H04554548  14.583   0.056  33.799
    1STR   C04654549  14.788  60.032  33.821
    1STR   H04754550  14.723  59.944  33.829
    1STR   H04854551  14.890  59.996  33.808
    1STR   O04954552  14.778  60.112  33.939
    1STR   C05054553  14.809  60.045  34.061
    1STR   H05154554  14.762  59.946  34.062
    1STR   C05254555  14.961  60.031  34.077
    1STR   H05354556  15.010  60.129  34.072
    1STR   H05454557  15.005  59.967  34.001
    1STR   H05554558  14.986  59.987  34.174
    1STR   C05654559  14.748  60.127  34.176
    1STR   H05754560  14.793   0.066  34.179
    1STR   H05854561  14.641  60.140  34.157
    1STR   O05954562  14.768  60.058  34.300
    1STR   C06054563  14.719  60.126  34.416
    1STR   H06154564  14.744   0.072  34.410
    1STR   C06254565  14.567  60.108  34.426
    1STR   H06354566  14.540  60.003  34.427
    1STR   H06454567  14.514  60.156  34.344
    1STR   H06554568  14.529  60.152  34.519
    1STR   C06654569  14.791  60.066  34.538
    1STR   H06754570  14.767  59.960  34.547
    1STR   H06854571  14.899  60.074  34.523
    1STR   O06954572  14.752  60.137  34.655
    1STR   C07054573  14.809  60.089  34.777
    1STR   H07154574  14.806  59.980  34.779
    1STR   C07254575  14.954  60.139  34.790
    1STR   H07354576  14.959   0.087  34.783
    1STR   H07454577  15.019  60.097  34.714
    1STR   H07554578  14.996  60.110  34.887
    1STR   C07654579  14.721  60.141  34.892
    1STR   H07754580  14.723   0.090  34.894
    1STR   H07854581  14.618  60.111  34.875
    1STR   O07954582  14.769  60.088  35.016
    1STR   C08054583  14.699  60.132  35.132
    1STR   H08154584  14.679   0.079  35.126
    1STR   C08254585  14.566  60.055  35.145
    1STR   H08354586  14.583  59.947  35.146
    1STR   H08454587  14.497  60.077  35.064
    1STR   H08554588  14.515  60.081  35.238
    1STR   C08654589  14.790  60.107  35.253
    1STR   H08754590  14.810  60.000  35.263
    1STR   H08854591  14.886  60.156  35.236
    1STR   O08954592  14.728  60.158  35.371
    1STR   C09054593  14.801  60.137  35.491
    1STR   H09154594  14.841  60.036  35.494
    1STR   C09254595  14.914   0.081  35.502
    1STR   H09354596  14.876   0.182  35.495
    1STR   H09454597  14.989   0.067  35.425
    1STR   H09554598  14.965   0.072  35.598
    1STR   C09654599  14.701  60.151  35.608
    1STR   H09754600  14.659   0.092  35.609
    1STR   H09854601  14.618  60.082  35.592
    1STR   O09954602  14.767  60.123  35.731
    1STR   C10054603  14.687  60.136  35.848
    1STR   H10154604  14.626   0.066  35.842
    1STR   C10254605  14.596  60.012  35.863
    1STR   H10354606  14.655  59.921  35.864
    1STR   H10454607  14.524  60.004  35.782
    1STR   H10554608  14.540  60.017  35.956
    1STR   C10654609  14.782  60.151  35.967
    1STR   H10754610  14.844  60.061  35.977
    1STR   H10854611  14.850   0.074  35.949
    1STR   O10954612  14.706   0.014  36.086
    1STR   C11054613  14.783   0.025  36.205
    1STR   H11154614  14.861  60.109  36.208
    1STR   C11254615  14.845   0.166  36.214
    1STR   H11354616  14.769   0.243  36.207
    1STR   H11454617  14.918   0.183  36.135
    1STR   H11554618  14.897   0.179  36.309
    1STR   C11654619  14.688  60.159  36.323
    1STR   H11754620  14.609   0.075  36.325
    1STR   H11854621  14.639  60.063  36.309
    1STR   O11954622  14.762   0.001  36.445
    1STR   C12054623  14.684  60.142  36.563
    1STR   H12154624  14.592   0.040  36.558
    1STR   C12254625  14.651  59.993  36.580
    1STR   H12354626  14.742  59.932  36.581
    1STR   H12454627  14.586  59.955  36.501
    1STR   H12554628  14.599  59.975  36.675
    1STR   C12654629  14.767   0.035  36.681
    1STR   H12754630  14.860  60.137  36.691
    1STR   H12854631  14.796   0.138  36.661
    1STR   O12954632  14.690   0.027  36.801
    1STR   C13054633  14.757   0.069  36.919
    1STR   H13154634  14.859   0.030  36.920
    1STR   C13254635  14.759   0.223  36.926
    1STR   H13354636  14.658   0.264  36.919
    1STR   H13454637  14.818   0.267  36.845
    1STR   H13554638  14.802   0.257  37.020
    1STR   C13654639  14.682   0.009  37.038
    1STR   H13754640  14.580   0.046  37.041
    1STR   H13854641  14.676  60.061  37.025
    1STR   O13954642  14.751   0.041  37.159
    1STR   C14054643  14.689  60.153  37.278
    1STR   H14154644  14.581   0.010  37.274
    1STR   C14254645  14.718  60.004  37.297
    1STR   H14354646  14.825  59.984  37.296
    1STR   H14454647  14.673  59.943  37.219
    1STR   H14554648  14.679  59.968  37.392
    1STR   C14654649  14.745   0.076  37.395
    1STR   H14754650  14.853   0.061  37.403
    1STR   H14854651  14.730   0.182  37.374
    1STR   O14954652  14.679   0.039  37.516
    1STR   C15054653  14.725   0.106  37.633
    1STR   H15154654  14.834   0.111  37.633
    1STR   C15254655  14.665   0.248  37.639
    1STR   H15354656  14.557   0.245  37.634
    1STR   H15454657  14.701   0.311  37.558
    1STR   H15554658  14.693   0.297  37.732
    1STR   C15654659  14.682   0.022  37.754
    1STR   H15754660  14.573   0.015  37.758
    1STR   H15854661  14.719  60.080  37.741
    1STR   O15954662  14.734   0.080  37.873
    1STR   C16054663  14.698   0.013  37.993
    1STR   H16154664  14.592  60.145  37.991
    1STR   C16254665  14.785  60.048  38.012
    1STR   H16354666  14.891  60.073  38.010
    1STR   H16454667  14.766  59.973  37.935
    1STR   H16554668  14.764  60.000  38.108
    1STR   C16654669  14.718   0.113  38.109
    1STR   H16754670  14.823   0.141  38.115
    1STR   H16854671  14.661   0.203  38.087
    1STR   O16954672  14.674   0.054  38.231
    1STR   C17054673  14.691   0.135  38.347
    1STR   H17154674  14.788   0.183  38.345
    1STR   C17254675  14.579   0.240  38.353
    1STR   H17354676  14.481   0.194  38.350
    1STR   H17454677  14.586   0.312  38.271
    1STR   H17554678  14.586   0.298  38.446
    1STR   C17654679  14.686   0.041  38.468
    1STR   H17754680  14.589  60.152  38.474
    1STR   H17854681  14.761  60.122  38.456
    1STR   O17954682  14.712   0.116  38.587
    1STR   C18054683  14.707   0.041  38.708
    1STR   H18154684  14.621  60.134  38.707
    1STR   C18254685  14.837  60.121  38.726
    1STR   H18354686  14.924   0.026  38.722
    1STR   H18454687  14.849  60.045  38.649
    1STR   H18554688  14.838  60.070  38.822
    1STR   C18654689  14.687   0.142  38.822
    1STR   H18754690  14.772   0.210  38.827
    1STR   H18854691  14.599   0.202  38.802
    1STR   O18954692  14.672   0.072  38.946
    1STR   C19054693  14.657   0.154  39.061
    1STR   H19154694  14.727   0.237  39.057
    1STR   C19254695  14.513   0.207  39.069
    1STR   H19354696  14.441   0.125  39.068
    1STR   H19454697  14.489   0.274  38.986
    1STR   H19554698  14.497   0.263  39.161
    1STR   C19654699  14.692   0.068  39.183
    1STR   H19754700  14.622  60.144  39.191
    1STR   H19854701  14.792   0.025  39.170
    1STR   O19954702  14.687   0.148  39.301
    1STR   C20054703  14.714   0.079  39.422
    1STR   H20154704  14.663  60.143  39.423
    1STR   C20254705  14.866   0.058  39.438
    1STR   H20354706  14.919   0.153  39.433
    1STR   H20454707  14.906  60.152  39.362
    1STR   H20554708  14.888   0.013  39.535
    1STR   C20654709  14.657   0.164  39.537
    1STR   H20754710  14.708   0.261  39.540
    1STR   H20854711  14.552   0.184  39.517
    1STR   O20954712  14.673   0.095  39.660
    1STR   C21054713  14.628   0.165  39.775
    1STR   H21154714  14.659   0.270  39.771
    1STR   C21254715  14.475   0.156  39.786
    1STR   H21354716  14.442   0.052  39.786
    1STR   H21454717  14.425   0.207  39.703
    1STR   H21554718  14.439   0.202  39.878
    1STR   C21654719  14.696   0.102  39.898
    1STR   H21754720  14.666  60.157  39.907
    1STR   H21854721  14.804   0.103  39.883
    1STR   O21954722  14.661   0.175  40.015
    1STR   C22054723  14.715   0.123  40.136
    1STR   H22154724  14.706   0.014  40.139
    1STR   C22254725  14.863   0.165  40.150
    1STR   H22354726  14.874   0.273  40.143
    1STR   H22454727  14.925   0.120  40.073
    1STR   H22554728  14.903   0.134  40.246
    1STR   C22654729  14.630   0.180  40.251
    1STR   H22754730  14.638   0.289  40.253
    1STR   H22854731  14.526   0.155  40.234
    1STR   O22954732  14.674   0.124  40.375
    1STR   C23054733  14.606   0.171  40.491
    1STR   H23154734  14.593   0.280  40.485
    1STR   C23254735  14.470   0.102  40.503
    1STR   H23354736  14.481  60.153  40.504
    1STR   H23454737  14.403   0.128  40.422
    1STR   H23554738  14.420   0.131  40.596
    1STR   C23654739  14.696   0.141  40.612
    1STR   H23754740  14.711   0.034  40.622
    1STR   H23854741  14.794   0.186  40.595
    1STR   O23954742  14.636   0.196  40.729
    1STR   C24054743  14.708   0.171  40.850
    1STR   H24154744  14.743   0.068  40.853
    1STR   C24254745  14.826   0.268  40.861
    1STR   H24354746  14.793   0.372  40.854
    1STR   H24454747  14.901   0.252  40.783
    1STR   H24554748  14.877   0.257  40.957
    1STR   C24654749  14.609   0.190  40.966
    1STR   H24754750  14.572   0.293  40.968
    1STR   H24854751  14.523   0.126  40.950
    1STR   O24954752  14.673   0.158  41.089
    1STR   C25054753  14.593   0.175  41.206
    1STR   H25154754  14.538   0.269  41.200
    1STR   C25254755  14.497   0.057  41.221
    1STR   H25354756  14.550  60.122  41.222
    1STR   H25454757  14.423   0.053  41.140
    1STR   H25554758  14.441   0.065  41.314
    1STR   C25654759  14.689   0.185  41.326
    1STR   H25754760  14.746   0.092  41.336
    1STR   H25854761  14.761   0.264  41.307
    1STR   O25954762  14.614   0.212  41.444
    1STR   C26054763  14.691   0.219  41.564
    1STR   H26154764  14.765   0.139  41.567
    1STR   C26254765  14.761   0.356  41.573
    1STR   H26354766  14.689   0.438  41.565
    1STR   H26454767  14.835   0.369  41.494
    1STR   H26554768  14.814   0.367  41.668
    1STR   C26654769  14.595   0.199  41.682
    1STR   H26754770  14.520   0.278  41.683
    1STR   H26854771  14.541   0.105  41.668
    1STR   O26954772  14.668   0.196  41.804
    1STR   C27054773  14.590   0.181  41.922
    1STR   H27154774  14.501   0.245  41.917
    1STR   C27254775  14.548   0.034  41.939
    1STR   H27354776  14.636  60.129  41.940
    1STR   H27454777  14.482   0.001  41.859
    1STR   H27554778  14.495   0.019  42.033
    1STR   C27654779  14.675   0.229  42.041
    1STR   H27754780  14.764   0.167  42.050
    1STR   H27854781  14.709   0.331  42.021
    1STR   O27954782  14.597   0.225  42.160
    1STR   C28054783  14.666   0.264  42.279
    1STR   H28154784  14.766   0.219  42.281
    1STR   C28254785  14.676   0.417  42.286
    1STR   H28354786  14.578   0.463  42.278
    1STR   H28454787  14.739   0.458  42.206
    1STR   H28554788  14.721   0.448  42.380
    1STR   C28654789  14.587   0.207  42.398
    1STR   H28754790  14.487   0.250  42.400
    1STR   H28854791  14.576   0.100  42.385
    1STR   O28954792  14.657   0.236  42.519
    1STR   C29054793  14.592   0.192  42.638
    1STR   H29154794  14.486   0.214  42.634
    1STR   C29254795  14.614   0.041  42.656
    1STR   H29354796  14.720   0.016  42.656
    1STR   H29454797  14.565  60.143  42.578
    1STR   H29554798  14.572   0.007  42.752
    1STR   C29654799  14.653   0.271  42.756
    1STR   H29754800  14.759   0.250  42.764
    1STR   H29854801  14.643   0.378  42.735
    1STR   O29954802  14.585   0.237  42.877
    1STR   C30054803  14.635   0.301  42.994
    1STR   H30154804  14.744   0.302  42.993
    1STR   C30254805  14.582   0.445  43.001
    1STR   H30354806  14.473   0.448  42.996
    1STR   H30454807  14.620   0.507  42.920
    1STR   H30554808  14.612   0.493  43.094
    1STR   C30654809  14.590   0.218  43.115
    1STR   H30754810  14.481   0.219  43.123
    1STR   H30854811  14.620   0.115  43.099
    1STR   O30954812  14.650   0.271  43.233
    1STR    H1R54813  14.511   0.182  43.358
    1STR    H1S54814  14.677   0.019  43.457
    1STR    H1T54815  14.805   0.089  43.359
    1STR    H1U54816  14.672   0.001  43.283
    1STR    H1V54817  14.604   0.393  43.455
    1STR    H1W54818  14.760   0.319  43.472
    1STR    H1X54819  14.530   0.177  43.783
    1STR    H1Y54820  14.464   0.082  43.983
    1STR    H1Z54821  14.519  60.127  44.191
    1STR    H2054822  14.840  59.971  44.269
    1STR    H2154823  14.781  60.109  44.363
    1STR    H2254824  14.670  59.982  44.311
    1STR    H2354825  15.019  60.078  44.018
    1STR    H2754826  14.883   0.090  43.877
    1STR    H2854827  14.644  59.957  31.414
    1STR    H2954828  14.596  59.977  31.179
    1STR    H2A54829  14.773   0.029  30.943
    1STR    H2B54830  14.631  60.090  30.971
    1STR    H2C54831  14.782  60.014  30.921
    1STR   BCK154832  15.183   0.053  46.020
    1STR    O0354833  15.291   0.110  46.005
    1STR    N0454834  15.148  60.144  46.129
    1STR    C0554835  15.236  60.101  46.228
    1STR    C0654836  15.213  60.134  46.364
    1STR    C0754837  15.300  60.087  46.467
    1STR    N0854838  15.272  60.118  46.601
    1STR    C0954839  15.350  60.106  46.709
    1STR    O0A54840  15.468  60.071  46.707
    1STR    O0B54841  15.284  60.137  46.823
    1STR    C0C54842  15.353  60.132  46.949
    1STR    C0D54843  15.434   0.102  46.967
    1STR    C0E54844  15.255  60.109  47.065
    1STR    O0F54845  15.331  60.097  47.186
    1STR    C0G54846  15.256  60.073  47.305
    1STR    C0H54847  15.216  59.925  47.312
    1STR    C0I54848  15.345  60.112  47.425
    1STR    O0J54849  15.272  60.099  47.547
    1STR    C0K54850  15.200  59.718  58.393
    1STR    C0M54851  15.240  59.866  58.408
    1STR    C0N54852  15.101  59.673  58.503
    1STR    O0O54853  15.165  59.656  58.629
    1STR    C0P54854  15.161  59.752  58.722
    1STR    O0Q54855  15.101  59.859  58.711
    1STR    N0R54856  15.236  59.716  58.826
    1STR    C0S54857  15.279  59.792  58.935
    1STR    C0T54858  15.402  59.758  58.995
    1STR    C0U54859  15.461  59.843  59.090
    1STR    C0V54860  15.397  59.963  59.129
    1STR    C0W54861  15.483  60.065  59.201
    1STR    C0X54862  15.265  59.989  59.085
    1STR    N0Y54863  15.188  60.101  59.118
    1STR   BCK254864  15.167   0.022  59.223
    1STR    O1054865  15.092   0.118  59.206
    1STR    C1354866  15.209  59.904  58.986
    1STR    C1454867  15.410  60.007  46.429
    1STR    C1554868  15.432  59.972  46.295
    1STR    C1654869  15.345  60.017  46.194
    1STR    C1754870  15.368  59.968  46.052
    1STR    H1B54871  15.053  60.113  46.132
    1STR    H1C54872  15.129   0.036  46.389
    1STR    H1D54873  15.182  60.156  46.624
    1STR    H1E54874  15.422  60.047  46.948
    1STR    H1F54875  15.369   0.189  46.969
    1STR    H1G54876  15.490   0.099  47.061
    1STR    H1H54877  15.506   0.115  46.887
    1STR    H1I54878  15.198  60.018  47.047
    1STR    H1J54879  15.184   0.031  47.072
    1STR    H1K54880  15.167  60.137  47.307
    1STR    H1M54881  15.303  59.861  47.306
    1STR    H1N54882  15.147  59.897  47.233
    1STR    H1O54883  15.165  59.904  47.407
    1STR    H1P54884  15.435  60.050  47.427
    1STR    H1Q54885  15.379   0.055  47.412
    1STR   C01054886  15.344  60.127  47.666
    1STR   H01154887  15.443  60.080  47.662
    1STR   C01254888  15.358   0.119  47.684
    1STR   H01354889  15.261   0.168  47.684
    1STR   H01454890  15.420   0.164  47.606
    1STR   H01554891  15.406   0.142  47.780
    1STR   C01654892  15.267  60.064  47.784
    1STR   H01754893  15.167  60.108  47.790
    1STR   H01854894  15.254  59.957  47.764
    1STR   O01954895  15.338  60.083  47.906
    1STR   C02054896  15.274  60.032  48.023
    1STR   H02154897  15.168  60.057  48.021
    1STR   C02254898  15.293  59.880  48.030
    1STR   H02354899  15.399  59.853  48.027
    1STR   H02454900  15.243  59.828  47.948
    1STR   H02554901  15.251  59.840  48.123
    1STR   C02654902  15.336  60.102  48.145
    1STR   H02754903  15.443  60.079  48.151
    1STR   H02854904  15.327   0.050  48.133
    1STR   O02954905  15.269  60.059  48.264
    1STR   C03054906  15.320  60.113  48.386
    1STR   H03154907  15.429  60.111  48.385
    1STR   C03254908  15.270   0.098  48.404
    1STR   H03354909  15.161   0.102  48.400
    1STR   H03454910  15.309   0.165  48.327
    1STR   H03554911  15.301   0.137  48.500
    1STR   C03654912  15.271  60.023  48.501
    1STR   H03754913  15.162  60.024  48.505
    1STR   H03854914  15.302  59.920  48.481
    1STR   O03954915  15.326  60.068  48.624
    1STR   C04054916  15.286  59.995  48.740
    1STR   H04154917  15.178  59.976  48.736
    1STR   C04254918  15.363  59.863  48.748
    1STR   H04354919  15.471  59.881  48.748
    1STR   H04454920  15.339  59.796  48.666
    1STR   H04554921  15.339  59.810  48.841
    1STR   C04654922  15.313  60.084  48.863
    1STR   H04754923  15.420  60.105  48.871
    1STR   H04854924  15.262   0.020  48.849
    1STR   O04954925  15.266  60.019  48.980
    1STR   C05054926  15.288  60.089  49.102
    1STR   H05154927  15.389  60.131  49.104
    1STR   C05254928  15.185   0.042  49.118
    1STR   H05354929  15.083   0.003  49.112
    1STR   H05454930  15.196   0.119  49.042
    1STR   H05554931  15.196   0.091  49.215
    1STR   C05654932  15.278  59.987  49.217
    1STR   H05754933  15.178  59.945  49.220
    1STR   H05854934  15.347  59.905  49.198
    1STR   O05954935  15.309  60.051  49.341
    1STR   C06054936  15.299  59.968  49.456
    1STR   H06154937  15.209  59.907  49.451
    1STR   C06254938  15.424  59.878  49.467
    1STR   H06354939  15.515  59.938  49.467
    1STR   H06454940  15.430  59.807  49.385
    1STR   H06554941  15.422  59.820  49.559
    1STR   C06654942  15.287  60.061  49.579
    1STR   H06754943  15.376  60.123  49.588
    1STR   H06854944  15.203  60.128  49.563
    1STR   O06954945  15.267  59.982  49.696
    1STR   C07054946  15.258  60.056  49.817
    1STR   H07154947  15.334  60.135  49.820
    1STR   C07254948  15.118  60.118  49.831
    1STR   H07354949  15.041  60.041  49.824
    1STR   H07454950  15.098   0.032  49.754
    1STR   H07554951  15.107   0.007  49.927
    1STR   C07654952  15.288  59.959  49.933
    1STR   H07754953  15.213  59.879  49.935
    1STR   H07854954  15.384  59.911  49.915
    1STR   O07954955  15.289  60.030  50.056
    1STR   C08054956  15.311  59.950  50.172
    1STR   H08154957  15.253  59.858  50.166
    1STR   C08254958  15.461  59.918  50.185
    1STR   H08354959  15.521  60.009  50.187
    1STR   H08454960  15.496  59.855  50.104
    1STR   H08554961  15.480  59.864  50.278
    1STR   C08654962  15.260  60.030  50.293
    1STR   H08754963  15.317  60.123  50.303
    1STR   H08854964  15.156  60.058  50.276
    1STR   O08954965  15.272  59.951  50.411
    1STR   C09054966  15.232  60.015  50.532
    1STR   H09154967  15.270  60.117  50.534
    1STR   C09254968  15.078  60.015  50.542
    1STR   H09354969  15.038  59.914  50.535
    1STR   H09454970  15.032  60.076  50.464
    1STR   H09554971  15.047  60.057  50.638
    1STR   C09654972  15.296  59.937  50.648
    1STR   H09754973  15.259  59.835  50.649
    1STR   H09854974  15.403  59.932  50.632
    1STR   O09954975  15.266  60.004  50.771
    1STR   C10054976  15.317  59.939  50.888
    1STR   H10154977  15.300  59.832  50.882
    1STR   C10254978  15.467  59.969  50.903
    1STR   H10354979  15.485  60.077  50.904
    1STR   H10454980  15.526  59.926  50.822
    1STR   H10554981  15.505  59.928  50.996
    1STR   C10654982  15.236  59.993  51.007
    1STR   H10754983  15.252  60.100  51.017
    1STR   H10854984  15.130  59.977  50.989
    1STR   O10954985  15.277  59.925  51.126
    1STR   C11054986  15.212  59.967  51.245
    1STR   H11154987  15.206  60.076  51.248
    1STR   C11254988  15.072  59.906  51.254
    1STR   H11354989  15.076  59.798  51.247
    1STR   H11454990  15.006  59.943  51.175
    1STR   H11554991  15.024  59.932  51.349
    1STR   C11654992  15.300  59.922  51.363
    1STR   H11754993  15.307  59.814  51.365
    1STR   H11854994  15.401  59.961  51.349
    1STR   O11954995  15.245  59.971  51.485
    1STR   C12054996  15.315  59.933  51.603
    1STR   H12154997  15.343  59.828  51.598
    1STR   C12254998  15.440  60.021  51.620
    1STR   H12354999  15.414  60.127  51.621
    1STR   H12455000  15.513  60.004  51.541
    1STR   H12555001  15.490  59.998  51.715
    1STR   C12655002  15.218  59.950  51.721
    1STR   H12755003  15.188  60.055  51.731
    1STR   H12855004  15.127  59.893  51.701
    1STR   O12955005  15.280  59.904  51.841
    1STR   C13055006  15.202  59.918  51.959
    1STR   H13155007  15.153  60.015  51.960
    1STR   C13255008  15.097  59.806  51.966
    1STR   H13355009  15.144  59.707  51.959
    1STR   H13455010  15.024  59.813  51.885
    1STR   H13555011  15.042  59.810  52.060
    1STR   C13655012  15.298  59.912  52.078
    1STR   H13755013  15.348  59.815  52.081
    1STR   H13855014  15.376  59.987  52.065
    1STR   O13955015  15.226  59.934  52.199
    1STR   C14055016  15.303  59.927  52.318
    1STR   H14155017  15.371  59.842  52.314
    1STR   C14255018  15.383  60.058  52.337
    1STR   H14355019  15.317  60.144  52.336
    1STR   H14455020  15.457  60.072  52.259
    1STR   H14555021  15.436  60.057  52.432
    1STR   C14655022  15.206  59.904  52.435
    1STR   H14755023  15.137  59.989  52.443
    1STR   H14855024  15.146  59.816  52.414
    1STR   O14955025  15.279  59.887  52.556
    1STR   C15055026  15.200  59.869  52.673
    1STR   H15155027  15.116  59.939  52.673
    1STR   C15255028  15.149  59.724  52.679
    1STR   H15355029  15.231  59.653  52.674
    1STR   H15455030  15.080  59.701  52.598
    1STR   H15555031  15.095  59.706  52.772
    1STR   C15655032  15.289  59.902  52.793
    1STR   H15755033  15.374  59.833  52.798
    1STR   H15855034  15.330  60.002  52.781
    1STR   O15955035  15.212  59.894  52.913
    1STR   C16055036  15.284  59.919  53.033
    1STR   H16155037  15.380  59.868  53.031
    1STR   C16255038  15.304  60.070  53.052
    1STR   H16355039  15.209  60.124  53.050
    1STR   H16455040  15.368  60.113  52.975
    1STR   H16555041  15.352  60.091  53.148
    1STR   C16655042  15.202  59.859  53.149
    1STR   H16755043  15.105  59.909  53.155
    1STR   H16855044  15.182  59.754  53.127
    1STR   O16955045  15.274  59.873  53.271
    1STR   C17055046  15.207  59.825  53.387
    1STR   H17155047  15.102  59.855  53.385
    1STR   C17255048  15.218  59.672  53.393
    1STR   H17355049  15.322  59.639  53.390
    1STR   H17455050  15.165  59.623  53.311
    1STR   H17555051  15.174  59.634  53.486
    1STR   C17655052  15.273  59.891  53.509
    1STR   H17755053  15.378  59.861  53.514
    1STR   H17855054  15.271  59.999  53.496
    1STR   O17955055  15.203  59.853  53.627
    1STR   C18055056  15.257  59.905  53.748
    1STR   H18155057  15.366  59.896  53.747
    1STR   C18255058  15.215  60.052  53.766
    1STR   H18355059  15.107  60.062  53.762
    1STR   H18455060  15.258  60.116  53.689
    1STR   H18555061  15.249  60.090  53.862
    1STR   C18655062  15.204  59.817  53.863
    1STR   H18755063  15.095  59.824  53.867
    1STR   H18855064  15.228  59.713  53.842
    1STR   O18955065  15.263  59.859  53.985
    1STR   C19055066  15.218  59.788  54.101
    1STR   H19155067  15.110  59.774  54.097
    1STR   C19255068  15.289  59.652  54.109
    1STR   H19355069  15.397  59.663  54.108
    1STR   H19455070  15.261  59.586  54.026
    1STR   H19555071  15.263  59.600  54.201
    1STR   C19655072  15.251  59.875  54.223
    1STR   H19755073  15.359  59.890  54.231
    1STR   H19855074  15.206  59.973  54.210
    1STR   O19955075  15.200  59.813  54.341
    1STR   C20055076  15.227  59.882  54.462
    1STR   H20155077  15.330  59.918  54.463
    1STR   C20255078  15.129  59.999  54.478
    1STR   H20355079  15.026  59.966  54.473
    1STR   H20455080  15.144  60.076  54.402
    1STR   H20555081  15.143  60.048  54.575
    1STR   C20655082  15.211  59.780  54.577
    1STR   H20755083  15.109  59.743  54.580
    1STR   H20855084  15.276  59.695  54.557
    1STR   O20955085  15.246  59.842  54.700
    1STR   C21055086  15.232  59.760  54.815
    1STR   H21155087  15.139  59.704  54.811
    1STR   C21255088  15.352  59.663  54.825
    1STR   H21355089  15.446  59.718  54.826
    1STR   H21455090  15.354  59.592  54.743
    1STR   H21555091  15.346  59.605  54.918
    1STR   C21655092  15.225  59.853  54.937
    1STR   H21755093  15.318  59.910  54.947
    1STR   H21855094  15.145  59.925  54.922
    1STR   O21955095  15.201  59.775  55.055
    1STR   C22055096  15.196  59.850  55.176
    1STR   H22155097  15.276  59.924  55.178
    1STR   C22255098  15.060  59.919  55.190
    1STR   H22355099  14.978  59.846  55.183
    1STR   H22455100  15.044  59.994  55.113
    1STR   H22555101  15.051  59.969  55.286
    1STR   C22655102  15.221  59.751  55.291
    1STR   H22755103  15.142  59.676  55.293
    1STR   H22855104  15.315  59.698  55.273
    1STR   O22955105  15.226  59.822  55.415
    1STR   C23055106  15.244  59.741  55.530
    1STR   H23155107  15.181  59.652  55.524
    1STR   C23255108  15.392  59.700  55.543
    1STR   H23355109  15.457  59.788  55.545
    1STR   H23455110  15.424  59.636  55.462
    1STR   H23555111  15.409  59.645  55.636
    1STR   C23655112  15.198  59.823  55.651
    1STR   H23755113  15.260  59.913  55.662
    1STR   H23855114  15.096  59.857  55.635
    1STR   O23955115  15.205  59.743  55.769
    1STR   C24055116  15.169  59.809  55.890
    1STR   H24155117  15.213  59.909  55.893
    1STR   C24255118  15.016  59.818  55.901
    1STR   H24355119  14.970  59.719  55.893
    1STR   H24455120  14.973  59.881  55.823
    1STR   H24555121  14.987  59.861  55.997
    1STR   C24655122  15.229  59.728  56.006
    1STR   H24755123  15.186  59.628  56.007
    1STR   H24855124  15.336  59.718  55.990
    1STR   O24955125  15.204  59.796  56.129
    1STR   C25055126  15.251  59.729  56.245
    1STR   H25155127  15.229  59.622  56.239
    1STR   C25255128  15.402  59.751  56.260
    1STR   H25355129  15.427  59.857  56.262
    1STR   H25455130  15.459  59.705  56.180
    1STR   H25555131  15.438  59.708  56.354
    1STR   C25655132  15.174  59.787  56.365
    1STR   H25755133  15.195  59.893  56.375
    1STR   H25855134  15.067  59.777  56.346
    1STR   O25955135  15.210  59.716  56.483
    1STR   C26055136  15.149  59.763  56.603
    1STR   H26155137  15.148  59.872  56.605
    1STR   C26255138  15.005  59.709  56.612
    1STR   H26355139  15.002  59.601  56.604
    1STR   H26455140  14.941  59.749  56.533
    1STR   H26555141  14.959  59.737  56.707
    1STR   C26655142  15.234  59.713  56.720
    1STR   H26755143  15.235  59.604  56.722
    1STR   H26855144  15.337  59.746  56.706
    1STR   O26955145  15.182  59.765  56.842
    1STR   C27055146  15.250  59.722  56.960
    1STR   H27155147  15.272  59.616  56.954
    1STR   C27255148  15.380  59.803  56.977
    1STR   H27355149  15.359  59.910  56.978
    1STR   H27455150  15.451  59.783  56.898
    1STR   H27555151  15.429  59.777  57.071
    1STR   C27655152  15.154  59.744  57.078
    1STR   H27755153  15.130  59.850  57.088
    1STR   H27855154  15.060  59.692  57.058
    1STR   O27955155  15.214  59.695  57.197
    1STR   C28055156  15.138  59.713  57.316
    1STR   H28155157  15.094  59.813  57.318
    1STR   C28255158  15.027  59.607  57.323
    1STR   H28355159  15.068  59.506  57.317
    1STR   H28455160  14.953  59.618  57.244
    1STR   H28555161  14.973  59.614  57.418
    1STR   C28655162  15.234  59.701  57.435
    1STR   H28755163  15.279  59.602  57.437
    1STR   H28855164  15.316  59.773  57.422
    1STR   O28955165  15.164  59.728  57.556
    1STR   C29055166  15.242  59.717  57.675
    1STR   H29155167  15.305  59.628  57.671
    1STR   C29255168  15.328  59.843  57.693
    1STR   H29355169  15.267  59.933  57.693
    1STR   H29455170  15.403  59.853  57.614
    1STR   H29555171  15.382  59.839  57.788
    1STR   C29655172  15.143  59.699  57.792
    1STR   H29755173  15.079  59.787  57.799
    1STR   H29855174  15.079  59.614  57.771
    1STR   O29955175  15.215  59.679  57.914
    1STR   C30055176  15.132  59.665  58.029
    1STR   H30155177  15.051  59.738  58.026
    1STR   C30255178  15.076  59.522  58.035
    1STR   H30355179  15.156  59.448  58.032
    1STR   H30455180  15.008  59.501  57.953
    1STR   H30555181  15.020  59.507  58.128
    1STR   C30655182  15.218  59.697  58.153
    1STR   H30755183  15.298  59.623  58.163
    1STR   H30855184  15.266  59.794  58.139
    1STR   O30955185  15.134  59.698  58.268
    1STR    H1R55186  15.289  59.654  58.399
    1STR    H1S55187  15.286  59.884  58.505
    1STR    H1T55188  15.152  59.931  58.401
    1STR    H1U55189  15.311  59.898  58.333
    1STR    H1V55190  15.060  59.576  58.475
    1STR    H1W55191  15.016  59.741  58.509
    1STR    H1X55192  15.275  59.625  58.813
    1STR    H1Y55193  15.456  59.670  58.962
    1STR    H1Z55194  15.560  59.820  59.126
    1STR    H2055195  15.445   0.006  59.187
    1STR    H2155196  15.492  60.045  59.308
    1STR    H2255197  15.584  60.065  59.160
    1STR    H2355198  15.126  60.132  59.045
    1STR    H2755199  15.112  59.928  58.944
    1STR    H2855200  15.479  59.967  46.501
    1STR    H2955201  15.516  59.910  46.270
    1STR    H2A55202  15.274  59.943  46.004
    1STR    H2B55203  15.431  59.879  46.050
    1STR    H2C55204  15.417  60.046  45.993
    1STR   BCK155205  15.095  15.125   0.881
    1STR    O0355206  14.993  15.083   0.829
    1STR    N0455207  15.105  15.169   1.008
    1STR    C0555208  15.007  15.220   1.095
    1STR    C0655209  15.004  15.182   1.232
    1STR    C0755210  14.920  15.248   1.327
    1STR    N0855211  14.923  15.213   1.464
    1STR    C0955212  14.880  15.283   1.572
    1STR    O0A55213  14.832  15.396   1.566
    1STR    O0B55214  14.896  15.214   1.689
    1STR    C0C55215  14.844  15.269   1.812
    1STR    C0D55216  14.695  15.233   1.825
    1STR    C0E55217  14.924  15.221   1.936
    1STR    O0F55218  14.872  15.281   2.055
    1STR    C0G55219  14.939  15.249   2.178
    1STR    C0H55220  15.069  15.332   2.187
    1STR    C0I55221  14.846  15.280   2.298
    1STR    O0J55222  14.910  15.242   2.420
    1STR    C0K55223  15.207  15.484  13.271
    1STR    C0M55224  15.085  15.391  13.284
    1STR    C0N55225  15.307  15.464  13.386
    1STR    O0O55226  15.252  15.508  13.509
    1STR    C0P55227  15.211  15.420  13.601
    1STR    O0Q55228  15.215  15.298  13.589
    1STR    N0R55229  15.165  15.486  13.707
    1STR    C0S55230  15.112  15.439  13.828
    1STR    C0T55231  15.041  15.530  13.908
    1STR    C0U55232  14.983  15.489  14.030
    1STR    C0V55233  14.996  15.356  14.074
    1STR    C0W55234  14.926  15.313  14.202
    1STR    C0X55235  15.071  15.264  13.997
    1STR    N0Y55236  15.088  15.132  14.037
    1STR   BCK255237  15.153  15.090  14.145
    1STR    O1055238  15.210  15.164  14.225
    1STR    C1355239  15.126  15.305  13.874
    1STR    C1455240  14.836  15.351   1.279
    1STR    C1555241  14.838  15.389   1.144
    1STR    C1655242  14.924  15.326   1.052
    1STR    C1755243  14.931  15.382   0.911
    1STR    H1B55244  15.200  15.179   1.039
    1STR    H1C55245  15.069  15.102   1.266
    1STR    H1D55246  14.962  15.124   1.490
    1STR    H1E55247  14.853  15.378   1.810
    1STR    H1F55248  14.680  15.125   1.830
    1STR    H1G55249  14.653  15.276   1.916
    1STR    H1H55250  14.638  15.272   1.741
    1STR    H1I55251  15.029  15.248   1.922
    1STR    H1J55252  14.920  15.112   1.943
    1STR    H1K55253  14.963  15.143   2.180
    1STR    H1M55254  15.048  15.439   2.181
    1STR    H1N55255  15.140  15.307   2.109
    1STR    H1O55256  15.118  15.314   2.283
    1STR    H1P55257  14.821  15.386   2.299
    1STR    H1Q55258  14.753  15.226   2.285
    1STR   C01055259  14.838  15.271   2.541
    1STR   H01155260  14.796  15.372   2.537
    1STR   C01255261  14.725  15.168   2.559
    1STR   H01355262  14.763  15.066   2.559
    1STR   H01455263  14.649  15.176   2.481
    1STR   H01555264  14.674  15.184   2.655
    1STR   C01655265  14.937  15.265   2.659
    1STR   H01755266  14.981  15.166   2.665
    1STR   H01855267  15.019  15.335   2.640
    1STR   O01955268  14.871  15.298   2.782
    1STR   C02055269  14.953  15.292   2.899
    1STR   H02155270  15.015  15.202   2.897
    1STR   C02255271  15.042  15.417   2.907
    1STR   H02355272  14.983  15.508   2.905
    1STR   H02455273  15.114  15.422   2.825
    1STR   H02555274  15.100  15.418   3.000
    1STR   C02655275  14.861  15.283   3.023
    1STR   H02755276  14.798  15.371   3.029
    1STR   H02855277  14.795  15.197   3.011
    1STR   O02955278  14.939  15.269   3.141
    1STR   C03055279  14.866  15.263   3.264
    1STR   H03155280  14.787  15.339   3.263
    1STR   C03255281  14.805  15.123   3.282
    1STR   H03355282  14.882  15.046   3.278
    1STR   H03455283  14.730  15.101   3.206
    1STR   H03555284  14.755  15.115   3.379
    1STR   C03655285  14.962  15.297   3.379
    1STR   H03755286  15.042  15.223   3.383
    1STR   H03855287  15.009  15.394   3.359
    1STR   O03955288  14.891  15.301   3.503
    1STR   C04055289  14.970  15.327   3.619
    1STR   H04155290  15.063  15.269   3.615
    1STR   C04255291  15.002  15.477   3.627
    1STR   H04355292  14.911  15.537   3.627
    1STR   H04455293  15.065  15.511   3.545
    1STR   H04555294  15.056  15.500   3.720
    1STR   C04655295  14.890  15.280   3.742
    1STR   H04755296  14.797  15.337   3.750
    1STR   H04855297  14.863  15.175   3.729
    1STR   O04955298  14.969  15.296   3.860
    1STR   C05055299  14.905  15.260   3.982
    1STR   H05155300  14.802  15.298   3.983
    1STR   C05255301  14.905  15.107   3.998
    1STR   H05355302  15.007  15.067   3.992
    1STR   H05455303  14.845  15.058   3.921
    1STR   H05555304  14.864  15.079   4.094
    1STR   C05655305  14.981  15.328   4.097
    1STR   H05755306  15.084  15.292   4.099
    1STR   H05855307  14.985  15.436   4.078
    1STR   O05955308  14.915  15.302   4.220
    1STR   C06055309  14.978  15.357   4.336
    1STR   H06155310  15.086  15.341   4.331
    1STR   C06255311  14.947  15.507   4.347
    1STR   H06355312  14.840  15.525   4.347
    1STR   H06455313  14.990  15.564   4.264
    1STR   H06555314  14.988  15.548   4.439
    1STR   C06655315  14.925  15.280   4.458
    1STR   H06755316  14.818  15.294   4.467
    1STR   H06855317  14.942  15.173   4.443
    1STR   O06955318  14.992  15.325   4.576
    1STR   C07055319  14.949  15.264   4.697
    1STR   H07155320  14.840  15.257   4.700
    1STR   C07255321  15.011  15.124   4.710
    1STR   H07355322  15.120  15.128   4.704
    1STR   H07455323  14.975  15.056   4.634
    1STR   H07555324  14.986  15.080   4.807
    1STR   C07655325  14.993  15.356   4.812
    1STR   H07755326  15.102  15.364   4.814
    1STR   H07855327  14.954  15.456   4.795
    1STR   O07955328  14.945  15.304   4.936
    1STR   C08055329  14.982  15.378   5.052
    1STR   H08155330  15.087  15.406   5.046
    1STR   C08255331  14.894  15.503   5.065
    1STR   H08355332  14.788  15.476   5.066
    1STR   H08455333  14.910  15.573   4.984
    1STR   H08555334  14.915  15.556   5.158
    1STR   C08655335  14.965  15.284   5.173
    1STR   H08755336  14.861  15.255   5.183
    1STR   H08855337  15.023  15.193   5.156
    1STR   O08955338  15.011  15.351   5.291
    1STR   C09055339  14.997  15.277   5.411
    1STR   H09155340  14.899  15.227   5.414
    1STR   C09255341  15.109  15.173   5.422
    1STR   H09355342  15.207  15.220   5.415
    1STR   H09455343  15.103  15.097   5.345
    1STR   H09555344  15.105  15.121   5.518
    1STR   C09655345  15.002  15.377   5.528
    1STR   H09755346  15.098  15.428   5.529
    1STR   H09855347  14.926  15.453   5.512
    1STR   O09955348  14.979  15.308   5.651
    1STR   C10055349  14.985  15.390   5.767
    1STR   H10155350  15.070  15.458   5.762
    1STR   C10255351  14.854  15.469   5.783
    1STR   H10355352  14.768  15.402   5.784
    1STR   H10455353  14.840  15.541   5.702
    1STR   H10555354  14.854  15.525   5.876
    1STR   C10655355  15.008  15.296   5.887
    1STR   H10755356  14.924  15.227   5.897
    1STR   H10855357  15.097  15.236   5.868
    1STR   O10955358  15.024  15.374   6.006
    1STR   C11055359  15.043  15.298   6.125
    1STR   H11155360  14.974  15.214   6.128
    1STR   C11255361  15.188  15.248   6.134
    1STR   H11355362  15.258  15.331   6.126
    1STR   H11455363  15.212  15.177   6.055
    1STR   H11555364  15.206  15.198   6.229
    1STR   C11655365  15.008  15.391   6.243
    1STR   H11755366  15.077  15.476   6.245
    1STR   H11855367  14.908  15.430   6.229
    1STR   O11955368  15.016  15.317   6.365
    1STR   C12055369  14.991  15.393   6.483
    1STR   H12155370  15.041  15.489   6.478
    1STR   C12255371  14.839  15.413   6.500
    1STR   H12355372  14.787  15.317   6.501
    1STR   H12455373  14.796  15.474   6.421
    1STR   H12555374  14.818  15.463   6.595
    1STR   C12655375  15.051  15.315   6.601
    1STR   H12755376  15.002  15.218   6.611
    1STR   H12855377  15.156  15.295   6.581
    1STR   O12955378  15.036  15.391   6.721
    1STR   C13055379  15.084  15.328   6.839
    1STR   H13155380  15.055  15.223   6.840
    1STR   C13255381  15.237  15.339   6.846
    1STR   H13355382  15.269  15.444   6.839
    1STR   H13455383  15.286  15.284   6.766
    1STR   H13555384  15.275  15.299   6.940
    1STR   C13655385  15.017  15.398   6.958
    1STR   H13755386  15.046  15.503   6.961
    1STR   H13855387  14.909  15.394   6.945
    1STR   O13955388  15.055  15.332   7.079
    1STR   C14055389  15.003  15.389   7.198
    1STR   H14155390  15.010  15.498   7.194
    1STR   C14255391  14.856  15.347   7.217
    1STR   H14355392  14.846  15.238   7.216
    1STR   H14455393  14.792  15.387   7.139
    1STR   H14555394  14.817  15.383   7.312
    1STR   C14655395  15.090  15.340   7.315
    1STR   H14755396  15.084  15.232   7.323
    1STR   H14855397  15.194  15.365   7.294
    1STR   O14955398  15.048  15.403   7.436
    1STR   C15055399  15.118  15.363   7.553
    1STR   H15155400  15.133  15.255   7.553
    1STR   C15255401  15.254  15.435   7.559
    1STR   H15355402  15.241  15.543   7.554
    1STR   H15455403  15.320  15.405   7.478
    1STR   H15555404  15.306  15.412   7.652
    1STR   C15655405  15.030  15.398   7.674
    1STR   H15755406  15.015  15.506   7.678
    1STR   H15855407  14.932  15.352   7.661
    1STR   O15955408  15.093  15.352   7.793
    1STR   C16055409  15.023  15.382   7.913
    1STR   H16155410  14.986  15.485   7.911
    1STR   C16255411  14.906  15.285   7.932
    1STR   H16355412  14.940  15.181   7.930
    1STR   H16455413  14.830  15.297   7.855
    1STR   H16555414  14.857  15.301   8.028
    1STR   C16655415  15.124  15.371   8.029
    1STR   H16755416  15.162  15.269   8.035
    1STR   H16855417  15.209  15.435   8.007
    1STR   O16955418  15.061  15.410   8.151
    1STR   C17055419  15.143  15.400   8.267
    1STR   H17155420  15.200  15.307   8.265
    1STR   C17255421  15.239  15.520   8.273
    1STR   H17355422  15.184  15.614   8.270
    1STR   H17455423  15.311  15.520   8.191
    1STR   H17555424  15.297  15.518   8.366
    1STR   C17655425  15.050  15.396   8.389
    1STR   H17755426  14.992  15.489   8.394
    1STR   H17855427  14.978  15.315   8.376
    1STR   O17955428  15.127  15.377   8.507
    1STR   C18055429  15.052  15.375   8.628
    1STR   H18155430  14.978  15.455   8.627
    1STR   C18255431  14.984  15.239   8.646
    1STR   H18355432  15.057  15.157   8.642
    1STR   H18455433  14.909  15.220   8.569
    1STR   H18555434  14.934  15.233   8.742
    1STR   C18655435  15.151  15.404   8.743
    1STR   H18755436  15.226  15.325   8.747
    1STR   H18855437  15.203  15.497   8.722
    1STR   O18955438  15.079  15.413   8.866
    1STR   C19055439  15.160  15.435   8.981
    1STR   H19155440  15.249  15.372   8.977
    1STR   C19255441  15.200  15.583   8.989
    1STR   H19355442  15.112  15.648   8.988
    1STR   H19455443  15.264  15.613   8.906
    1STR   H19555444  15.254  15.604   9.081
    1STR   C19655445  15.077  15.393   9.103
    1STR   H19755446  14.987  15.454   9.111
    1STR   H19855447  15.044  15.290   9.090
    1STR   O19955448  15.157  15.404   9.221
    1STR   C20055449  15.090  15.371   9.342
    1STR   H20155450  14.990  15.414   9.343
    1STR   C20255451  15.083  15.219   9.358
    1STR   H20355452  15.182  15.174   9.353
    1STR   H20455453  15.021  15.172   9.282
    1STR   H20555454  15.040  15.192   9.455
    1STR   C20655455  15.170  15.436   9.457
    1STR   H20755456  15.271  15.394   9.460
    1STR   H20855457  15.181  15.542   9.437
    1STR   O20955458  15.103  15.414   9.580
    1STR   C21055459  15.169  15.465   9.696
    1STR   H21155460  15.276  15.443   9.691
    1STR   C21255461  15.146  15.617   9.706
    1STR   H21355462  15.040  15.641   9.706
    1STR   H21455463  15.192  15.671   9.623
    1STR   H21555464  15.189  15.656   9.798
    1STR   C21655465  15.111  15.391   9.818
    1STR   H21755466  15.004  15.412   9.827
    1STR   H21855467  15.122  15.284   9.803
    1STR   O21955468  15.181  15.433   9.935
    1STR   C22055469  15.134  15.374  10.056
    1STR   H22155470  15.025  15.374  10.059
    1STR   C22255471  15.189  15.231  10.070
    1STR   H22355472  15.297  15.229  10.063
    1STR   H22455473  15.149  15.165   9.993
    1STR   H22555474  15.161  15.188  10.166
    1STR   C22655475  15.183  15.464  10.171
    1STR   H22755476  15.292  15.466  10.173
    1STR   H22855477  15.150  15.566  10.154
    1STR   O22955478  15.131  15.415  10.295
    1STR   C23055479  15.173  15.487  10.410
    1STR   H23155480  15.279  15.510  10.405
    1STR   C23255481  15.091  15.617  10.423
    1STR   H23355482  14.984  15.596  10.424
    1STR   H23455483  15.111  15.686  10.342
    1STR   H23555484  15.116  15.669  10.516
    1STR   C23655485  15.151  15.395  10.532
    1STR   H23755486  15.045  15.371  10.542
    1STR   H23855487  15.204  15.301  10.515
    1STR   O23955488  15.200  15.459  10.649
    1STR   C24055489  15.182  15.386  10.770
    1STR   H24155490  15.082  15.341  10.773
    1STR   C24255491  15.289  15.276  10.781
    1STR   H24355492  15.389  15.318  10.774
    1STR   H24455493  15.278  15.200  10.703
    1STR   H24555494  15.282  15.225  10.877
    1STR   C24655495  15.192  15.486  10.886
    1STR   H24755496  15.291  15.531  10.888
    1STR   H24855497  15.120  15.566  10.870
    1STR   O24955498  15.165  15.419  11.009
    1STR   C25055499  15.176  15.500  11.126
    1STR   H25155500  15.264  15.564  11.120
    1STR   C25255501  15.049  15.586  11.141
    1STR   H25355502  14.960  15.525  11.142
    1STR   H25455503  15.039  15.659  11.060
    1STR   H25555504  15.052  15.643  11.234
    1STR   C25655505  15.194  15.406  11.246
    1STR   H25755506  15.106  15.341  11.256
    1STR   H25855507  15.279  15.341  11.227
    1STR   O25955508  15.214  15.482  11.364
    1STR   C26055509  15.228  15.406  11.484
    1STR   H26155510  15.154  15.326  11.486
    1STR   C26255511  15.370  15.348  11.492
    1STR   H26355512  15.445  15.427  11.485
    1STR   H26455513  15.390  15.276  11.413
    1STR   H26555514  15.385  15.297  11.587
    1STR   C26655515  15.199  15.501  11.601
    1STR   H26755516  15.272  15.582  11.603
    1STR   H26855517  15.101  15.546  11.587
    1STR   O26955518  15.203  15.427  11.723
    1STR   C27055519  15.181  15.504  11.841
    1STR   H27155520  15.237  15.598  11.836
    1STR   C27255521  15.031  15.533  11.858
    1STR   H27355522  14.973  15.440  11.859
    1STR   H27455523  14.992  15.596  11.779
    1STR   H27555524  15.012  15.584  11.952
    1STR   C27655525  15.237  15.424  11.960
    1STR   H27755526  15.183  15.329  11.969
    1STR   H27855527  15.341  15.399  11.940
    1STR   O27955528  15.226  15.500  12.079
    1STR   C28055529  15.270  15.435  12.198
    1STR   H28155530  15.235  15.332  12.199
    1STR   C28255531  15.424  15.439  12.205
    1STR   H28355532  15.461  15.541  12.198
    1STR   H28455533  15.470  15.381  12.125
    1STR   H28555534  15.459  15.397  12.299
    1STR   C28655535  15.207  15.509  12.317
    1STR   H28755536  15.241  15.612  12.319
    1STR   H28855537  15.098  15.511  12.304
    1STR   O28955538  15.241  15.441  12.438
    1STR   C29055539  15.192  15.502  12.557
    1STR   H29155540  15.205  15.611  12.552
    1STR   C29255541  15.043  15.468  12.576
    1STR   H29355542  15.028  15.360  12.576
    1STR   H29455543  14.981  15.511  12.497
    1STR   H29555544  15.007  15.507  12.671
    1STR   C29655545  15.277  15.449  12.673
    1STR   H29755546  15.265  15.341  12.682
    1STR   H29855547  15.382  15.469  12.652
    1STR   O29955548  15.238  15.514  12.794
    1STR   C30055549  15.305  15.470  12.911
    1STR   H30155550  15.315  15.361  12.910
    1STR   C30255551  15.444  15.536  12.919
    1STR   H30355552  15.437  15.644  12.914
    1STR   H30455553  15.509  15.503  12.838
    1STR   H30555554  15.494  15.509  13.012
    1STR   C30655555  15.218  15.509  13.031
    1STR   H30755556  15.209  15.617  13.038
    1STR   H30855557  15.118  15.469  13.017
    1STR   O30955558  15.277  15.456  13.150
    1STR    H1R55559  15.174  15.589  13.272
    1STR    H1S55560  15.033  15.408  13.378
    1STR    H1T55561  15.115  15.286  13.283
    1STR    H1U55562  15.012  15.406  13.205
    1STR    H1V55563  15.396  15.524  13.367
    1STR    H1W55564  15.341  15.361  13.390
    1STR    H1X55565  15.169  15.585  13.693
    1STR    H1Y55566  15.028  15.633  13.878
    1STR    H1Z55567  14.928  15.560  14.089
    1STR    H2055568  14.892  15.209  14.195
    1STR    H2155569  14.995  15.319  14.286
    1STR    H2255570  14.840  15.375  14.223
    1STR    H2355571  15.057  15.059  13.974
    1STR    H2755572  15.183  15.234  13.816
    1STR    H2855573  14.768  15.404   1.343
    1STR    H2955574  14.775  15.471   1.112
    1STR    H2A55575  15.034  15.393   0.878
    1STR    H2B55576  14.885  15.481   0.904
    1STR    H2C55577  14.879  15.316   0.842
    1STR   BCK155578  15.114  14.989  15.934
    1STR    O0355579  15.179  14.892  15.899
    1STR    N0455580  15.041  14.995  16.046
    1STR    C0555581  15.013  14.892  16.136
    1STR    C0655582  15.037  14.909  16.275
    1STR    C0755583  15.005  14.807  16.370
    1STR    N0855584  15.027  14.830  16.508
    1STR    C0955585  15.014  14.746  16.613
    1STR    O0A55586  14.985  14.627  16.605
    1STR    O0B55587  15.039  14.809  16.732
    1STR    C0C55588  15.036  14.734  16.855
    1STR    C0D55589  15.170  14.660  16.872
    1STR    C0E55590  15.006  14.824  16.976
    1STR    O0F55591  15.002  14.746  17.096
    1STR    C0G55592  14.973  14.816  17.217
    1STR    C0H55593  14.822  14.843  17.226
    1STR    C0I55594  15.020  14.731  17.338
    1STR    O0J55595  14.999  14.802  17.460
    1STR    C0K55596  14.622  14.832  28.310
    1STR    C0M55597  14.774  14.811  28.321
    1STR    C0N55598  14.569  14.922  28.423
    1STR    O0O55599  14.576  14.856  28.549
    1STR    C0P55600  14.673  14.885  28.637
    1STR    O0Q55601  14.764  14.965  28.620
    1STR    N0R55602  14.653  14.810  28.745
    1STR    C0S55603  14.724  14.797  28.865
    1STR    C0T55604  14.676  14.701  28.955
    1STR    C0U55605  14.742  14.676  29.076
    1STR    C0V55606  14.859  14.747  29.109
    1STR    C0W55607  14.934  14.706  29.234
    1STR    C0X55608  14.907  14.849  29.022
    1STR    N0Y55609  15.023  14.920  29.053
    1STR   BCK255610  15.047  14.987  29.166
    1STR    O1055611  14.962  15.017  29.250
    1STR    C1355612  14.840  14.871  28.899
    1STR    C1455613  14.948  14.688  16.321
    1STR    C1555614  14.922  14.670  16.184
    1STR    C1655615  14.951  14.772  16.092
    1STR    C1755616  14.911  14.750  15.947
    1STR    H1B55617  15.002  15.086  16.065
    1STR    H1C55618  15.082  15.001  16.309
    1STR    H1D55619  15.057  14.921  16.536
    1STR    H1E55620  14.956  14.660  16.849
    1STR    H1F55621  15.254  14.729  16.879
    1STR    H1G55622  15.169  14.599  16.963
    1STR    H1H55623  15.189  14.592  16.789
    1STR    H1I55624  14.910  14.874  16.960
    1STR    H1J55625  15.081  14.902  16.985
    1STR    H1K55626  15.028  14.910  17.220
    1STR    H1M55627  14.765  14.751  17.220
    1STR    H1N55628  14.787  14.909  17.147
    1STR    H1O55629  14.797  14.891  17.321
    1STR    H1P55630  14.966  14.636  17.340
    1STR    H1Q55631  15.126  14.707  17.326
    1STR   C01055632  15.033  14.733  17.581
    1STR   H01155633  14.996  14.631  17.577
    1STR   C01255634  15.186  14.733  17.599
    1STR   H01355635  15.226  14.834  17.598
    1STR   H01455636  15.237  14.676  17.521
    1STR   H01555637  15.213  14.687  17.694
    1STR   C01655638  14.964  14.805  17.699
    1STR   H01755639  14.998  14.908  17.705
    1STR   H01855640  14.857  14.808  17.680
    1STR   O01955641  14.990  14.736  17.822
    1STR   C02055642  14.934  14.796  17.939
    1STR   H02155643  14.949  14.904  17.937
    1STR   C02255644  14.784  14.764  17.947
    1STR   H02355645  14.766  14.656  17.944
    1STR   H02455646  14.728  14.809  17.865
    1STR   H02555647  14.741  14.802  18.039
    1STR   C02655648  15.008  14.740  18.062
    1STR   H02755649  14.995  14.632  18.068
    1STR   H02855650  15.115  14.759  18.051
    1STR   O02955651  14.960  14.803  18.181
    1STR   C03055652  15.018  14.758  18.303
    1STR   H03155653  15.025  14.649  18.303
    1STR   C03255654  15.157  14.820  18.322
    1STR   H03355655  15.152  14.929  18.318
    1STR   H03455656  15.227  14.786  18.245
    1STR   H03555657  15.199  14.792  18.418
    1STR   C03655658  14.924  14.798  18.419
    1STR   H03755659  14.914  14.906  18.423
    1STR   H03855660  14.824  14.758  18.399
    1STR   O03955661  14.974  14.747  18.543
    1STR   C04055662  14.898  14.781  18.658
    1STR   H04155663  14.869  14.886  18.655
    1STR   C04255664  14.773  14.692  18.667
    1STR   H04355665  14.800  14.586  18.666
    1STR   H04455666  14.704  14.710  18.585
    1STR   H04555667  14.718  14.711  18.759
    1STR   C04655668  14.988  14.762  18.781
    1STR   H04755669  15.019  14.657  18.789
    1STR   H04855670  15.079  14.821  18.768
    1STR   O04955671  14.919  14.803  18.899
    1STR   C05055672  14.991  14.786  19.021
    1STR   H05155673  15.041  14.689  19.023
    1STR   C05255674  15.094  14.899  19.037
    1STR   H05355675  15.046  14.997  19.032
    1STR   H05455676  15.172  14.895  18.961
    1STR   H05555677  15.144  14.892  19.134
    1STR   C05655678  14.889  14.788  19.136
    1STR   H05755679  14.837  14.884  19.139
    1STR   H05855680  14.813  14.711  19.118
    1STR   O05955681  14.955  14.762  19.260
    1STR   C06055682  14.872  14.765  19.376
    1STR   H06155683  14.803  14.849  19.371
    1STR   C06255684  14.793  14.633  19.386
    1STR   H06355685  14.860  14.547  19.387
    1STR   H06455686  14.723  14.620  19.304
    1STR   H06555687  14.735  14.630  19.479
    1STR   C06655688  14.963  14.786  19.498
    1STR   H06755689  15.032  14.702  19.507
    1STR   H06855690  15.022  14.876  19.483
    1STR   O06955691  14.883  14.798  19.616
    1STR   C07055692  14.955  14.814  19.737
    1STR   H07155693  15.040  14.745  19.739
    1STR   C07255694  15.005  14.959  19.750
    1STR   H07355695  14.922  15.029  19.743
    1STR   H07455696  15.077  14.985  19.674
    1STR   H07555697  15.053  14.974  19.847
    1STR   C07655698  14.861  14.776  19.852
    1STR   H07755699  14.775  14.843  19.854
    1STR   H07855700  14.822  14.675  19.835
    1STR   O07955701  14.932  14.781  19.976
    1STR   C08055702  14.855  14.752  20.092
    1STR   H08155703  14.758  14.802  20.086
    1STR   C08255704  14.835  14.600  20.105
    1STR   H08355705  14.931  14.548  20.106
    1STR   H08455706  14.776  14.559  20.024
    1STR   H08555707  14.784  14.576  20.198
    1STR   C08655708  14.930  14.809  20.213
    1STR   H08755709  15.027  14.761  20.223
    1STR   H08855710  14.949  14.915  20.196
    1STR   O08955711  14.852  14.791  20.331
    1STR   C09055712  14.912  14.836  20.451
    1STR   H09155713  15.017  14.807  20.454
    1STR   C09255714  14.899  14.989  20.462
    1STR   H09355715  14.795  15.020  20.455
    1STR   H09455716  14.955  15.041  20.385
    1STR   H09555717  14.937  15.024  20.558
    1STR   C09655718  14.840  14.766  20.568
    1STR   H09755719  14.735  14.794  20.569
    1STR   H09855720  14.845  14.658  20.552
    1STR   O09955721  14.904  14.801  20.691
    1STR   C10055722  14.844  14.745  20.807
    1STR   H10155723  14.735  14.752  20.802
    1STR   C10255724  14.887  14.598  20.823
    1STR   H10355725  14.996  14.589  20.824
    1STR   H10455726  14.849  14.535  20.742
    1STR   H10555727  14.849  14.557  20.916
    1STR   C10655728  14.890  14.830  20.927
    1STR   H10755729  14.999  14.824  20.937
    1STR   H10855730  14.865  14.934  20.908
    1STR   O10955731  14.826  14.783  21.046
    1STR   C11055732  14.863  14.851  21.165
    1STR   H11155733  14.971  14.867  21.168
    1STR   C11255734  14.790  14.986  21.174
    1STR   H11355735  14.682  14.973  21.167
    1STR   H11455736  14.821  15.055  21.095
    1STR   H11555737  14.811  15.036  21.269
    1STR   C11655738  14.826  14.760  21.283
    1STR   H11755739  14.718  14.743  21.285
    1STR   H11855740  14.873  14.663  21.269
    1STR   O11955741  14.870  14.819  21.405
    1STR   C12055742  14.838  14.746  21.523
    1STR   H12155743  14.735  14.709  21.518
    1STR   C12255744  14.936  14.629  21.540
    1STR   H12355745  15.039  14.664  21.541
    1STR   H12455746  14.926  14.555  21.461
    1STR   H12555747  14.918  14.578  21.635
    1STR   C12655748  14.846  14.844  21.641
    1STR   H12755749  14.948  14.883  21.651
    1STR   H12855750  14.782  14.930  21.621
    1STR   O12955751  14.806  14.778  21.761
    1STR   C13055752  14.813  14.858  21.879
    1STR   H13155753  14.906  14.915  21.880
    1STR   C13255754  14.692  14.952  21.886
    1STR   H13355755  14.598  14.897  21.879
    1STR   H13455756  14.693  15.026  21.806
    1STR   H13555757  14.692  15.007  21.980
    1STR   C13655758  14.815  14.761  21.998
    1STR   H13755759  14.723  14.703  22.001
    1STR   H13855760  14.897  14.690  21.985
    1STR   O13955761  14.832  14.835  22.119
    1STR   C14055762  14.832  14.757  22.238
    1STR   H14155763  14.753  14.682  22.234
    1STR   C14255764  14.968  14.690  22.257
    1STR   H14355765  15.049  14.763  22.256
    1STR   H14455766  14.989  14.616  22.179
    1STR   H14555767  14.973  14.637  22.352
    1STR   C14655768  14.800  14.852  22.355
    1STR   H14755769  14.878  14.928  22.363
    1STR   H14855770  14.706  14.904  22.334
    1STR   O14955771  14.789  14.778  22.476
    1STR   C15055772  14.764  14.855  22.593
    1STR   H15155773  14.826  14.945  22.593
    1STR   C15255774  14.616  14.894  22.599
    1STR   H15355775  14.552  14.805  22.594
    1STR   H15455776  14.587  14.960  22.518
    1STR   H15555777  14.593  14.945  22.692
    1STR   C15655778  14.805  14.769  22.714
    1STR   H15755779  14.744  14.679  22.718
    1STR   H15855780  14.908  14.737  22.701
    1STR   O15955781  14.790  14.846  22.833
    1STR   C16055782  14.821  14.776  22.953
    1STR   H16155783  14.779  14.675  22.951
    1STR   C16255784  14.974  14.769  22.972
    1STR   H16355785  15.018  14.868  22.970
    1STR   H16455786  15.022  14.709  22.895
    1STR   H16555787  14.999  14.724  23.068
    1STR   C16655788  14.754  14.853  23.069
    1STR   H16755789  14.795  14.954  23.075
    1STR   H16855790  14.648  14.863  23.047
    1STR   O16955791  14.774  14.782  23.191
    1STR   C17055792  14.721  14.845  23.307
    1STR   H17155793  14.742  14.952  23.305
    1STR   C17255794  14.569  14.821  23.313
    1STR   H17355795  14.546  14.714  23.310
    1STR   H17455796  14.516  14.869  23.231
    1STR   H17555797  14.528  14.861  23.406
    1STR   C17655798  14.792  14.784  23.429
    1STR   H17755799  14.772  14.677  23.434
    1STR   H17855800  14.900  14.796  23.416
    1STR   O17955801  14.748  14.851  23.547
    1STR   C18055802  14.804  14.801  23.668
    1STR   H18155803  14.806  14.692  23.667
    1STR   C18255804  14.947  14.856  23.686
    1STR   H18355805  14.949  14.964  23.682
    1STR   H18455806  15.015  14.818  23.609
    1STR   H18555807  14.988  14.826  23.782
    1STR   C18655808  14.713  14.847  23.783
    1STR   H18755809  14.710  14.956  23.787
    1STR   H18855810  14.611  14.813  23.762
    1STR   O18955811  14.759  14.792  23.905
    1STR   C19055812  14.685  14.830  24.021
    1STR   H19155813  14.662  14.936  24.017
    1STR   C19255814  14.555  14.748  24.029
    1STR   H19355815  14.576  14.641  24.028
    1STR   H19455816  14.487  14.769  23.946
    1STR   H19555817  14.501  14.769  24.121
    1STR   C19655818  14.775  14.805  24.143
    1STR   H19755819  14.799  14.699  24.151
    1STR   H19855820  14.869  14.858  24.130
    1STR   O19955821  14.708  14.850  24.261
    1STR   C20055822  14.779  14.830  24.382
    1STR   H20155823  14.824  14.730  24.383
    1STR   C20255824  14.888  14.937  24.398
    1STR   H20355825  14.845  15.037  24.393
    1STR   H20455826  14.965  14.929  24.322
    1STR   H20555827  14.938  14.928  24.495
    1STR   C20655828  14.677  14.836  24.497
    1STR   H20755829  14.631  14.935  24.500
    1STR   H20855830  14.597  14.764  24.477
    1STR   O20955831  14.742  14.807  24.620
    1STR   C21055832  14.658  14.813  24.735
    1STR   H21155833  14.594  14.902  24.731
    1STR   C21255834  14.573  14.686  24.746
    1STR   H21355835  14.635  14.597  24.746
    1STR   H21455836  14.502  14.678  24.663
    1STR   H21555837  14.515  14.686  24.838
    1STR   C21655838  14.750  14.829  24.858
    1STR   H21755839  14.815  14.742  24.867
    1STR   H21855840  14.815  14.915  24.842
    1STR   O21955841  14.671  14.846  24.975
    1STR   C22055842  14.745  14.857  25.096
    1STR   H22155843  14.826  14.784  25.099
    1STR   C22255844  14.801  15.000  25.110
    1STR   H22355845  14.722  15.074  25.103
    1STR   H22455846  14.875  15.022  25.033
    1STR   H22555847  14.851  15.012  25.206
    1STR   C22655848  14.648  14.824  25.211
    1STR   H22755849  14.566  14.896  25.213
    1STR   H22855850  14.604  14.726  25.194
    1STR   O22955851  14.720  14.825  25.335
    1STR   C23055852  14.640  14.800  25.450
    1STR   H23155853  14.546  14.855  25.445
    1STR   C23255854  14.613  14.649  25.463
    1STR   H23355855  14.706  14.592  25.464
    1STR   H23455856  14.551  14.612  25.382
    1STR   H23555857  14.560  14.628  25.556
    1STR   C23655858  14.719  14.853  25.572
    1STR   H23755859  14.813  14.799  25.582
    1STR   H23855860  14.743  14.958  25.555
    1STR   O23955861  14.639  14.839  25.689
    1STR   C24055862  14.702  14.881  25.810
    1STR   H24155863  14.806  14.846  25.813
    1STR   C24255864  14.697  15.034  25.821
    1STR   H24355865  14.595  15.071  25.814
    1STR   H24455866  14.756  15.083  25.743
    1STR   H24555867  14.737  15.067  25.917
    1STR   C24655868  14.627  14.814  25.926
    1STR   H24755869  14.523  14.847  25.928
    1STR   H24855870  14.626  14.706  25.910
    1STR   O24955871  14.692  14.845  26.049
    1STR   C25055872  14.629  14.792  26.166
    1STR   H25155873  14.521  14.805  26.160
    1STR   C25255874  14.664  14.643  26.181
    1STR   H25355875  14.772  14.628  26.182
    1STR   H25455876  14.622  14.583  26.100
    1STR   H25555877  14.624  14.604  26.274
    1STR   C25655878  14.680  14.874  26.286
    1STR   H25755879  14.788  14.862  26.296
    1STR   H25855880  14.661  14.980  26.267
    1STR   O25955881  14.613  14.831  26.404
    1STR   C26055882  14.654  14.897  26.524
    1STR   H26155883  14.763  14.906  26.526
    1STR   C26255884  14.588  15.036  26.532
    1STR   H26355885  14.480  15.029  26.525
    1STR   H26455886  14.623  15.103  26.453
    1STR   H26555887  14.612  15.084  26.627
    1STR   C26655888  14.611  14.808  26.641
    1STR   H26755889  14.503  14.797  26.643
    1STR   H26855890  14.653  14.708  26.627
    1STR   O26955891  14.658  14.864  26.763
    1STR   C27055892  14.622  14.793  26.881
    1STR   H27155893  14.518  14.761  26.876
    1STR   C27255894  14.714  14.670  26.898
    1STR   H27355895  14.819  14.700  26.899
    1STR   H27455896  14.700  14.597  26.819
    1STR   H27555897  14.693  14.620  26.992
    1STR   C27655898  14.636  14.890  26.999
    1STR   H27755899  14.740  14.923  27.009
    1STR   H27855900  14.576  14.979  26.980
    1STR   O27955901  14.592  14.826  27.119
    1STR   C28055902  14.603  14.904  27.237
    1STR   H28155903  14.699  14.956  27.239
    1STR   C28255904  14.488  15.005  27.244
    1STR   H28355905  14.391  14.955  27.238
    1STR   H28455906  14.493  15.079  27.165
    1STR   H28555907  14.490  15.060  27.339
    1STR   C28655908  14.600  14.807  27.356
    1STR   H28755909  14.505  14.753  27.359
    1STR   H28855910  14.679  14.732  27.343
    1STR   O28955911  14.620  14.879  27.477
    1STR   C29055912  14.615  14.801  27.596
    1STR   H29155913  14.532  14.730  27.592
    1STR   C29255914  14.748  14.726  27.615
    1STR   H29355915  14.833  14.795  27.615
    1STR   H29455916  14.765  14.652  27.537
    1STR   H29555917  14.749  14.673  27.710
    1STR   C29655918  14.589  14.898  27.713
    1STR   H29755919  14.671  14.969  27.721
    1STR   H29855920  14.498  14.955  27.692
    1STR   O29955921  14.574  14.823  27.834
    1STR   C30055922  14.554  14.903  27.950
    1STR   H30155923  14.621  14.989  27.949
    1STR   C30255924  14.408  14.948  27.958
    1STR   H30355925  14.340  14.863  27.954
    1STR   H30455926  14.381  15.016  27.877
    1STR   H30555927  14.389  15.001  28.052
    1STR   C30655928  14.593  14.817  28.071
    1STR   H30755929  14.526  14.731  28.081
    1STR   H30855930  14.694  14.777  28.055
    1STR   O30955931  14.590  14.898  28.188
    1STR    H1R55932  14.570  14.736  28.316
    1STR    H1S55933  14.801  14.764  28.415
    1STR    H1T55934  14.827  14.906  28.317
    1STR    H1U55935  14.813  14.747  28.242
    1STR    H1V55936  14.464  14.945  28.405
    1STR    H1W55937  14.621  15.018  28.425
    1STR    H1X55938  14.572  14.753  28.734
    1STR    H1Y55939  14.587  14.644  28.933
    1STR    H1Z55940  14.704  14.600  29.143
    1STR    H2055941  15.040  14.694  29.212
    1STR    H2155942  14.922  14.781  29.312
    1STR    H2255943  14.898  14.611  29.275
    1STR    H2355944  15.097  14.921  28.985
    1STR    H2755945  14.878  14.947  28.832
    1STR    H2855946  14.920  14.606  16.386
    1STR    H2955947  14.876  14.578  16.151
    1STR    H2A55948  14.877  14.843  15.901
    1STR    H2B55949  14.830  14.678  15.938
    1STR    H2C55950  14.996  14.713  15.889
    1STR   BCK155951  15.125  15.120  30.979
    1STR    O0355952  15.123  15.240  30.956
    1STR    N0455953  15.164  15.065  31.094
    1STR    C0555954  15.236  15.133  31.192
    1STR    C0655955  15.192  15.135  31.326
    1STR    C0755956  15.267  15.201  31.428
    1STR    N0855957  15.222  15.197  31.561
    1STR    C0955958  15.279  15.246  31.672
    1STR    O0A55959  15.383  15.311  31.675
    1STR    O0B55960  15.208  15.216  31.783
    1STR    C0C55961  15.251  15.268  31.910
    1STR    C0D55962  15.197  15.411  31.926
    1STR    C0E55963  15.207  15.177  32.026
    1STR    O0F55964  15.263  15.230  32.147
    1STR    C0G55965  15.238  15.157  32.266
    1STR    C0H55966  15.332  15.036  32.273
    1STR    C0I55967  15.262  15.252  32.385
    1STR    O0J55968  15.229  15.186  32.507
    1STR    C0K55969  15.500  14.910  43.346
    1STR    C0M55970  15.397  15.023  43.362
    1STR    C0N55971  15.489  14.806  43.459
    1STR    O0O55972  15.534  14.861  43.582
    1STR    C0P55973  15.445  14.904  43.673
    1STR    O0Q55974  15.323  14.898  43.662
    1STR    N0R55975  15.512  14.956  43.776
    1STR    C0S55976  15.464  15.017  43.892
    1STR    C0T55977  15.554  15.099  43.963
    1STR    C0U55978  15.513  15.167  44.079
    1STR    C0V55979  15.381  15.151  44.128
    1STR    C0W55980  15.338  15.229  44.251
    1STR    C0X55981  15.292  15.064  44.061
    1STR    N0Y55982  15.164  15.046  44.112
    1STR   BCK255983  15.130  14.963  44.211
    1STR    O1055984  15.021  14.974  44.266
    1STR    C1355985  15.333  14.999  43.943
    1STR    C1455986  15.386  15.267  31.389
    1STR    C1555987  15.432  15.262  31.257
    1STR    C1655988  15.360  15.193  31.158
    1STR    C1755989  15.421  15.183  31.019
    1STR    H1B55990  15.149  14.967  31.104
    1STR    H1C55991  15.099  15.087  31.350
    1STR    H1D55992  15.136  15.149  31.581
    1STR    H1E55993  15.360  15.270  31.912
    1STR    H1F55994  15.088  15.413  31.927
    1STR    H1G55995  15.232  15.455  32.020
    1STR    H1H55996  15.232  15.475  31.845
    1STR    H1I55997  15.244  15.076  32.008
    1STR    H1J55998  15.099  15.171  32.033
    1STR    H1K55999  15.134  15.124  32.269
    1STR    H1M56000  15.436  15.067  32.266
    1STR    H1N56001  15.313  14.964  32.194
    1STR    H1O56002  15.320  14.983  32.368
    1STR    H1P56003  15.366  15.286  32.386
    1STR    H1Q56004  15.200  15.341  32.372
    1STR   C01056005  15.251  15.261  32.626
    1STR   H01156006  15.348  15.311  32.622
    1STR   C01256007  15.139  15.365  32.644
    1STR   H01356008  15.041  15.318  32.644
    1STR   H01456009  15.140  15.441  32.567
    1STR   H01556010  15.150  15.417  32.740
    1STR   C01656011  15.254  15.162  32.744
    1STR   H01756012  15.159  15.109  32.751
    1STR   H01856013  15.331  15.086  32.724
    1STR   O01956014  15.282  15.230  32.866
    1STR   C02056015  15.284  15.148  32.983
    1STR   H02156016  15.200  15.078  32.981
    1STR   C02256017  15.416  15.070  32.990
    1STR   H02356018  15.502  15.138  32.987
    1STR   H02456019  15.427  14.999  32.909
    1STR   H02556020  15.423  15.013  33.083
    1STR   C02656021  15.267  15.240  33.106
    1STR   H02756022  15.350  15.310  33.112
    1STR   H02856023  15.175  15.298  33.093
    1STR   O02956024  15.259  15.160  33.224
    1STR   C03056025  15.247  15.233  33.346
    1STR   H03156026  15.315  15.319  33.346
    1STR   C03256027  15.102  15.281  33.364
    1STR   H03356028  15.032  15.198  33.360
    1STR   H03456029  15.073  15.353  33.288
    1STR   H03556030  15.089  15.330  33.460
    1STR   C03656031  15.289  15.140  33.461
    1STR   H03756032  15.223  15.054  33.465
    1STR   H03856033  15.389  15.102  33.441
    1STR   O03956034  15.287  15.212  33.584
    1STR   C04056035  15.320  15.135  33.700
    1STR   H04156036  15.271  15.038  33.696
    1STR   C04256037  15.472  15.116  33.708
    1STR   H04356038  15.524  15.213  33.708
    1STR   H04456039  15.511  15.057  33.626
    1STR   H04556040  15.500  15.065  33.801
    1STR   C04656041  15.266  15.210  33.823
    1STR   H04756042  15.314  15.308  33.831
    1STR   H04856043  15.159  15.228  33.809
    1STR   O04956044  15.289  15.133  33.941
    1STR   C05056045  15.248  15.194  34.062
    1STR   H05156046  15.276  15.300  34.064
    1STR   C05256047  15.095  15.180  34.078
    1STR   H05356048  15.064  15.076  34.073
    1STR   H05456049  15.041  15.236  34.002
    1STR   H05556050  15.063  15.219  34.175
    1STR   C05656051  15.322  15.124  34.177
    1STR   H05756052  15.295  15.018  34.180
    1STR   H05856053  15.429  15.129  34.158
    1STR   O05956054  15.290  15.187  34.301
    1STR   C06056055  15.350  15.129  34.416
    1STR   H06156056  15.344  15.020  34.411
    1STR   C06256057  15.497  15.173  34.427
    1STR   H06356058  15.506  15.282  34.427
    1STR   H06456059  15.558  15.135  34.345
    1STR   H06556060  15.542  15.137  34.519
    1STR   C06656061  15.269  15.175  34.539
    1STR   H06756062  15.274  15.284  34.548
    1STR   H06856063  15.164  15.149  34.523
    1STR   O06956064  15.320  15.112  34.656
    1STR   C07056065  15.255  15.150  34.777
    1STR   H07156066  15.239  15.258  34.780
    1STR   C07256067  15.121  15.076  34.791
    1STR   H07356068  15.135  14.968  34.784
    1STR   H07456069  15.050  15.106  34.714
    1STR   H07556070  15.075  15.097  34.887
    1STR   C07656071  15.351  15.114  34.893
    1STR   H07756072  15.368  15.006  34.895
    1STR   H07856073  15.447  15.162  34.875
    1STR   O07956074  15.295  15.158  35.016
    1STR   C08056075  15.372  15.127  35.132
    1STR   H08156076  15.409  15.025  35.126
    1STR   C08256077  15.488  15.226  35.145
    1STR   H08356078  15.453  15.329  35.146
    1STR   H08456079  15.560  15.216  35.064
    1STR   H08556080  15.543  15.209  35.238
    1STR   C08656081  15.277  15.136  35.253
    1STR   H08756082  15.238  15.237  35.263
    1STR   H08856083  15.192  15.070  35.236
    1STR   O08956084  15.347  15.097  35.371
    1STR   C09056085  15.272  15.104  35.492
    1STR   H09156086  15.214  15.197  35.494
    1STR   C09256087  15.178  14.983  35.502
    1STR   H09356088  15.234  14.889  35.495
    1STR   H09456089  15.102  14.983  35.425
    1STR   H09556090  15.126  14.983  35.598
    1STR   C09656091  15.372  15.108  35.608
    1STR   H09756092  15.431  15.016  35.609
    1STR   H09856093  15.442  15.190  35.592
    1STR   O09956094  15.302  15.124  35.731
    1STR   C10056095  15.383  15.126  35.848
    1STR   H10156096  15.459  15.047  35.842
    1STR   C10256097  15.451  15.263  35.863
    1STR   H10356098  15.377  15.343  35.865
    1STR   H10456099  15.521  15.283  35.783
    1STR   H10556100  15.507  15.268  35.957
    1STR   C10656101  15.292  15.094  35.967
    1STR   H10756102  15.216  15.172  35.977
    1STR   H10856103  15.240  15.000  35.949
    1STR   O10956104  15.371  15.085  36.086
    1STR   C11056105  15.298  15.060  36.205
    1STR   H11156106  15.207  15.121  36.208
    1STR   C11256107  15.260  14.911  36.214
    1STR   H11356108  15.349  14.848  36.207
    1STR   H11456109  15.191  14.881  36.135
    1STR   H11556110  15.212  14.889  36.309
    1STR   C11656111  15.387  15.102  36.323
    1STR   H11756112  15.478  15.041  36.325
    1STR   H11856113  15.418  15.205  36.309
    1STR   O11956114  15.314  15.088  36.445
    1STR   C12056115  15.387  15.120  36.563
    1STR   H12156116  15.488  15.078  36.558
    1STR   C12256117  15.394  15.273  36.580
    1STR   H12356118  15.294  15.317  36.581
    1STR   H12456119  15.451  15.320  36.501
    1STR   H12556120  15.442  15.298  36.675
    1STR   C12656121  15.315  15.053  36.681
    1STR   H12756122  15.214  15.094  36.691
    1STR   H12856123  15.305  14.947  36.661
    1STR   O12956124  15.389  15.075  36.801
    1STR   C13056125  15.331  15.021  36.919
    1STR   H13156126  15.223  15.042  36.920
    1STR   C13256127  15.356  14.870  36.926
    1STR   H13356128  15.462  14.847  36.919
    1STR   H13456129  15.305  14.816  36.846
    1STR   H13556130  15.319  14.829  37.020
    1STR   C13656131  15.394  15.094  37.038
    1STR   H13756132  15.502  15.075  37.041
    1STR   H13856133  15.381  15.201  37.025
    1STR   O13956134  15.332  15.050  37.159
    1STR   C14056135  15.385  15.108  37.278
    1STR   H14156136  15.494  15.110  37.274
    1STR   C14256137  15.330  15.250  37.297
    1STR   H14356138  15.221  15.250  37.296
    1STR   H14456139  15.364  15.318  37.219
    1STR   H14556140  15.362  15.292  37.392
    1STR   C14656141  15.344  15.016  37.395
    1STR   H14756142  15.235  15.013  37.403
    1STR   H14856143  15.378  14.915  37.374
    1STR   O14956144  15.402  15.064  37.516
    1STR   C15056145  15.369  14.990  37.633
    1STR   H15156146  15.262  14.966  37.633
    1STR   C15256147  15.452  14.861  37.639
    1STR   H15356148  15.559  14.883  37.634
    1STR   H15456149  15.428  14.793  37.558
    1STR   H15556150  15.434  14.808  37.732
    1STR   C15656151  15.396  15.081  37.754
    1STR   H15756152  15.503  15.106  37.758
    1STR   H15856153  15.342  15.175  37.741
    1STR   O15956154  15.355  15.015  37.873
    1STR   C16056155  15.379  15.087  37.993
    1STR   H16156156  15.479  15.133  37.991
    1STR   C16256157  15.272  15.195  38.012
    1STR   H16356158  15.172  15.152  38.010
    1STR   H16456159  15.277  15.272  37.935
    1STR   H16556160  15.284  15.246  38.108
    1STR   C16656161  15.377  14.985  38.109
    1STR   H16756162  15.279  14.939  38.115
    1STR   H16856163  15.449  14.906  38.087
    1STR   O16956164  15.410  15.051  38.231
    1STR   C17056165  15.408  14.969  38.347
    1STR   H17156166  15.320  14.904  38.345
    1STR   C17256167  15.536  14.884  38.353
    1STR   H17356168  15.625  14.947  38.350
    1STR   H17456169  15.542  14.812  38.271
    1STR   H17556170  15.539  14.826  38.446
    1STR   C17656171  15.395  15.061  38.469
    1STR   H17756172  15.483  15.127  38.474
    1STR   H17856173  15.308  15.125  38.456
    1STR   O17956174  15.383  14.983  38.587
    1STR   C18056175  15.375  15.057  38.708
    1STR   H18156176  15.448  15.139  38.707
    1STR   C18256177  15.233  15.113  38.726
    1STR   H18356178  15.158  15.034  38.722
    1STR   H18456179  15.208  15.187  38.649
    1STR   H18556180  15.223  15.163  38.822
    1STR   C18656181  15.412  14.962  38.823
    1STR   H18756182  15.340  14.879  38.827
    1STR   H18856183  15.510  14.918  38.802
    1STR   O18956184  15.415  15.034  38.945
    1STR   C19056185  15.444  14.955  39.061
    1STR   H19156186  15.389  14.861  39.057
    1STR   C19256187  15.595  14.929  39.069
    1STR   H19356188  15.652  15.022  39.068
    1STR   H19456189  15.630  14.867  38.986
    1STR   H19556190  15.620  14.876  39.161
    1STR   C19656191  15.394  15.034  39.183
    1STR   H19756192  15.448  15.129  39.191
    1STR   H19856193  15.289  15.058  39.170
    1STR   O19956194  15.413  14.956  39.301
    1STR   C20056195  15.374  15.019  39.422
    1STR   H20156196  15.408  15.123  39.423
    1STR   C20256197  15.222  15.013  39.438
    1STR   H20356198  15.185  14.911  39.433
    1STR   H20456199  15.170  15.071  39.362
    1STR   H20556200  15.191  15.054  39.535
    1STR   C20656201  15.446  14.945  39.537
    1STR   H20756202  15.413  14.841  39.540
    1STR   H20856203  15.553  14.944  39.517
    1STR   O20956204  15.418  15.010  39.660
    1STR   C21056205  15.474  14.949  39.775
    1STR   H21156206  15.462  14.841  39.771
    1STR   C21256207  15.624  14.985  39.786
    1STR   H21356208  15.638  15.093  39.786
    1STR   H21456209  15.682  14.943  39.703
    1STR   H21556210  15.666  14.945  39.878
    1STR   C21656211  15.396  15.000  39.898
    1STR   H21756212  15.408  15.108  39.907
    1STR   H21856213  15.290  14.980  39.882
    1STR   O21956214  15.443  14.934  40.015
    1STR   C22056215  15.381  14.975  40.136
    1STR   H22156216  15.371  15.084  40.139
    1STR   C22256217  15.243  14.909  40.150
    1STR   H22356218  15.251  14.800  40.143
    1STR   H22456219  15.174  14.942  40.073
    1STR   H22556220  15.198  14.933  40.246
    1STR   C22656221  15.475  14.934  40.251
    1STR   H22756222  15.486  14.826  40.253
    1STR   H22856223  15.574  14.977  40.233
    1STR   O22956224  15.422  14.982  40.375
    1STR   C23056225  15.497  14.947  40.490
    1STR   H23156226  15.529  14.843  40.485
    1STR   C23256227  15.619  15.039  40.503
    1STR   H23356228  15.589  15.144  40.504
    1STR   H23456229  15.690  15.025  40.421
    1STR   H23556230  15.673  15.019  40.596
    1STR   C23656231  15.403  14.961  40.612
    1STR   H23756232  15.370  15.064  40.622
    1STR   H23856233  15.314  14.900  40.595
    1STR   O23956234  15.471  14.918  40.729
    1STR   C24056235  15.397  14.929  40.850
    1STR   H24156236  15.344  15.025  40.853
    1STR   C24256237  15.297  14.813  40.861
    1STR   H24356238  15.348  14.717  40.854
    1STR   H24456239  15.221  14.817  40.783
    1STR   H24556240  15.245  14.816  40.957
    1STR   C24656241  15.497  14.928  40.966
    1STR   H24756242  15.551  14.833  40.967
    1STR   H24856243  15.571  15.006  40.950
    1STR   O24956244  15.428  14.949  41.089
    1STR   C25056245  15.510  14.945  41.205
    1STR   H25156246  15.581  14.863  41.199
    1STR   C25256247  15.585  15.079  41.220
    1STR   H25356248  15.516  15.163  41.222
    1STR   H25456249  15.656  15.095  41.140
    1STR   H25556250  15.641  15.081  41.314
    1STR   C25656251  15.417  14.919  41.325
    1STR   H25756252  15.346  15.001  41.335
    1STR   H25856253  15.360  14.828  41.306
    1STR   O25956254  15.496  14.905  41.443
    1STR   C26056255  15.421  14.885  41.563
    1STR   H26156256  15.335  14.951  41.566
    1STR   C26256257  15.376  14.738  41.572
    1STR   H26356258  15.461  14.670  41.565
    1STR   H26456259  15.305  14.712  41.493
    1STR   H26556260  15.326  14.719  41.667
    1STR   C26656261  15.513  14.922  41.680
    1STR   H26756262  15.600  14.857  41.682
    1STR   H26856263  15.550  15.024  41.666
    1STR   O26956264  15.440  14.912  41.802
    1STR   C27056265  15.515  14.940  41.920
    1STR   H27156266  15.613  14.893  41.914
    1STR   C27256267  15.530  15.092  41.937
    1STR   H27356268  15.433  15.142  41.939
    1STR   H27456269  15.590  15.137  41.858
    1STR   H27556270  15.580  15.115  42.032
    1STR   C27656271  15.439  14.878  42.038
    1STR   H27756272  15.341  14.924  42.048
    1STR   H27856273  15.423  14.772  42.018
    1STR   O27956274  15.515  14.895  42.157
    1STR   C28056275  15.454  14.845  42.275
    1STR   H28156276  15.348  14.871  42.277
    1STR   C28256277  15.471  14.693  42.283
    1STR   H28356278  15.576  14.664  42.277
    1STR   H28456279  15.417  14.641  42.203
    1STR   H28556280  15.432  14.654  42.377
    1STR   C28656281  15.522  14.915  42.394
    1STR   H28756282  15.628  14.890  42.397
    1STR   H28856283  15.514  15.023  42.381
    1STR   O28956284  15.457  14.875  42.515
    1STR   C29056285  15.514  14.929  42.634
    1STR   H29156286  15.623  14.926  42.629
    1STR   C29256287  15.467  15.075  42.653
    1STR   H29356288  15.358  15.081  42.654
    1STR   H29456289  15.504  15.141  42.575
    1STR   H29556290  15.503  15.114  42.748
    1STR   C29656291  15.469  14.840  42.750
    1STR   H29756292  15.360  14.843  42.759
    1STR   H29856293  15.496  14.737  42.728
    1STR   O29956294  15.531  14.884  42.870
    1STR   C30056295  15.492  14.813  42.987
    1STR   H30156296  15.385  14.794  42.986
    1STR   C30256297  15.569  14.680  42.994
    1STR   H30356298  15.677  14.696  42.991
    1STR   H30456299  15.543  14.612  42.913
    1STR   H30556300  15.547  14.628  43.088
    1STR   C30656301  15.523  14.903  43.107
    1STR   H30756302  15.631  14.922  43.113
    1STR   H30856303  15.474  14.999  43.093
    1STR   O30956304  15.476  14.839  43.225
    1STR    H1R56305  15.601  14.950  43.346
    1STR    H1S56306  15.412  15.077  43.456
    1STR    H1T56307  15.295  14.984  43.363
    1STR    H1U56308  15.404  15.097  43.282
    1STR    H1V56309  15.554  14.721  43.436
    1STR    H1W56310  15.388  14.765  43.466
    1STR    H1X56311  15.611  14.952  43.761
    1STR    H1Y56312  15.655  15.114  43.928
    1STR    H1Z56313  15.582  15.231  44.131
    1STR    H2056314  15.235  15.261  44.243
    1STR    H2156315  15.347  15.167  44.340
    1STR    H2256316  15.399  15.318  44.266
    1STR    H2356317  15.089  15.104  44.078
    1STR    H2756318  15.263  14.933  43.893
    1STR    H2856319  15.447  15.321  31.458
    1STR    H2956320  15.525  15.312  31.232
    1STR    H2A56321  15.402  15.086  30.975
    1STR    H2B56322  15.529  15.196  31.022
    1STR    H2C56323  15.380  15.260  30.954
    1STR   BCK156324  15.039  15.079  46.009
    1STR    O0356325  14.992  14.975  45.964
    1STR    N0456326  15.009  15.132  46.129
    1STR    C0556327  14.901  15.104  46.215
    1STR    C0656328  14.922  15.079  46.353
    1STR    C0756329  14.814  15.067  46.446
    1STR    N0856330  14.839  15.047  46.584
    1STR    C0956331  14.755  15.055  46.689
    1STR    O0A56332  14.636  15.082  46.681
    1STR    O0B56333  14.818  15.029  46.808
    1STR    C0C56334  14.741  15.023  46.930
    1STR    C0D56335  14.678  14.883  46.944
    1STR    C0E56336  14.827  15.058  47.054
    1STR    O0F56337  14.747  15.053  47.173
    1STR    C0G56338  14.812  15.088  47.296
    1STR    C0H56339  14.826  15.240  47.306
    1STR    C0I56340  14.731  15.033  47.416
    1STR    O0J56341  14.800  15.060  47.539
    1STR    C0K56342  14.793  15.440  58.394
    1STR    C0M56343  14.790  15.286  58.404
    1STR    C0N56344  14.873  15.502  58.510
    1STR    O0O56345  14.809  15.482  58.635
    1STR    C0P56346  14.857  15.393  58.724
    1STR    O0Q56347  14.953  15.320  58.706
    1STR    N0R56348  14.781  15.397  58.834
    1STR    C0S56349  14.785  15.324  58.953
    1STR    C0T56350  14.676  15.337  59.040
    1STR    C0U56351  14.670  15.264  59.160
    1STR    C0V56352  14.774  15.176  59.196
    1STR    C0W56353  14.757  15.092  59.321
    1STR    C0X56354  14.889  15.166  59.113
    1STR    N0Y56355  14.995  15.081  59.143
    1STR   BCK256356  15.066  15.073  59.256
    1STR    O1056357  15.053  15.148  59.352
    1STR    C1356358  14.892  15.239  58.991
    1STR    C1456359  14.683  15.077  46.393
    1STR    C1556360  14.661  15.103  46.257
    1STR    C1656361  14.768  15.118  46.168
    1STR    C1756362  14.737  15.157  46.024
    1STR    H1B56363  15.068  15.209  46.155
    1STR    H1C56364  15.024  15.072  46.389
    1STR    H1D56365  14.933  15.026  46.612
    1STR    H1E56366  14.661  15.097  46.926
    1STR    H1F56367  14.753  14.805  46.950
    1STR    H1G56368  14.616  14.877  47.033
    1STR    H1H56369  14.613  14.861  46.859
    1STR    H1I56370  14.869  15.157  47.041
    1STR    H1J56371  14.910  14.988  47.063
    1STR    H1K56372  14.911  15.041  47.299
    1STR    H1M56373  14.728  15.289  47.299
    1STR    H1N56374  14.889  15.282  47.227
    1STR    H1O56375  14.870  15.269  47.401
    1STR    H1P56376  14.632  15.078  47.417
    1STR    H1Q56377  14.717  14.925  47.404
    1STR   C01056378  14.734  15.020  47.659
    1STR   H01156379  14.628  15.048  47.655
    1STR   C01256380  14.746  14.868  47.677
    1STR   H01356381  14.851  14.837  47.677
    1STR   H01456382  14.694  14.812  47.600
    1STR   H01556383  14.703  14.837  47.773
    1STR   C01656384  14.798  15.095  47.778
    1STR   H01756385  14.904  15.070  47.784
    1STR   H01856386  14.792  15.203  47.759
    1STR   O01956387  14.733  15.063  47.901
    1STR   C02056388  14.787  15.124  48.018
    1STR   H02156389  14.896  15.119  48.016
    1STR   C02256390  14.742  15.271  48.026
    1STR   H02356391  14.634  15.279  48.024
    1STR   H02456392  14.782  15.331  47.944
    1STR   H02556393  14.777  15.317  48.119
    1STR   C02656394  14.739  15.045  48.142
    1STR   H02756395  14.630  15.049  48.148
    1STR   H02856396  14.766  14.941  48.130
    1STR   O02956397  14.797  15.099  48.260
    1STR   C03056398  14.757  15.038  48.383
    1STR   H03156399  14.649  15.021  48.382
    1STR   C03256400  14.831  14.904  48.401
    1STR   H03356401  14.939  14.918  48.397
    1STR   H03456402  14.803  14.831  48.325
    1STR   H03556403  14.807  14.860  48.498
    1STR   C03656404  14.788  15.135  48.498
    1STR   H03756405  14.896  15.154  48.503
    1STR   H03856406  14.740  15.231  48.479
    1STR   O03956407  14.742  15.080  48.622
    1STR   C04056408  14.770  15.159  48.738
    1STR   H04156409  14.872  15.197  48.734
    1STR   C04256410  14.670  15.276  48.747
    1STR   H04356411  14.567  15.240  48.746
    1STR   H04456412  14.682  15.346  48.665
    1STR   H04556413  14.685  15.332  48.839
    1STR   C04656414  14.758  15.067  48.861
    1STR   H04756415  14.657  15.028  48.869
    1STR   H04856416  14.825  14.982  48.848
    1STR   O04956417  14.793  15.140  48.979
    1STR   C05056418  14.783  15.067  49.101
    1STR   H05156419  14.691  15.008  49.102
    1STR   C05256420  14.905  14.974  49.117
    1STR   H05356421  14.998  15.030  49.111
    1STR   H05456422  14.907  14.896  49.041
    1STR   H05556423  14.902  14.924  49.214
    1STR   C05656424  14.775  15.169  49.216
    1STR   H05756425  14.867  15.228  49.219
    1STR   H05856426  14.693  15.237  49.197
    1STR   O05956427  14.756  15.100  49.340
    1STR   C06056428  14.751  15.184  49.456
    1STR   H06156429  14.829  15.260  49.451
    1STR   C06256430  14.613  15.250  49.466
    1STR   H06356431  14.534  15.176  49.467
    1STR   H06456432  14.594  15.319  49.384
    1STR   H06556433  14.605  15.308  49.559
    1STR   C06656434  14.780  15.095  49.578
    1STR   H06756435  14.703  15.018  49.587
    1STR   H06856436  14.875  15.043  49.563
    1STR   O06956437  14.785  15.175  49.695
    1STR   C07056438  14.807  15.104  49.817
    1STR   H07156439  14.746  15.014  49.819
    1STR   C07256440  14.956  15.068  49.830
    1STR   H07356441  15.019  15.157  49.823
    1STR   H07456442  14.988  14.998  49.754
    1STR   H07556443  14.976  15.021  49.927
    1STR   C07656444  14.761  15.195  49.932
    1STR   H07756445  14.821  15.286  49.934
    1STR   H07856446  14.658  15.225  49.915
    1STR   O07956447  14.773  15.125  50.056
    1STR   C08056448  14.737  15.199  50.172
    1STR   H08156449  14.778  15.300  50.166
    1STR   C08256450  14.584  15.205  50.185
    1STR   H08356451  14.541  15.105  50.186
    1STR   H08456452  14.537  15.261  50.104
    1STR   H08556453  14.555  15.255  50.278
    1STR   C08656454  14.801  15.129  50.293
    1STR   H08756455  14.761  15.028  50.303
    1STR   H08856456  14.908  15.120  50.276
    1STR   O08956457  14.775  15.206  50.411
    1STR   C09056458  14.826  15.149  50.531
    1STR   H09156459  14.806  15.042  50.534
    1STR   C09256460  14.977  15.176  50.542
    1STR   H09356461  14.999  15.282  50.535
    1STR   H09456462  15.033  15.124  50.465
    1STR   H09556463  15.015  15.140  50.638
    1STR   C09656464  14.749  15.215  50.648
    1STR   H09756465  14.768  15.322  50.649
    1STR   H09856466  14.642  15.201  50.632
    1STR   O09956467  14.790  15.155  50.771
    1STR   C10056468  14.729  15.209  50.888
    1STR   H10156469  14.726  15.318  50.882
    1STR   C10256470  14.586  15.153  50.903
    1STR   H10356471  14.587  15.044  50.904
    1STR   H10456472  14.521  15.186  50.822
    1STR   H10556473  14.542  15.188  50.996
    1STR   C10656474  14.817  15.170  51.007
    1STR   H10756475  14.821  15.062  51.017
    1STR   H10856476  14.919  15.204  50.989
    1STR   O10956477  14.766  15.230  51.126
    1STR   C11056478  14.837  15.199  51.245
    1STR   H11156479  14.862  15.093  51.248
    1STR   C11256480  14.965  15.284  51.254
    1STR   H11356481  14.942  15.390  51.246
    1STR   H11456482  15.036  15.259  51.175
    1STR   H11556483  15.016  15.268  51.349
    1STR   C11656484  14.742  15.228  51.363
    1STR   H11756485  14.716  15.334  51.365
    1STR   H11856486  14.650  15.173  51.349
    1STR   O11956487  14.806  15.190  51.485
    1STR   C12056488  14.730  15.216  51.603
    1STR   H12156489  14.684  15.314  51.598
    1STR   C12256490  14.622  15.108  51.620
    1STR   H12356491  14.666  15.008  51.621
    1STR   H12456492  14.548  15.111  51.541
    1STR   H12556493  14.569  15.121  51.715
    1STR   C12656494  14.829  15.216  51.721
    1STR   H12756495  14.876  15.118  51.731
    1STR   H12856496  14.908  15.288  51.701
    1STR   O12956497  14.759  15.250  51.841
    1STR   C13056498  14.839  15.250  51.959
    1STR   H13156499  14.904  15.163  51.960
    1STR   C13256500  14.922  15.379  51.966
    1STR   H13356501  14.859  15.468  51.960
    1STR   H13456502  14.996  15.385  51.886
    1STR   H13556503  14.977  15.384  52.060
    1STR   C13656504  14.742  15.239  52.078
    1STR   H13756505  14.676  15.326  52.081
    1STR   H13856506  14.679  15.151  52.065
    1STR   O13956507  14.818  15.230  52.199
    1STR   C14056508  14.740  15.223  52.318
    1STR   H14156509  14.658  15.295  52.314
    1STR   C14256510  14.685  15.081  52.337
    1STR   H14356511  14.765  15.007  52.336
    1STR   H14456512  14.614  15.054  52.259
    1STR   H14556513  14.632  15.072  52.432
    1STR   C14656514  14.832  15.263  52.435
    1STR   H14756515  14.915  15.192  52.443
    1STR   H14856516  14.876  15.360  52.414
    1STR   O14956517  14.757  15.267  52.556
    1STR   C15056518  14.831  15.298  52.673
    1STR   H15156519  14.926  15.244  52.673
    1STR   C15256520  14.857  15.450  52.679
    1STR   H15356521  14.763  15.506  52.674
    1STR   H15456522  14.921  15.484  52.598
    1STR   H15556523  14.907  15.477  52.772
    1STR   C15656524  14.749  15.250  52.794
    1STR   H15756525  14.654  15.304  52.798
    1STR   H15856526  14.727  15.145  52.781
    1STR   O15956527  14.824  15.271  52.913
    1STR   C16056528  14.758  15.235  53.033
    1STR   H16156529  14.654  15.268  53.031
    1STR   C16256530  14.764  15.082  53.052
    1STR   H16356531  14.867  15.046  53.050
    1STR   H16456532  14.708  15.029  52.975
    1STR   H16556533  14.721  15.053  53.148
    1STR   C16656534  14.829  15.308  53.149
    1STR   H16756535  14.933  15.276  53.155
    1STR   H16856536  14.829  15.415  53.127
    1STR   O16956537  14.760  15.282  53.271
    1STR   C17056538  14.817  15.341  53.386
    1STR   H17156539  14.926  15.330  53.385
    1STR   C17256540  14.780  15.490  53.393
    1STR   H17356541  14.672  15.504  53.390
    1STR   H17456542  14.824  15.547  53.311
    1STR   H17556543  14.816  15.535  53.486
    1STR   C17656544  14.764  15.265  53.508
    1STR   H17756545  14.655  15.275  53.514
    1STR   H17856546  14.785  15.158  53.496
    1STR   O17956547  14.826  15.314  53.627
    1STR   C18056548  14.782  15.254  53.748
    1STR   H18156549  14.673  15.243  53.747
    1STR   C18256550  14.848  15.116  53.766
    1STR   H18356551  14.957  15.125  53.762
    1STR   H18456552  14.817  15.045  53.689
    1STR   H18556553  14.822  15.073  53.862
    1STR   C18656554  14.819  15.349  53.863
    1STR   H18756555  14.927  15.361  53.867
    1STR   H18856556  14.777  15.448  53.842
    1STR   O18956557  14.768  15.298  53.985
    1STR   C19056558  14.800  15.375  54.101
    1STR   H19156559  14.904  15.408  54.097
    1STR   C19256560  14.706  15.497  54.109
    1STR   H19356561  14.602  15.467  54.108
    1STR   H19456562  14.722  15.567  54.027
    1STR   H19556563  14.724  15.553  54.201
    1STR   C19656564  14.783  15.284  54.223
    1STR   H19756565  14.679  15.251  54.231
    1STR   H19856566  14.844  15.195  54.210
    1STR   O19956567  14.822  15.354  54.341
    1STR   C20056568  14.808  15.281  54.462
    1STR   H20156569  14.713  15.228  54.463
    1STR   C20256570  14.924  15.183  54.478
    1STR   H20356571  15.020  15.234  54.473
    1STR   H20456572  14.923  15.105  54.402
    1STR   H20556573  14.919  15.132  54.575
    1STR   C20656574  14.805  15.384  54.577
    1STR   H20756575  14.900  15.439  54.580
    1STR   H20856576  14.727  15.457  54.557
    1STR   O20956577  14.782  15.317  54.700
    1STR   C21056578  14.781  15.401  54.815
    1STR   H21156579  14.863  15.472  54.811
    1STR   C21256580  14.647  15.475  54.826
    1STR   H21356581  14.563  15.405  54.826
    1STR   H21456582  14.632  15.545  54.743
    1STR   H21556583  14.642  15.533  54.918
    1STR   C21656584  14.804  15.310  54.938
    1STR   H21756585  14.723  15.238  54.947
    1STR   H21856586  14.896  15.253  54.923
    1STR   O21956587  14.814  15.390  55.055
    1STR   C22056588  14.832  15.318  55.176
    1STR   H22156589  14.766  15.231  55.179
    1STR   C22256590  14.979  15.274  55.190
    1STR   H22356591  15.046  15.360  55.183
    1STR   H22456592  15.007  15.202  55.113
    1STR   H22556593  14.996  15.226  55.286
    1STR   C22656594  14.791  15.412  55.291
    1STR   H22756595  14.856  15.499  55.293
    1STR   H22856596  14.689  15.447  55.274
    1STR   O22956597  14.798  15.341  55.415
    1STR   C23056598  14.766  15.417  55.530
    1STR   H23156599  14.813  15.516  55.525
    1STR   C23256600  14.614  15.432  55.543
    1STR   H23356601  14.565  15.334  55.544
    1STR   H23456602  14.571  15.490  55.462
    1STR   H23556603  14.587  15.483  55.636
    1STR   C23656604  14.826  15.344  55.652
    1STR   H23756605  14.780  15.245  55.662
    1STR   H23856606  14.932  15.329  55.635
    1STR   O23956607  14.804  15.422  55.769
    1STR   C24056608  14.852  15.363  55.890
    1STR   H24156609  14.826  15.257  55.893
    1STR   C24256610  15.004  15.381  55.901
    1STR   H24356611  15.032  15.486  55.894
    1STR   H24456612  15.058  15.327  55.823
    1STR   H24556613  15.041  15.344  55.997
    1STR   C24656614  14.779  15.432  56.006
    1STR   H24756615  14.803  15.538  56.008
    1STR   H24856616  14.671  15.424  55.990
    1STR   O24956617  14.816  15.370  56.129
    1STR   C25056618  14.757  15.428  56.246
    1STR   H25156619  14.761  15.537  56.240
    1STR   C25256620  14.612  15.380  56.261
    1STR   H25356621  14.607  15.271  56.262
    1STR   H25456622  14.548  15.416  56.180
    1STR   H25556623  14.569  15.416  56.354
    1STR   C25656624  14.843  15.384  56.366
    1STR   H25756625  14.841  15.276  56.376
    1STR   H25856626  14.947  15.413  56.347
    1STR   O25956627  14.795  15.447  56.484
    1STR   C26056628  14.864  15.412  56.604
    1STR   H26156629  14.883  15.305  56.607
    1STR   C26256630  14.996  15.489  56.612
    1STR   H26356631  14.980  15.597  56.605
    1STR   H26456632  15.066  15.460  56.534
    1STR   H26556633  15.046  15.470  56.708
    1STR   C26656634  14.771  15.447  56.722
    1STR   H26756635  14.751  15.554  56.723
    1STR   H26856636  14.675  15.396  56.707
    1STR   O26956637  14.832  15.405  56.844
    1STR   C27056638  14.757  15.435  56.962
    1STR   H27156639  14.717  15.536  56.956
    1STR   C27256640  14.643  15.333  56.979
    1STR   H27356641  14.682  15.231  56.979
    1STR   H27456642  14.569  15.340  56.899
    1STR   H27556643  14.591  15.349  57.073
    1STR   C27656644  14.855  15.429  57.080
    1STR   H27756645  14.897  15.329  57.090
    1STR   H27856646  14.938  15.497  57.061
    1STR   O27956647  14.787  15.467  57.200
    1STR   C28056648  14.866  15.463  57.318
    1STR   H28156649  14.927  15.372  57.320
    1STR   C28256650  14.957  15.587  57.325
    1STR   H28356651  14.898  15.679  57.318
    1STR   H28456652  15.031  15.588  57.246
    1STR   H28556653  15.011  15.590  57.420
    1STR   C28656654  14.769  15.458  57.438
    1STR   H28756655  14.708  15.548  57.440
    1STR   H28856656  14.702  15.373  57.425
    1STR   O28956657  14.843  15.445  57.559
    1STR   C29056658  14.765  15.442  57.678
    1STR   H29156659  14.687  15.519  57.674
    1STR   C29256660  14.702  15.303  57.696
    1STR   H29356661  14.778  15.225  57.695
    1STR   H29456662  14.629  15.280  57.618
    1STR   H29556663  14.649  15.297  57.791
    1STR   C29656664  14.859  15.477  57.795
    1STR   H29756665  14.937  15.401  57.803
    1STR   H29856666  14.908  15.572  57.775
    1STR   O29956667  14.783  15.484  57.916
    1STR   C30056668  14.860  15.512  58.033
    1STR   H30156669  14.952  15.454  58.032
    1STR   C30256670  14.892  15.662  58.040
    1STR   H30356671  14.802  15.722  58.036
    1STR   H30456672  14.958  15.694  57.959
    1STR   H30556673  14.943  15.686  58.133
    1STR   C30656674  14.777  15.466  58.155
    1STR   H30756675  14.686  15.525  58.162
    1STR   H30856676  14.748  15.363  58.140
    1STR   O30956677  14.856  15.480  58.273
    1STR    H1R56678  14.691  15.479  58.398
    1STR    H1S56679  14.746  15.254  58.499
    1STR    H1T56680  14.891  15.245  58.400
    1STR    H1U56681  14.731  15.240  58.325
    1STR    H1V56682  14.881  15.610  58.494
    1STR    H1W56683  14.976  15.465  58.510
    1STR    H1X56684  14.707  15.464  58.823
    1STR    H1Y56685  14.593  15.402  59.016
    1STR    H1Z56686  14.584  15.273  59.224
    1STR    H2056687  14.805  14.995  59.310
    1STR    H2156688  14.802  15.143  59.406
    1STR    H2256689  14.652  15.073  59.343
    1STR    H2356690  15.026  15.019  59.070
    1STR    H2756691  14.978  15.229  58.927
    1STR    H2856692  14.596  15.068  46.455
    1STR    H2956693  14.559  15.113  46.222
    1STR    H2A56694  14.805  15.235  45.989
    1STR    H2B56695  14.636  15.195  46.014
    1STR    H2C56696  14.748  15.070  45.959
    1STR   BCK156697  15.188  30.080   0.905
    1STR    O0356698  15.309  30.071   0.891
    1STR    N0456699  15.121  30.034   1.011
    1STR    C0556700  15.171  29.947   1.107
    1STR    C0656701  15.170  29.981   1.244
    1STR    C0756702  15.218  29.892   1.344
    1STR    N0856703  15.211  29.928   1.479
    1STR    C0956704  15.269  29.871   1.586
    1STR    O0A56705  15.346  29.775   1.582
    1STR    O0B56706  15.232  29.932   1.701
    1STR    C0C56707  15.288  29.888   1.826
    1STR    C0D56708  15.426  29.952   1.844
    1STR    C0E56709  15.194  29.920   1.944
    1STR    O0F56710  15.252  29.870   2.064
    1STR    C0G56711  15.177  29.890   2.184
    1STR    C0H56712  15.063  29.787   2.191
    1STR    C0I56713  15.273  29.876   2.304
    1STR    O0J56714  15.203  29.903   2.425
    1STR    C0K56715  14.941  29.630  13.261
    1STR    C0M56716  15.055  29.733  13.274
    1STR    C0N56717  14.835  29.648  13.371
    1STR    O0O56718  14.889  29.603  13.494
    1STR    C0P56719  14.932  29.689  13.587
    1STR    O0Q56720  14.919  29.811  13.586
    1STR    N0R56721  14.995  29.617  13.680
    1STR    C0S56722  15.059  29.651  13.799
    1STR    C0T56723  15.129  29.546  13.861
    1STR    C0U56724  15.190  29.566  13.985
    1STR    C0V56725  15.180  29.690  14.052
    1STR    C0W56726  15.234  29.694  14.192
    1STR    C0X56727  15.112  29.799  13.990
    1STR    N0Y56728  15.081  29.919  14.055
    1STR   BCK256729  15.140  30.004  14.142
    1STR    O1056730  15.072  30.093  14.192
    1STR    C1356731  15.052  29.777  13.863
    1STR    C1456732  15.266  29.766   1.301
    1STR    C1556733  15.266  29.730   1.165
    1STR    C1656734  15.217  29.818   1.068
    1STR    C1756735  15.211  29.771   0.924
    1STR    H1B56736  15.023  30.059   1.015
    1STR    H1C56737  15.133  30.079   1.273
    1STR    H1D56738  15.158  30.010   1.504
    1STR    H1E56739  15.299  29.779   1.823
    1STR    H1F56740  15.420  30.061   1.848
    1STR    H1G56741  15.473  29.918   1.937
    1STR    H1H56742  15.493  29.925   1.763
    1STR    H1I56743  15.097  29.874   1.926
    1STR    H1J56744  15.178  30.028   1.951
    1STR    H1K56745  15.136  29.992   2.185
    1STR    H1M56746  15.102  29.686   2.186
    1STR    H1N56747  14.990  29.800   2.112
    1STR    H1O56748  15.009  29.797   2.286
    1STR    H1P56749  15.315  29.775   2.306
    1STR    H1Q56750  15.356  29.945   2.291
    1STR   C01056751  15.279  29.889   2.545
    1STR   H01156752  15.338  29.797   2.541
    1STR   C01256753  15.372  30.010   2.563
    1STR   H01356754  15.316  30.103   2.562
    1STR   H01456755  15.448  30.015   2.485
    1STR   H01556756  15.425  30.004   2.659
    1STR   C01656757  15.180  29.877   2.663
    1STR   H01756758  15.119  29.967   2.669
    1STR   H01856759  15.112  29.794   2.643
    1STR   O01956760  15.251  29.855   2.785
    1STR   C02056761  15.169  29.847   2.902
    1STR   H02156762  15.092  29.924   2.900
    1STR   C02256763  15.103  29.708   2.909
    1STR   H02356764  15.178  29.629   2.907
    1STR   H02456765  15.033  29.691   2.828
    1STR   H02556766  15.047  29.697   3.002
    1STR   C02656767  15.258  29.872   3.025
    1STR   H02756768  15.336  29.795   3.031
    1STR   H02856769  15.309  29.968   3.013
    1STR   O02956770  15.179  29.872   3.143
    1STR   C03056771  15.250  29.891   3.265
    1STR   H03156772  15.341  29.830   3.265
    1STR   C03256773  15.286  30.039   3.283
    1STR   H03356774  15.197  30.101   3.279
    1STR   H03456775  15.355  30.074   3.207
    1STR   H03556776  15.333  30.056   3.380
    1STR   C03656777  15.161  29.840   3.380
    1STR   H03756778  15.069  29.899   3.385
    1STR   H03856779  15.132  29.737   3.360
    1STR   O03956780  15.232  29.849   3.504
    1STR   C04056781  15.159  29.809   3.620
    1STR   H04156782  15.058  29.850   3.616
    1STR   C04256783  15.154  29.656   3.628
    1STR   H04356784  15.254  29.613   3.627
    1STR   H04456785  15.097  29.612   3.546
    1STR   H04556786  15.105  29.624   3.720
    1STR   C04656787  15.229  29.870   3.743
    1STR   H04756788  15.331  29.830   3.750
    1STR   H04856789  15.238  29.977   3.729
    1STR   O04956790  15.154  29.840   3.860
    1STR   C05056791  15.212  29.887   3.982
    1STR   H05156792  15.319  29.868   3.983
    1STR   C05256793  15.184  30.037   3.998
    1STR   H05356794  15.078  30.059   3.992
    1STR   H05456795  15.235  30.096   3.922
    1STR   H05556796  15.220  30.073   4.095
    1STR   C05656797  15.148  29.806   4.097
    1STR   H05756798  15.041  29.824   4.100
    1STR   H05856799  15.163  29.700   4.078
    1STR   O05956800  15.209  29.844   4.221
    1STR   C06056801  15.156  29.779   4.336
    1STR   H06156802  15.047  29.775   4.331
    1STR   C06256803  15.213  29.637   4.347
    1STR   H06356804  15.322  29.638   4.347
    1STR   H06456805  15.180  29.573   4.265
    1STR   H06556806  15.180  29.589   4.439
    1STR   C06656807  15.195  29.864   4.458
    1STR   H06756808  15.304  29.868   4.468
    1STR   H06856809  15.160  29.966   4.443
    1STR   O06956810  15.137  29.808   4.576
    1STR   C07056811  15.169  29.875   4.697
    1STR   H07156812  15.275  29.901   4.700
    1STR   C07256813  15.083  30.002   4.711
    1STR   H07356814  14.977  29.980   4.704
    1STR   H07456815  15.107  30.076   4.634
    1STR   H07556816  15.100  30.050   4.807
    1STR   C07656817  15.141  29.777   4.813
    1STR   H07756818  15.035  29.751   4.814
    1STR   H07856819  15.197  29.685   4.795
    1STR   O07956820  15.180  29.837   4.936
    1STR   C08056821  15.156  29.757   5.052
    1STR   H08156822  15.057  29.711   5.046
    1STR   C08256823  15.265  29.650   5.065
    1STR   H08356824  15.364  29.694   5.066
    1STR   H08456825  15.261  29.577   4.984
    1STR   H08556826  15.252  29.594   5.158
    1STR   C08656827  15.156  29.852   5.173
    1STR   H08756828  15.254  29.900   5.183
    1STR   H08856829  15.083  29.932   5.156
    1STR   O08956830  15.123  29.779   5.291
    1STR   C09056831  15.124  29.854   5.411
    1STR   H09156832  15.211  29.920   5.414
    1STR   C09256833  14.995  29.937   5.422
    1STR   H09356834  14.906  29.873   5.415
    1STR   H09456835  14.988  30.013   5.344
    1STR   H09556836  14.990  29.989   5.518
    1STR   C09656837  15.136  29.755   5.528
    1STR   H09756838  15.050  29.688   5.529
    1STR   H09856839  15.224  29.693   5.512
    1STR   O09956840  15.147  29.826   5.651
    1STR   C10056841  15.155  29.745   5.767
    1STR   H10156842  15.084  29.663   5.762
    1STR   C10256843  15.298  29.690   5.783
    1STR   H10356844  15.371  29.771   5.784
    1STR   H10456845  15.324  29.622   5.702
    1STR   H10556846  15.308  29.635   5.876
    1STR   C10656847  15.116  29.833   5.887
    1STR   H10756848  15.186  29.916   5.897
    1STR   H10856849  15.018  29.877   5.868
    1STR   O10956850  15.114  29.754   6.006
    1STR   C11056851  15.082  29.825   6.125
    1STR   H11156852  15.136  29.920   6.128
    1STR   C11256853  14.931  29.849   6.134
    1STR   H11356854  14.876  29.755   6.127
    1STR   H11456855  14.895  29.915   6.055
    1STR   H11556856  14.904  29.896   6.229
    1STR   C11656857  15.132  29.740   6.243
    1STR   H11756858  15.080  29.644   6.245
    1STR   H11856859  15.238  29.718   6.229
    1STR   O11956860  15.112  29.811   6.365
    1STR   C12056861  15.150  29.741   6.483
    1STR   H12156862  15.117  29.637   6.478
    1STR   C12256863  15.303  29.748   6.500
    1STR   H12356864  15.338  29.851   6.501
    1STR   H12456865  15.355  29.695   6.421
    1STR   H12556866  15.333  29.702   6.595
    1STR   C12656867  15.077  29.808   6.601
    1STR   H12756868  15.109  29.912   6.611
    1STR   H12856869  14.970  29.808   6.581
    1STR   O12956870  15.105  29.735   6.721
    1STR   C13056871  15.047  29.789   6.839
    1STR   H13156872  15.057  29.898   6.840
    1STR   C13256873  14.898  29.751   6.846
    1STR   H13356874  14.885  29.643   6.839
    1STR   H13456875  14.840  29.796   6.766
    1STR   H13556876  14.854  29.784   6.940
    1STR   C13656877  15.125  29.732   6.958
    1STR   H13756878  15.115  29.623   6.961
    1STR   H13856879  15.231  29.754   6.945
    1STR   O13956880  15.076  29.790   7.079
    1STR   C14056881  15.138  29.743   7.198
    1STR   H14156882  15.149  29.634   7.194
    1STR   C14256883  15.275  29.810   7.217
    1STR   H14356884  15.266  29.918   7.216
    1STR   H14456885  15.345  29.781   7.139
    1STR   H14556886  15.319  29.781   7.312
    1STR   C14656887  15.043  29.776   7.315
    1STR   H14756888  15.030  29.884   7.323
    1STR   H14856889  14.945  29.733   7.294
    1STR   O14956890  15.096  29.721   7.436
    1STR   C15056891  15.019  29.748   7.553
    1STR   H15156892  14.986  29.852   7.553
    1STR   C15256893  14.898  29.654   7.559
    1STR   H15356894  14.929  29.550   7.554
    1STR   H15456895  14.828  29.672   7.478
    1STR   H15556896  14.843  29.668   7.652
    1STR   C15656897  15.112  29.729   7.674
    1STR   H15756898  15.146  29.625   7.678
    1STR   H15856899  15.200  29.791   7.661
    1STR   O15956900  15.043  29.764   7.793
    1STR   C16056901  15.117  29.746   7.913
    1STR   H16156902  15.171  29.651   7.911
    1STR   C16256903  15.215  29.863   7.932
    1STR   H16356904  15.163  29.959   7.930
    1STR   H16456905  15.292  29.864   7.855
    1STR   H16556906  15.266  29.855   8.028
    1STR   C16656907  15.015  29.739   8.029
    1STR   H16756908  14.960  29.833   8.035
    1STR   H16856909  14.942  29.661   8.007
    1STR   O16956910  15.083  29.712   8.151
    1STR   C17056911  15.001  29.708   8.266
    1STR   H17156912  14.929  29.789   8.265
    1STR   C17256913  14.928  29.573   8.273
    1STR   H17356914  14.998  29.489   8.270
    1STR   H17456915  14.857  29.560   8.191
    1STR   H17556916  14.871  29.564   8.366
    1STR   C17656917  15.092  29.728   8.388
    1STR   H17756918  15.165  29.647   8.394
    1STR   H17856919  15.148  29.820   8.376
    1STR   O17956920  15.013  29.733   8.507
    1STR   C18056921  15.086  29.748   8.628
    1STR   H18156922  15.174  29.683   8.627
    1STR   C18256923  15.130  29.894   8.646
    1STR   H18356924  15.044  29.961   8.642
    1STR   H18456925  15.201  29.926   8.569
    1STR   H18556926  15.178  29.909   8.742
    1STR   C18656927  14.994  29.703   8.742
    1STR   H18756928  14.906  29.767   8.747
    1STR   H18856929  14.959  29.601   8.722
    1STR   O18956930  15.066  29.706   8.865
    1STR   C19056931  14.991  29.670   8.981
    1STR   H19156932  14.892  29.717   8.977
    1STR   C19256933  14.977  29.517   8.989
    1STR   H19356934  15.075  29.469   8.988
    1STR   H19456935  14.919  29.477   8.907
    1STR   H19556936  14.927  29.488   9.081
    1STR   C19656937  15.065  29.727   9.103
    1STR   H19756938  15.164  29.681   9.111
    1STR   H19856939  15.080  29.834   9.090
    1STR   O19956940  14.989  29.701   9.221
    1STR   C20056941  15.048  29.745   9.342
    1STR   H20156942  15.155  29.720   9.343
    1STR   C20256943  15.029  29.897   9.358
    1STR   H20356944  14.924  29.924   9.353
    1STR   H20456945  15.082  29.953   9.282
    1STR   H20556946  15.067  29.930   9.455
    1STR   C20656947  14.981  29.668   9.457
    1STR   H20756948  14.874  29.691   9.460
    1STR   H20856949  14.989  29.561   9.437
    1STR   O20956950  15.044  29.701   9.580
    1STR   C21056951  14.987  29.639   9.695
    1STR   H21156952  14.878  29.642   9.690
    1STR   C21256953  15.036  29.494   9.705
    1STR   H21356954  15.145  29.489   9.706
    1STR   H21456955  15.000  29.432   9.623
    1STR   H21556956  15.001  29.448   9.798
    1STR   C21656957  15.031  29.722   9.817
    1STR   H21756958  15.140  29.720   9.827
    1STR   H21856959  15.002  29.826   9.802
    1STR   O21956960  14.970  29.669   9.935
    1STR   C22056961  15.005  29.734  10.056
    1STR   H22156962  15.113  29.754  10.058
    1STR   C22256963  14.927  29.866  10.070
    1STR   H22356964  14.819  29.848  10.063
    1STR   H22456965  14.954  29.938   9.993
    1STR   H22556966  14.947  29.913  10.166
    1STR   C22656967  14.973  29.638  10.171
    1STR   H22756968  14.866  29.617  10.173
    1STR   H22856969  15.024  29.543  10.153
    1STR   O22956970  15.015  29.695  10.294
    1STR   C23056971  14.987  29.617  10.410
    1STR   H23156972  14.886  29.575  10.404
    1STR   C23256973  15.090  29.503  10.423
    1STR   H23356974  15.192  29.542  10.424
    1STR   H23456975  15.083  29.431  10.341
    1STR   H23556976  15.075  29.448  10.516
    1STR   C23656977  14.993  29.711  10.531
    1STR   H23756978  15.093  29.753  10.541
    1STR   H23856979  14.924  29.795  10.514
    1STR   O23956980  14.956  29.640  10.649
    1STR   C24056981  14.961  29.715  10.769
    1STR   H24156982  15.051  29.776  10.772
    1STR   C24256983  14.836  29.804  10.780
    1STR   H24356984  14.745  29.745  10.773
    1STR   H24456985  14.833  29.881  10.703
    1STR   H24556986  14.834  29.856  10.876
    1STR   C24656987  14.968  29.614  10.885
    1STR   H24756988  14.878  29.552  10.887
    1STR   H24856989  15.053  29.548  10.869
    1STR   O24956990  14.983  29.685  11.008
    1STR   C25056991  14.987  29.603  11.125
    1STR   H25156992  14.911  29.525  11.119
    1STR   C25256993  15.126  29.540  11.140
    1STR   H25356994  15.204  29.617  11.142
    1STR   H25456995  15.149  29.471  11.059
    1STR   H25556996  15.133  29.484  11.233
    1STR   C25656997  14.952  29.693  11.244
    1STR   H25756998  15.028  29.772  11.255
    1STR   H25856999  14.857  29.743  11.226
    1STR   O25957000  14.945  29.614  11.362
    1STR   C26057001  14.919  29.687  11.482
    1STR   H26157002  14.977  29.779  11.485
    1STR   C26257003  14.769  29.719  11.491
    1STR   H26357004  14.708  29.629  11.484
    1STR   H26457005  14.737  29.787  11.412
    1STR   H26557006  14.745  29.767  11.586
    1STR   C26657007  14.964  29.598  11.599
    1STR   H26757008  14.906  29.506  11.601
    1STR   H26857009  15.068  29.571  11.585
    1STR   O26957010  14.948  29.670  11.721
    1STR   C27057011  14.982  29.598  11.839
    1STR   H27157012  14.944  29.496  11.833
    1STR   C27257013  15.135  29.596  11.856
    1STR   H27357014  15.176  29.697  11.858
    1STR   H27457015  15.185  29.541  11.777
    1STR   H27557016  15.162  29.548  11.951
    1STR   C27657017  14.913  29.668  11.956
    1STR   H27757018  14.950  29.770  11.966
    1STR   H27857019  14.806  29.675  11.936
    1STR   O27957020  14.937  29.594  12.075
    1STR   C28057021  14.882  29.650  12.194
    1STR   H28157022  14.899  29.758  12.196
    1STR   C28257023  14.732  29.620  12.202
    1STR   H28357024  14.713  29.513  12.196
    1STR   H28457025  14.676  29.669  12.123
    1STR   H28557026  14.691  29.656  12.297
    1STR   C28657027  14.959  29.589  12.312
    1STR   H28757028  14.943  29.481  12.315
    1STR   H28857029  15.066  29.605  12.298
    1STR   O28957030  14.914  29.650  12.433
    1STR   C29057031  14.972  29.598  12.551
    1STR   H29157032  14.978  29.489  12.547
    1STR   C29257033  15.113  29.658  12.572
    1STR   H29357034  15.109  29.767  12.573
    1STR   H29457035  15.182  29.627  12.493
    1STR   H29557036  15.155  29.625  12.667
    1STR   C29657037  14.878  29.635  12.666
    1STR   H29757038  14.871  29.744  12.674
    1STR   H29857039  14.778  29.598  12.644
    1STR   O29957040  14.927  29.579  12.787
    1STR   C30057041  14.850  29.612  12.902
    1STR   H30157042  14.820  29.717  12.898
    1STR   C30257043  14.726  29.522  12.911
    1STR   H30357044  14.754  29.417  12.910
    1STR   H30457045  14.657  29.539  12.829
    1STR   H30557046  14.671  29.541  13.003
    1STR   C30657047  14.941  29.595  13.024
    1STR   H30757048  14.967  29.490  13.037
    1STR   H30857049  15.034  29.649  13.007
    1STR   O30957050  14.873  29.646  13.138
    1STR    H1R57051  14.981  29.529  13.268
    1STR    H1S57052  15.106  29.723  13.370
    1STR    H1T57053  15.016  29.835  13.269
    1STR    H1U57054  15.131  29.721  13.197
    1STR    H1V57055  14.749  29.586  13.349
    1STR    H1W57056  14.799  29.751  13.376
    1STR    H1X57057  14.993  29.520  13.655
    1STR    H1Y57058  15.135  29.449  13.815
    1STR    H1Z57059  15.240  29.483  14.032
    1STR    H2057060  15.334  29.738  14.190
    1STR    H2157061  15.167  29.750  14.256
    1STR    H2257062  15.244  29.594  14.235
    1STR    H2357063  14.990  29.956  14.034
    1STR    H2757064  14.998  29.857  13.815
    1STR    H2857065  15.304  29.693   1.370
    1STR    H2957066  15.303  29.633   1.137
    1STR    H2A57067  15.118  29.803   0.876
    1STR    H2B57068  15.216  29.662   0.917
    1STR    H2C57069  15.294  29.812   0.867
    1STR   BCK157070  15.100  30.152  15.923
    1STR    O0357071  15.013  30.218  15.867
    1STR    N0457072  15.136  30.166  16.051
    1STR    C0557073  15.104  30.269  16.141
    1STR    C0657074  15.075  30.237  16.277
    1STR    C0757075  15.051  30.338  16.375
    1STR    N0857076  15.030  30.303  16.510
    1STR    C0957077  15.032  30.381  16.620
    1STR    O0A57078  15.054  30.502  16.619
    1STR    O0B57079  15.008  30.311  16.734
    1STR    C0C57080  14.994  30.381  16.859
    1STR    C0D57081  14.849  30.429  16.872
    1STR    C0E57082  15.037  30.295  16.979
    1STR    O0F57083  15.026  30.373  17.099
    1STR    C0G57084  15.067  30.309  17.220
    1STR    C0H57085  15.221  30.310  17.229
    1STR    C0I57086  15.006  30.386  17.340
    1STR    O0J57087  15.039  30.320  17.462
    1STR    C0K57088  15.424  30.372  28.305
    1STR    C0M57089  15.272  30.354  28.322
    1STR    C0N57090  15.504  30.306  28.419
    1STR    O0O57091  15.483  30.374  28.542
    1STR    C0P57092  15.398  30.324  28.632
    1STR    O0Q57093  15.331  30.222  28.617
    1STR    N0R57094  15.396  30.403  28.740
    1STR    C0S57095  15.324  30.392  28.859
    1STR    C0T57096  15.324  30.502  28.947
    1STR    C0U57097  15.252  30.498  29.068
    1STR    C0V57098  15.178  30.384  29.104
    1STR    C0W57099  15.095  30.385  29.231
    1STR    C0X57100  15.180  30.271  29.018
    1STR    N0Y57101  15.106  30.156  29.046
    1STR   BCK257102  15.126  30.064  29.140
    1STR    O1057103  15.055  29.965  29.145
    1STR    C1357104  15.252  30.276  28.897
    1STR    C1457105  15.050  30.472  16.331
    1STR    C1557106  15.081  30.505  16.198
    1STR    C1657107  15.112  30.406  16.104
    1STR    C1757108  15.160  30.452  15.967
    1STR    H1B57109  15.199  30.095  16.083
    1STR    H1C57110  15.074  30.133  16.307
    1STR    H1D57111  15.014  30.206  16.532
    1STR    H1E57112  15.060  30.469  16.859
    1STR    H1F57113  14.779  30.345  16.875
    1STR    H1G57114  14.835  30.486  16.964
    1STR    H1H57115  14.821  30.494  16.789
    1STR    H1I57116  15.140  30.262  16.964
    1STR    H1J57117  14.975  30.205  16.986
    1STR    H1K57118  15.030  30.207  17.223
    1STR    H1M57119  15.260  30.412  17.222
    1STR    H1N57120  15.267  30.251  17.150
    1STR    H1O57121  15.254  30.269  17.324
    1STR    H1P57122  15.042  30.489  17.341
    1STR    H1Q57123  14.897  30.390  17.327
    1STR   C01057124  14.993  30.382  17.582
    1STR   H01157125  15.012  30.490  17.578
    1STR   C01257126  14.843  30.357  17.601
    1STR   H01357127  14.821  30.250  17.601
    1STR   H01457128  14.783  30.404  17.523
    1STR   H01557129  14.808  30.397  17.696
    1STR   C01657130  15.074  30.325  17.701
    1STR   H01757131  15.058  30.217  17.707
    1STR   H01857132  15.180  30.340  17.681
    1STR   O01957133  15.036  30.388  17.823
    1STR   C02057134  15.102  30.340  17.940
    1STR   H02157135  15.106  30.230  17.938
    1STR   C02257136  15.245  30.397  17.948
    1STR   H02357137  15.243  30.506  17.945
    1STR   H02457138  15.308  30.362  17.866
    1STR   H02557139  15.293  30.367  18.041
    1STR   C02657140  15.019  30.381  18.063
    1STR   H02757141  15.013  30.490  18.070
    1STR   H02857142  14.917  30.344  18.052
    1STR   O02957143  15.078  30.327  18.182
    1STR   C03057144  15.013  30.362  18.304
    1STR   H03157145  14.987  30.468  18.304
    1STR   C03257146  14.886  30.277  18.322
    1STR   H03357147  14.910  30.170  18.318
    1STR   H03457148  14.811  30.297  18.246
    1STR   H03557149  14.840  30.296  18.419
    1STR   C03657150  15.112  30.339  18.420
    1STR   H03757151  15.140  30.233  18.424
    1STR   H03857152  15.204  30.395  18.400
    1STR   O03957153  15.054  30.380  18.543
    1STR   C04057154  15.135  30.360  18.659
    1STR   H04157155  15.182  30.261  18.655
    1STR   C04257156  15.243  30.469  18.668
    1STR   H04357157  15.198  30.569  18.667
    1STR   H04457158  15.314  30.464  18.585
    1STR   H04557159  15.300  30.460  18.760
    1STR   C04657160  15.042  30.363  18.782
    1STR   H04757161  14.994  30.461  18.790
    1STR   H04857162  14.963  30.289  18.769
    1STR   O04957163  15.118  30.335  18.900
    1STR   C05057164  15.044  30.338  19.022
    1STR   H05157165  14.978  30.425  19.023
    1STR   C05257166  14.962  30.209  19.038
    1STR   H05357167  15.026  30.121  19.032
    1STR   H05457168  14.885  30.200  18.961
    1STR   H05557169  14.912  30.207  19.134
    1STR   C05657170  15.145  30.355  19.137
    1STR   H05757171  15.212  30.269  19.140
    1STR   H05857172  15.206  30.443  19.118
    1STR   O05957173  15.075  30.368  19.260
    1STR   C06057174  15.158  30.380  19.376
    1STR   H06157175  15.240  30.309  19.371
    1STR   C06257176  15.212  30.524  19.387
    1STR   H06357177  15.131  30.597  19.387
    1STR   H06457178  15.279  30.549  19.305
    1STR   H06557179  15.269  30.537  19.479
    1STR   C06657180  15.072  30.344  19.498
    1STR   H06757181  14.989  30.414  19.508
    1STR   H06857182  15.029  30.245  19.483
    1STR   O06957183  15.153  30.346  19.616
    1STR   C07057184  15.084  30.318  19.737
    1STR   H07157185  14.988  30.370  19.740
    1STR   C07257186  15.061  30.166  19.750
    1STR   H07357187  15.155  30.111  19.744
    1STR   H07457188  14.994  30.128  19.674
    1STR   H07557189  15.016  30.142  19.847
    1STR   C07657190  15.170  30.371  19.853
    1STR   H07757191  15.266  30.320  19.854
    1STR   H07857192  15.191  30.477  19.835
    1STR   O07957193  15.101  30.354  19.976
    1STR   C08057194  15.172  30.396  20.092
    1STR   H08157195  15.276  30.364  20.086
    1STR   C08257196  15.165  30.549  20.105
    1STR   H08357197  15.061  30.583  20.106
    1STR   H08457198  15.216  30.600  20.024
    1STR   H08557199  15.212  30.582  20.198
    1STR   C08657200  15.108  30.326  20.213
    1STR   H08757201  15.004  30.357  20.223
    1STR   H08857202  15.108  30.219  20.196
    1STR   O08957203  15.182  30.358  20.331
    1STR   C09057204  15.130  30.303  20.451
    1STR   H09157205  15.022  30.313  20.454
    1STR   C09257206  15.170  30.155  20.462
    1STR   H09357207  15.278  30.142  20.455
    1STR   H09457208  15.123  30.094  20.385
    1STR   H09557209  15.138  30.113  20.558
    1STR   C09657210  15.188  30.385  20.568
    1STR   H09757211  15.297  30.376  20.569
    1STR   H09857212  15.165  30.490  20.552
    1STR   O09957213  15.132  30.339  20.691
    1STR   C10057214  15.181  30.405  20.807
    1STR   H10157215  15.290  30.417  20.802
    1STR   C10257216  15.113  30.542  20.823
    1STR   H10357217  15.005  30.532  20.824
    1STR   H10457218  15.140  30.610  20.742
    1STR   H10557219  15.143  30.589  20.916
    1STR   C10657220  15.150  30.313  20.927
    1STR   H10757221  15.043  30.300  20.937
    1STR   H10857222  15.193  30.215  20.908
    1STR   O10957223  15.206  30.370  21.046
    1STR   C11057224  15.181  30.296  21.165
    1STR   H11157225  15.077  30.262  21.168
    1STR   C11257226  15.277  30.176  21.174
    1STR   H11357227  15.381  30.208  21.166
    1STR   H11457228  15.258  30.104  21.095
    1STR   H11557229  15.265  30.124  21.269
    1STR   C11657230  15.202  30.393  21.283
    1STR   H11757231  15.305  30.428  21.285
    1STR   H11857232  15.138  30.480  21.269
    1STR   O11957233  15.169  30.327  21.405
    1STR   C12057234  15.188  30.404  21.523
    1STR   H12157235  15.282  30.459  21.518
    1STR   C12257236  15.071  30.502  21.540
    1STR   H12357237  14.975  30.450  21.541
    1STR   H12457238  15.068  30.577  21.461
    1STR   H12557239  15.080  30.556  21.635
    1STR   C12657240  15.197  30.306  21.641
    1STR   H12757241  15.103  30.251  21.651
    1STR   H12857242  15.275  30.233  21.621
    1STR   O12957243  15.225  30.378  21.761
    1STR   C13057244  15.232  30.299  21.879
    1STR   H13157245  15.150  30.226  21.880
    1STR   C13257246  15.367  30.227  21.886
    1STR   H13357247  15.450  30.298  21.879
    1STR   H13457248  15.379  30.154  21.806
    1STR   H13557249  15.377  30.173  21.980
    1STR   C13657250  15.213  30.394  21.998
    1STR   H13757251  15.294  30.467  22.001
    1STR   H13857252  15.120  30.449  21.985
    1STR   O13957253  15.209  30.318  22.119
    1STR   C14057254  15.196  30.395  22.238
    1STR   H14157255  15.261  30.483  22.234
    1STR   C14257256  15.050  30.438  22.257
    1STR   H14357257  14.983  30.351  22.256
    1STR   H14457258  15.017  30.506  22.179
    1STR   H14557259  15.036  30.489  22.352
    1STR   C14657260  15.244  30.306  22.355
    1STR   H14757261  15.180  30.218  22.363
    1STR   H14857262  15.345  30.271  22.334
    1STR   O14957263  15.241  30.382  22.476
    1STR   C15057264  15.279  30.310  22.593
    1STR   H15157265  15.234  30.211  22.593
    1STR   C15257266  15.433  30.298  22.599
    1STR   H15357267  15.480  30.396  22.594
    1STR   H15457268  15.472  30.238  22.518
    1STR   H15557269  15.464  30.251  22.692
    1STR   C15657270  15.224  30.388  22.713
    1STR   H15757271  15.269  30.487  22.718
    1STR   H15857272  15.117  30.401  22.701
    1STR   O15957273  15.252  30.315  22.833
    1STR   C16057274  15.209  30.378  22.953
    1STR   H16157275  15.233  30.484  22.951
    1STR   C16257276  15.058  30.358  22.972
    1STR   H16357277  15.031  30.253  22.970
    1STR   H16457278  15.000  30.409  22.895
    1STR   H16557279  15.025  30.399  23.068
    1STR   C16657280  15.289  30.314  23.069
    1STR   H16757281  15.266  30.208  23.075
    1STR   H16857282  15.395  30.323  23.047
    1STR   O16957283  15.256  30.381  23.191
    1STR   C17057284  15.320  30.328  23.307
    1STR   H17157285  15.318  30.219  23.305
    1STR   C17257286  15.466  30.378  23.313
    1STR   H17357287  15.470  30.487  23.310
    1STR   H17457288  15.526  30.339  23.231
    1STR   H17557289  15.513  30.346  23.406
    1STR   C17657290  15.239  30.375  23.428
    1STR   H17757291  15.241  30.484  23.434
    1STR   H17857292  15.135  30.345  23.416
    1STR   O17957293  15.294  30.317  23.547
    1STR   C18057294  15.230  30.356  23.668
    1STR   H18157295  15.210  30.463  23.667
    1STR   C18257296  15.099  30.278  23.686
    1STR   H18357297  15.117  30.170  23.682
    1STR   H18457298  15.026  30.303  23.609
    1STR   H18557299  15.053  30.300  23.782
    1STR   C18657300  15.329  30.327  23.783
    1STR   H18757301  15.350  30.220  23.787
    1STR   H18857302  15.423  30.378  23.762
    1STR   O18957303  15.273  30.373  23.905
    1STR   C19057304  15.353  30.349  24.021
    1STR   H19157305  15.395  30.248  24.017
    1STR   C19257306  15.466  30.453  24.029
    1STR   H19357307  15.427  30.554  24.028
    1STR   H19457308  15.537  30.443  23.946
    1STR   H19557309  15.523  30.440  24.121
    1STR   C19657310  15.260  30.358  24.143
    1STR   H19757311  15.218  30.458  24.151
    1STR   H19857312  15.177  30.289  24.130
    1STR   O19957313  15.334  30.325  24.261
    1STR   C20057314  15.260  30.333  24.382
    1STR   H20157315  15.199  30.423  24.383
    1STR   C20257316  15.172  30.208  24.398
    1STR   H20357317  15.231  30.117  24.393
    1STR   H20457318  15.095  30.202  24.322
    1STR   H20557319  15.121  30.208  24.495
    1STR   C20657320  15.362  30.344  24.497
    1STR   H20757321  15.425  30.255  24.500
    1STR   H20857322  15.428  30.429  24.477
    1STR   O20957323  15.293  30.362  24.620
    1STR   C21057324  15.377  30.370  24.735
    1STR   H21157325  15.455  30.294  24.731
    1STR   C21257326  15.439  30.510  24.746
    1STR   H21357327  15.362  30.587  24.746
    1STR   H21457328  15.507  30.531  24.663
    1STR   H21557329  15.496  30.520  24.838
    1STR   C21657330  15.289  30.338  24.858
    1STR   H21757331  15.210  30.413  24.867
    1STR   H21857332  15.240  30.242  24.842
    1STR   O21957333  15.370  30.336  24.975
    1STR   C22057334  15.299  30.311  25.096
    1STR   H22157335  15.207  30.369  25.099
    1STR   C22257336  15.268  30.162  25.110
    1STR   H22357337  15.359  30.102  25.103
    1STR   H22457338  15.199  30.127  25.033
    1STR   H22557339  15.222  30.140  25.206
    1STR   C22657340  15.388  30.361  25.211
    1STR   H22757341  15.482  30.304  25.213
    1STR   H22857342  15.415  30.465  25.193
    1STR   O22957343  15.318  30.347  25.335
    1STR   C23057344  15.392  30.386  25.450
    1STR   H23157345  15.494  30.348  25.444
    1STR   C23257346  15.393  30.539  25.463
    1STR   H23357347  15.291  30.579  25.464
    1STR   H23457348  15.447  30.587  25.382
    1STR   H23557349  15.441  30.570  25.556
    1STR   C23657350  15.324  30.320  25.571
    1STR   H23757351  15.222  30.357  25.582
    1STR   H23857352  15.318  30.212  25.555
    1STR   O23957353  15.400  30.348  25.689
    1STR   C24057354  15.345  30.296  25.810
    1STR   H24157355  15.237  30.312  25.813
    1STR   C24257356  15.377  30.146  25.821
    1STR   H24357357  15.484  30.127  25.813
    1STR   H24457358  15.327  30.087  25.743
    1STR   H24557359  15.343  30.106  25.917
    1STR   C24657360  15.408  30.375  25.926
    1STR   H24757361  15.516  30.360  25.927
    1STR   H24857362  15.390  30.481  25.910
    1STR   O24957363  15.349  30.333  26.049
    1STR   C25057364  15.401  30.396  26.165
    1STR   H25157365  15.510  30.402  26.159
    1STR   C25257366  15.341  30.536  26.180
    1STR   H25357367  15.232  30.532  26.182
    1STR   H25457368  15.372  30.603  26.100
    1STR   H25557369  15.374  30.582  26.274
    1STR   C25657370  15.366  30.306  26.285
    1STR   H25757371  15.257  30.299  26.295
    1STR   H25857372  15.403  30.205  26.266
    1STR   O25957373  15.424  30.360  26.403
    1STR   C26057374  15.395  30.288  26.523
    1STR   H26157375  15.290  30.260  26.525
    1STR   C26257376  15.484  30.163  26.532
    1STR   H26357377  15.590  30.189  26.524
    1STR   H26457378  15.462  30.091  26.453
    1STR   H26557379  15.469  30.112  26.627
    1STR   C26657380  15.422  30.384  26.640
    1STR   H26757381  15.527  30.413  26.642
    1STR   H26857382  15.363  30.475  26.626
    1STR   O26957383  15.385  30.320  26.762
    1STR   C27057384  15.408  30.396  26.880
    1STR   H27157385  15.505  30.446  26.874
    1STR   C27257386  15.297  30.501  26.897
    1STR   H27357387  15.198  30.454  26.898
    1STR   H27457388  15.297  30.575  26.818
    1STR   H27557389  15.309  30.555  26.991
    1STR   C27657390  15.412  30.298  26.998
    1STR   H27757391  15.315  30.248  27.007
    1STR   H27857392  15.486  30.221  26.977
    1STR   O27957393  15.444  30.369  27.117
    1STR   C28057394  15.447  30.290  27.235
    1STR   H28157395  15.361  30.222  27.237
    1STR   C28257396  15.578  30.210  27.243
    1STR   H28357397  15.664  30.277  27.236
    1STR   H28457398  15.586  30.137  27.163
    1STR   H28557399  15.585  30.156  27.337
    1STR   C28657400  15.432  30.386  27.354
    1STR   H28757401  15.517  30.455  27.356
    1STR   H28857402  15.342  30.446  27.340
    1STR   O28957403  15.425  30.311  27.474
    1STR   C29057404  15.416  30.389  27.593
    1STR   H29157405  15.486  30.473  27.588
    1STR   C29257406  15.273  30.440  27.612
    1STR   H29357407  15.201  30.357  27.613
    1STR   H29457408  15.243  30.509  27.534
    1STR   H29557409  15.263  30.493  27.707
    1STR   C29657410  15.460  30.298  27.709
    1STR   H29757411  15.391  30.214  27.719
    1STR   H29857412  15.558  30.257  27.688
    1STR   O29957413  15.462  30.375  27.829
    1STR   C30057414  15.496  30.301  27.946
    1STR   H30157415  15.445  30.205  27.947
    1STR   C30257416  15.648  30.281  27.954
    1STR   H30357417  15.700  30.376  27.950
    1STR   H30457418  15.685  30.219  27.873
    1STR   H30557419  15.675  30.232  28.048
    1STR   C30657420  15.443  30.382  28.066
    1STR   H30757421  15.493  30.480  28.070
    1STR   H30857422  15.337  30.401  28.052
    1STR   O30957423  15.466  30.309  28.185
    1STR    H1R57424  15.449  30.478  28.303
    1STR    H1S57425  15.237  30.399  28.415
    1STR    H1T57426  15.245  30.249  28.325
    1STR    H1U57427  15.215  30.401  28.242
    1STR    H1V57428  15.610  30.312  28.396
    1STR    H1W57429  15.480  30.200  28.426
    1STR    H1X57430  15.457  30.482  28.728
    1STR    H1Y57431  15.379  30.592  28.923
    1STR    H1Z57432  15.252  30.584  29.133
    1STR    H2057433  15.004  30.327  29.219
    1STR    H2157434  15.152  30.342  29.313
    1STR    H2257435  15.067  30.487  29.259
    1STR    H2357436  15.035  30.129  28.980
    1STR    H2757437  15.251  30.189  28.834
    1STR    H2857438  15.028  30.554  16.397
    1STR    H2957439  15.084  30.609  16.170
    1STR    H2A57440  15.235  30.384  15.926
    1STR    H2B57441  15.206  30.550  15.973
    1STR    H2C57442  15.076  30.459  15.898
    1STR   BCK157443  15.067  30.049  30.977
    1STR    O0357444  15.087  29.935  30.934
    1STR    N0457445  15.003  30.077  31.091
    1STR    C0557446  14.933  29.990  31.177
    1STR    C0657447  14.960  29.991  31.316
    1STR    C0757448  14.886  29.911  31.408
    1STR    N0857449  14.914  29.917  31.547
    1STR    C0957450  14.854  29.857  31.651
    1STR    O0A57451  14.759  29.781  31.643
    1STR    O0B57452  14.912  29.891  31.770
    1STR    C0C57453  14.869  29.828  31.892
    1STR    C0D57454  14.942  29.693  31.907
    1STR    C0E57455  14.894  29.919  32.015
    1STR    O0F57456  14.850  29.853  32.134
    1STR    C0G57457  14.863  29.927  32.256
    1STR    C0H57458  14.750  30.031  32.265
    1STR    C0I57459  14.857  29.830  32.376
    1STR    O0J57460  14.878  29.902  32.499
    1STR    C0K57461  14.573  30.127  43.353
    1STR    C0M57462  14.692  30.030  43.364
    1STR    C0N57463  14.573  30.230  43.467
    1STR    O0O57464  14.548  30.168  43.593
    1STR    C0P57465  14.648  30.145  43.679
    1STR    O0Q57466  14.766  30.171  43.660
    1STR    N0R57467  14.597  30.089  43.789
    1STR    C0S57468  14.658  30.043  43.906
    1STR    C0T57469  14.575  29.975  43.998
    1STR    C0U57470  14.627  29.921  44.116
    1STR    C0V57471  14.764  29.935  44.146
    1STR    C0W57472  14.817  29.865  44.270
    1STR    C0X57473  14.848  30.009  44.059
    1STR    N0Y57474  14.983  30.027  44.088
    1STR   BCK257475  15.034  30.080  44.200
    1STR    O1057476  14.968  30.134  44.288
    1STR    C1357477  14.795  30.060  43.938
    1STR    C1457478  14.785  29.828  31.355
    1STR    C1557479  14.756  29.828  31.217
    1STR    C1657480  14.827  29.910  31.128
    1STR    C1757481  14.783  29.913  30.983
    1STR    H1B57482  15.007  30.174  31.117
    1STR    H1C57483  15.039  30.054  31.353
    1STR    H1D57484  14.991  29.975  31.577
    1STR    H1E57485  14.762  29.809  31.887
    1STR    H1F57486  15.050  29.706  31.913
    1STR    H1G57487  14.909  29.641  31.997
    1STR    H1H57488  14.921  29.627  31.822
    1STR    H1I57489  14.841  30.012  32.000
    1STR    H1J57490  15.000  29.943  32.023
    1STR    H1K57491  14.960  29.977  32.258
    1STR    H1M57492  14.652  29.984  32.259
    1STR    H1N57493  14.756  30.106  32.187
    1STR    H1O57494  14.755  30.085  32.361
    1STR    H1P57495  14.761  29.779  32.378
    1STR    H1Q57496  14.934  29.754  32.364
    1STR   C01057497  14.869  29.825  32.619
    1STR   H01157498  14.783  29.758  32.615
    1STR   C01257499  14.998  29.742  32.638
    1STR   H01357500  15.086  29.806  32.637
    1STR   H01457501  15.010  29.667  32.560
    1STR   H01557502  14.996  29.689  32.733
    1STR   C01657503  14.849  29.922  32.738
    1STR   H01757504  14.933  29.991  32.744
    1STR   H01857505  14.760  29.982  32.719
    1STR   O01957506  14.835  29.850  32.861
    1STR   C02057507  14.819  29.931  32.978
    1STR   H02157508  14.890  30.014  32.976
    1STR   C02257509  14.676  29.985  32.986
    1STR   H02357510  14.603  29.903  32.983
    1STR   H02457511  14.653  30.053  32.904
    1STR   H02557512  14.660  30.040  33.079
    1STR   C02657513  14.852  29.844  33.102
    1STR   H02757514  14.783  29.760  33.108
    1STR   H02857515  14.952  29.802  33.090
    1STR   O02957516  14.845  29.923  33.220
    1STR   C03057517  14.869  29.854  33.343
    1STR   H03157518  14.817  29.758  33.342
    1STR   C03257519  15.020  29.831  33.361
    1STR   H03357520  15.075  29.926  33.357
    1STR   H03457521  15.062  29.766  33.285
    1STR   H03557522  15.041  29.785  33.458
    1STR   C03657523  14.812  29.938  33.458
    1STR   H03757524  14.862  30.035  33.463
    1STR   H03857525  14.706  29.958  33.439
    1STR   O03957526  14.827  29.868  33.582
    1STR   C04057527  14.781  29.938  33.698
    1STR   H04157528  14.813  30.042  33.694
    1STR   C04257529  14.628  29.930  33.707
    1STR   H04357530  14.594  29.826  33.706
    1STR   H04457531  14.579  29.982  33.625
    1STR   H04557532  14.592  29.975  33.799
    1STR   C04657533  14.847  29.873  33.821
    1STR   H04757534  14.817  29.768  33.829
    1STR   H04857535  14.955  29.874  33.808
    1STR   O04957536  14.811  29.945  33.939
    1STR   C05057537  14.862  29.892  34.061
    1STR   H05157538  14.853  29.783  34.062
    1STR   C05257539  15.010  29.932  34.077
    1STR   H05357540  15.022  30.040  34.072
    1STR   H05457541  15.073  29.887  34.001
    1STR   H05557542  15.048  29.900  34.174
    1STR   C05657543  14.777  29.948  34.176
    1STR   H05757544  14.785  30.057  34.179
    1STR   H05857545  14.672  29.924  34.157
    1STR   O05957546  14.819  29.891  34.300
    1STR   C06057547  14.750  29.938  34.416
    1STR   H06157548  14.737  30.046  34.410
    1STR   C06257549  14.613  29.869  34.426
    1STR   H06357550  14.624  29.761  34.427
    1STR   H06457551  14.547  29.896  34.344
    1STR   H06557552  14.563  29.898  34.519
    1STR   C06657553  14.838  29.907  34.538
    1STR   H06757554  14.852  29.799  34.547
    1STR   H06857555  14.937  29.951  34.523
    1STR   O06957556  14.777  29.960  34.655
    1STR   C07057557  14.847  29.934  34.777
    1STR   H07157558  14.882  29.831  34.779
    1STR   C07257559  14.966  30.030  34.790
    1STR   H07357560  14.934  30.134  34.783
    1STR   H07457561  15.042  30.013  34.714
    1STR   H07557562  15.016  30.017  34.887
    1STR   C07657563  14.747  29.953  34.892
    1STR   H07757564  14.711  30.056  34.894
    1STR   H07857565  14.661  29.889  34.875
    1STR   O07957566  14.810  29.919  35.016
    1STR   C08057567  14.729  29.936  35.132
    1STR   H08157568  14.674  30.030  35.126
    1STR   C08257569  14.631  29.819  35.145
    1STR   H08357570  14.684  29.723  35.146
    1STR   H08457571  14.559  29.816  35.064
    1STR   H08557572  14.574  29.826  35.238
    1STR   C08657573  14.823  29.944  35.253
    1STR   H08757574  14.879  29.851  35.263
    1STR   H08857575  14.896  30.024  35.236
    1STR   O08957576  14.747  29.971  35.371
    1STR   C09057577  14.823  29.977  35.491
    1STR   H09157578  14.896  29.896  35.494
    1STR   C09257579  14.894  30.113  35.502
    1STR   H09357580  14.823  30.195  35.495
    1STR   H09457581  14.969  30.126  35.425
    1STR   H09557582  14.945  30.122  35.598
    1STR   C09657583  14.725  29.956  35.608
    1STR   H09757584  14.651  30.036  35.609
    1STR   H09857585  14.671  29.862  35.592
    1STR   O09957586  14.797  29.951  35.731
    1STR   C10057587  14.717  29.936  35.848
    1STR   H10157588  14.629  30.000  35.842
    1STR   C10257589  14.674  29.789  35.863
    1STR   H10357590  14.761  29.723  35.864
    1STR   H10457591  14.609  29.756  35.783
    1STR   H10557592  14.620  29.774  35.956
    1STR   C10657593  14.801  29.983  35.967
    1STR   H10757594  14.890  29.920  35.977
    1STR   H10857595  14.836  30.084  35.949
    1STR   O10957596  14.722  29.978  36.086
    1STR   C11057597  14.790  30.016  36.205
    1STR   H11157598  14.889  29.971  36.208
    1STR   C11257599  14.800  30.169  36.214
    1STR   H11357600  14.702  30.216  36.207
    1STR   H11457601  14.863  30.210  36.135
    1STR   H11557602  14.845  30.199  36.309
    1STR   C11657603  14.709  29.959  36.323
    1STR   H11757604  14.609  30.002  36.325
    1STR   H11857605  14.697  29.851  36.309
    1STR   O11957606  14.778  29.985  36.445
    1STR   C12057607  14.712  29.941  36.563
    1STR   H12157608  14.606  29.964  36.558
    1STR   C12257609  14.732  29.789  36.580
    1STR   H12357610  14.838  29.763  36.581
    1STR   H12457611  14.684  29.732  36.501
    1STR   H12557612  14.689  29.755  36.675
    1STR   C12657613  14.772  30.019  36.681
    1STR   H12757614  14.878  29.997  36.691
    1STR   H12857615  14.763  30.126  36.661
    1STR   O12957616  14.702  29.985  36.801
    1STR   C13057617  14.751  30.048  36.919
    1STR   H13157618  14.860  30.046  36.920
    1STR   C13257619  14.700  30.193  36.926
    1STR   H13357620  14.591  30.196  36.919
    1STR   H13457621  14.740  30.254  36.846
    1STR   H13557622  14.729  30.239  37.020
    1STR   C13657623  14.701  29.965  37.038
    1STR   H13757624  14.592  29.966  37.041
    1STR   H13857625  14.732  29.862  37.025
    1STR   O13957626  14.754  30.019  37.159
    1STR   C14057627  14.712  29.953  37.278
    1STR   H14157628  14.605  29.932  37.274
    1STR   C14257629  14.791  29.823  37.297
    1STR   H14357630  14.899  29.841  37.296
    1STR   H14457631  14.769  29.750  37.219
    1STR   H14557632  14.766  29.776  37.392
    1STR   C14657633  14.737  30.051  37.395
    1STR   H14757634  14.843  30.073  37.403
    1STR   H14857635  14.686  30.145  37.374
    1STR   O14957636  14.688  29.993  37.516
    1STR   C15057637  14.708  30.072  37.633
    1STR   H15157638  14.809  30.114  37.633
    1STR   C15257639  14.603  30.184  37.639
    1STR   H15357640  14.502  30.144  37.634
    1STR   H15457641  14.615  30.256  37.558
    1STR   H15557642  14.612  30.240  37.732
    1STR   C15657643  14.696  29.978  37.754
    1STR   H15757644  14.596  29.934  37.758
    1STR   H15857645  14.766  29.895  37.741
    1STR   O15957646  14.725  30.050  37.873
    1STR   C16057647  14.714  29.975  37.993
    1STR   H16157648  14.624  29.913  37.991
    1STR   C16257649  14.839  29.887  38.012
    1STR   H16357650  14.930  29.947  38.010
    1STR   H16457651  14.847  29.810  37.935
    1STR   H16557652  14.835  29.835  38.108
    1STR   C16657653  14.699  30.075  38.109
    1STR   H16757654  14.787  30.138  38.115
    1STR   H16857655  14.614  30.141  38.087
    1STR   O16957656  14.678  30.005  38.231
    1STR   C17057657  14.666  30.086  38.347
    1STR   H17157658  14.741  30.166  38.345
    1STR   C17257659  14.525  30.147  38.353
    1STR   H17357660  14.448  30.070  38.350
    1STR   H17457661  14.506  30.216  38.271
    1STR   H17557662  14.511  30.203  38.446
    1STR   C17657663  14.694  29.997  38.469
    1STR   H17757664  14.619  29.917  38.474
    1STR   H17857665  14.791  29.949  38.456
    1STR   O17957666  14.692  30.077  38.587
    1STR   C18057667  14.713  30.005  38.708
    1STR   H18157668  14.656  29.912  38.707
    1STR   C18257669  14.863  29.974  38.726
    1STR   H18357670  14.922  30.066  38.722
    1STR   H18457671  14.901  29.907  38.649
    1STR   H18557672  14.882  29.927  38.822
    1STR   C18657673  14.660  30.093  38.823
    1STR   H18757674  14.717  30.186  38.827
    1STR   H18857675  14.556  30.119  38.802
    1STR   O18957676  14.670  30.021  38.945
    1STR   C19057677  14.628  30.093  39.061
    1STR   H19157678  14.665  30.196  39.057
    1STR   C19257679  14.474  30.093  39.069
    1STR   H19357680  14.435  29.992  39.068
    1STR   H19457681  14.429  30.148  38.986
    1STR   H19557682  14.440  30.141  39.161
    1STR   C19657683  14.690  30.024  39.183
    1STR   H19757684  14.654  29.922  39.191
    1STR   H19857685  14.798  30.019  39.170
    1STR   O19957686  14.658  30.098  39.301
    1STR   C20057687  14.707  30.043  39.422
    1STR   H20157688  14.692  29.935  39.423
    1STR   C20257689  14.856  30.075  39.438
    1STR   H20357690  14.874  30.182  39.433
    1STR   H20457691  14.917  30.027  39.362
    1STR   H20557692  14.893  30.040  39.535
    1STR   C20657693  14.624  30.103  39.537
    1STR   H20757694  14.639  30.211  39.540
    1STR   H20857695  14.518  30.085  39.517
    1STR   O20957696  14.663  30.043  39.660
    1STR   C21057697  14.596  30.094  39.775
    1STR   H21157698  14.590  30.203  39.771
    1STR   C21257699  14.456  30.033  39.786
    1STR   H21357700  14.460  29.924  39.786
    1STR   H21457701  14.391  30.063  39.703
    1STR   H21557702  14.407  30.064  39.878
    1STR   C21657703  14.682  30.057  39.898
    1STR   H21757704  14.690  29.949  39.907
    1STR   H21857705  14.783  30.096  39.883
    1STR   O21957706  14.624  30.114  40.015
    1STR   C22057707  14.693  30.084  40.136
    1STR   H22157708  14.722  29.979  40.139
    1STR   C22257709  14.817  30.174  40.150
    1STR   H22357710  14.790  30.279  40.143
    1STR   H22457711  14.891  30.153  40.073
    1STR   H22557712  14.865  30.158  40.246
    1STR   C22657713  14.594  30.108  40.251
    1STR   H22757714  14.563  30.213  40.253
    1STR   H22857715  14.504  30.049  40.234
    1STR   O22957716  14.654  30.071  40.375
    1STR   C23057717  14.574  30.092  40.491
    1STR   H23157718  14.524  30.189  40.485
    1STR   C23257719  14.470  29.980  40.503
    1STR   H23357720  14.517  29.882  40.504
    1STR   H23457721  14.398  29.981  40.422
    1STR   H23557722  14.413  29.990  40.596
    1STR   C23657723  14.668  30.095  40.612
    1STR   H23757724  14.719  29.999  40.622
    1STR   H23857725  14.746  30.170  40.595
    1STR   O23957726  14.594  30.125  40.729
    1STR   C24057727  14.669  30.127  40.850
    1STR   H24157728  14.738  30.042  40.853
    1STR   C24257729  14.747  30.259  40.861
    1STR   H24357730  14.681  30.345  40.854
    1STR   H24457731  14.823  30.268  40.783
    1STR   H24557732  14.799  30.265  40.957
    1STR   C24657733  14.570  30.111  40.966
    1STR   H24757734  14.500  30.195  40.968
    1STR   H24857735  14.511  30.021  40.950
    1STR   O24957736  14.642  30.103  41.089
    1STR   C25057737  14.561  30.091  41.206
    1STR   H25157738  14.476  30.160  41.200
    1STR   C25257739  14.510  29.947  41.221
    1STR   H25357740  14.593  29.876  41.222
    1STR   H25457741  14.443  29.918  41.140
    1STR   H25557742  14.455  29.935  41.314
    1STR   C25657743  14.647  30.133  41.326
    1STR   H25757744  14.732  30.065  41.336
    1STR   H25857745  14.688  30.233  41.307
    1STR   O25957746  14.568  30.133  41.444
    1STR   C26057747  14.637  30.166  41.564
    1STR   H26157748  14.734  30.116  41.567
    1STR   C26257749  14.657  30.319  41.572
    1STR   H26357750  14.561  30.371  41.565
    1STR   H26457751  14.722  30.356  41.494
    1STR   H26557752  14.702  30.347  41.667
    1STR   C26657753  14.554  30.114  41.682
    1STR   H26757754  14.456  30.163  41.683
    1STR   H26857755  14.535  30.008  41.668
    1STR   O26957756  14.624  30.137  41.804
    1STR   C27057757  14.555  30.096  41.922
    1STR   H27157758  14.450  30.125  41.916
    1STR   C27257759  14.566  29.944  41.939
    1STR   H27357760  14.671  29.912  41.940
    1STR   H27457761  14.515  29.889  41.859
    1STR   H27557762  14.522  29.912  42.033
    1STR   C27657763  14.618  30.171  42.040
    1STR   H27757764  14.724  30.143  42.050
    1STR   H27857765  14.615  30.278  42.021
    1STR   O27957766  14.547  30.140  42.160
    1STR   C28057767  14.598  30.200  42.279
    1STR   H28157768  14.707  30.193  42.280
    1STR   C28257769  14.555  30.347  42.286
    1STR   H28357770  14.447  30.357  42.279
    1STR   H28457771  14.599  30.407  42.206
    1STR   H28557772  14.586  30.392  42.380
    1STR   C28657773  14.544  30.120  42.398
    1STR   H28757774  14.435  30.125  42.400
    1STR   H28857775  14.570  30.015  42.385
    1STR   O28957776  14.599  30.170  42.519
    1STR   C29057777  14.554  30.107  42.638
    1STR   H29157778  14.446  30.091  42.634
    1STR   C29257779  14.626  29.972  42.656
    1STR   H29357780  14.734  29.985  42.656
    1STR   H29457781  14.600  29.901  42.578
    1STR   H29557782  14.598  29.926  42.751
    1STR   C29657783  14.583  30.202  42.755
    1STR   H29757784  14.691  30.218  42.763
    1STR   H29857785  14.537  30.299  42.735
    1STR   O29957786  14.531  30.147  42.876
    1STR   C30057787  14.556  30.224  42.993
    1STR   H30157788  14.659  30.262  42.992
    1STR   C30257789  14.457  30.341  43.001
    1STR   H30357790  14.354  30.306  42.996
    1STR   H30457791  14.472  30.413  42.920
    1STR   H30557792  14.469  30.396  43.094
    1STR   C30657793  14.542  30.130  43.114
    1STR   H30757794  14.440  30.094  43.122
    1STR   H30857795  14.606  30.043  43.099
    1STR   O30957796  14.581  30.201  43.232
    1STR    H1R57797  14.479  30.071  43.357
    1STR    H1S57798  14.690  29.975  43.458
    1STR    H1T57799  14.787  30.084  43.361
    1STR    H1U57800  14.693  29.956  43.285
    1STR    H1V57801  14.493  30.302  43.450
    1STR    H1W57802  14.665  30.288  43.468
    1STR    H1X57803  14.498  30.077  43.781
    1STR    H1Y57804  14.469  29.962  43.978
    1STR    H1Z57805  14.563  29.868  44.184
    1STR    H2057806  14.915  29.821  44.250
    1STR    H2157807  14.827  29.935  44.353
    1STR    H2257808  14.752  29.784  44.302
    1STR    H2357809  15.050  30.001  44.018
    1STR    H2757810  14.860  30.113  43.871
    1STR    H2857811  14.725  29.763  31.416
    1STR    H2957812  14.676  29.765  31.181
    1STR    H2A57813  14.791  30.013  30.941
    1STR    H2B57814  14.679  29.882  30.972
    1STR    H2C57815  14.845  29.845  30.923
    1STR   BCK157816  15.165  30.158  46.021
    1STR    O0357817  15.246  30.249  46.004
    1STR    N0457818  15.156  30.084  46.132
    1STR    C0557819  15.253  30.079  46.232
    1STR    C0657820  15.219  30.104  46.367
    1STR    C0757821  15.316  30.097  46.470
    1STR    N0857822  15.278  30.117  46.604
    1STR    C0957823  15.354  30.134  46.713
    1STR    O0A57824  15.476  30.142  46.712
    1STR    O0B57825  15.279  30.141  46.825
    1STR    C0C57826  15.344  30.161  46.951
    1STR    C0D57827  15.374  30.311  46.969
    1STR    C0E57828  15.259  30.106  47.067
    1STR    O0F57829  15.334  30.121  47.188
    1STR    C0G57830  15.272  30.073  47.307
    1STR    C0H57831  15.285  29.920  47.314
    1STR    C0I57832  15.342  30.140  47.426
    1STR    O0J57833  15.278  30.102  47.548
    1STR    C0K57834  15.353  29.716  58.388
    1STR    C0M57835  15.331  29.867  58.406
    1STR    C0N57836  15.285  29.633  58.498
    1STR    O0O57837  15.352  29.647  58.623
    1STR    C0P57838  15.309  29.736  58.712
    1STR    O0Q57839  15.207  29.804  58.702
    1STR    N0R57840  15.397  29.744  58.811
    1STR    C0S57841  15.399  29.834  58.918
    1STR    C0T57842  15.525  29.872  58.970
    1STR    C0U57843  15.534  29.968  59.072
    1STR    C0V57844  15.417  30.025  59.127
    1STR    C0W57845  15.431  30.133  59.232
    1STR    C0X57846  15.290  29.980  59.082
    1STR    N0Y57847  15.174  30.023  59.144
    1STR   BCK257848  15.133  29.983  59.264
    1STR    O1057849  15.041  30.040  59.322
    1STR    C1357850  15.282  29.887  58.977
    1STR    C1457851  15.449  30.065  46.433
    1STR    C1557852  15.483  30.038  46.300
    1STR    C1657853  15.386  30.042  46.199
    1STR    C1757854  15.427  30.002  46.058
    1STR    H1B57855  15.078  30.022  46.137
    1STR    H1C57856  15.117  30.130  46.390
    1STR    H1D57857  15.180  30.122  46.625
    1STR    H1E57858  15.438  30.106  46.952
    1STR    H1F57859  15.283  30.371  46.970
    1STR    H1G57860  15.427  30.329  47.063
    1STR    H1H57861  15.437  30.348  46.889
    1STR    H1I57862  15.236  30.001  47.048
    1STR    H1J57863  15.163  30.159  47.074
    1STR    H1K57864  15.166  30.102  47.309
    1STR    H1M57865  15.390  29.889  47.307
    1STR    H1N57866  15.231  29.870  47.234
    1STR    H1O57867  15.246  29.882  47.408
    1STR    H1P57868  15.448  30.112  47.428
    1STR    H1Q57869  15.338  30.248  47.413
    1STR   C01057870  15.337  30.153  47.667
    1STR   H01157871  15.446  30.143  47.663
    1STR   C01257872  15.298  30.301  47.685
    1STR   H01357873  15.190  30.314  47.684
    1STR   H01457874  15.340  30.365  47.607
    1STR   H01557875  15.335  30.339  47.780
    1STR   C01657876  15.286  30.068  47.784
    1STR   H01757877  15.177  30.075  47.791
    1STR   H01857878  15.310  29.963  47.765
    1STR   O01957879  15.346  30.110  47.906
    1STR   C02057880  15.304  30.040  48.023
    1STR   H02157881  15.196  30.026  48.021
    1STR   C02257882  15.374  29.903  48.031
    1STR   H02357883  15.482  29.915  48.028
    1STR   H02457884  15.345  29.838  47.949
    1STR   H02557885  15.349  29.852  48.123
    1STR   C02657886  15.338  30.127  48.146
    1STR   H02757887  15.446  30.142  48.152
    1STR   H02857888  15.293  30.225  48.134
    1STR   O02957889  15.289  30.064  48.264
    1STR   C03057890  15.318  30.132  48.386
    1STR   H03157891  15.422  30.167  48.386
    1STR   C03257892  15.222  30.250  48.404
    1STR   H03357893  15.118  30.218  48.400
    1STR   H03457894  15.236  30.327  48.328
    1STR   H03557895  15.238  30.298  48.501
    1STR   C03657896  15.304  30.030  48.501
    1STR   H03757897  15.201  29.994  48.505
    1STR   H03857898  15.368  29.945  48.481
    1STR   O03957899  15.340  30.092  48.625
    1STR   C04057900  15.327  30.010  48.740
    1STR   H04157901  15.233  29.954  48.736
    1STR   C04257902  15.446  29.912  48.749
    1STR   H04357903  15.541  29.966  48.748
    1STR   H04457904  15.446  29.841  48.666
    1STR   H04557905  15.441  29.854  48.841
    1STR   C04657906  15.322  30.102  48.863
    1STR   H04757907  15.415  30.159  48.871
    1STR   H04857908  15.242  30.175  48.849
    1STR   O04957909  15.300  30.025  48.981
    1STR   C05057910  15.298  30.099  49.103
    1STR   H05157911  15.378  30.172  49.104
    1STR   C05257912  15.162  30.169  49.118
    1STR   H05357913  15.080  30.097  49.113
    1STR   H05457914  15.145  30.245  49.042
    1STR   H05557915  15.155  30.219  49.215
    1STR   C05657916  15.323  29.999  49.217
    1STR   H05757917  15.243  29.925  49.220
    1STR   H05857918  15.416  29.946  49.198
    1STR   O05957919  15.330  30.070  49.341
    1STR   C06057920  15.350  29.989  49.456
    1STR   H06157921  15.286  29.900  49.451
    1STR   C06257922  15.497  29.948  49.467
    1STR   H06357923  15.563  30.035  49.468
    1STR   H06457924  15.528  29.883  49.385
    1STR   H06557925  15.515  29.892  49.559
    1STR   C06657926  15.306  30.072  49.579
    1STR   H06757927  15.368  30.161  49.588
    1STR   H06857928  15.203  30.106  49.563
    1STR   O06957929  15.315  29.991  49.696
    1STR   C07057930  15.281  30.057  49.818
    1STR   H07157931  15.325  30.157  49.820
    1STR   C07257932  15.128  30.067  49.831
    1STR   H07357933  15.081  29.969  49.824
    1STR   H07457934  15.084  30.130  49.754
    1STR   H07557935  15.100  30.110  49.927
    1STR   C07657936  15.342  29.976  49.933
    1STR   H07757937  15.299  29.876  49.935
    1STR   H07857938  15.449  29.965  49.915
    1STR   O07957939  15.318  30.043  50.056
    1STR   C08057940  15.366  29.976  50.172
    1STR   H08157941  15.344  29.869  50.166
    1STR   C08257942  15.518  29.997  50.185
    1STR   H08357943  15.543  30.103  50.187
    1STR   H08457944  15.573  29.950  50.104
    1STR   H08557945  15.555  29.953  50.278
    1STR   C08657946  15.291  30.034  50.293
    1STR   H08757947  15.313  30.140  50.303
    1STR   H08857948  15.184  30.024  50.276
    1STR   O08957949  15.330  29.963  50.411
    1STR   C09057950  15.270  30.010  50.532
    1STR   H09157951  15.271  30.119  50.534
    1STR   C09257952  15.126  29.957  50.542
    1STR   H09357953  15.123  29.849  50.535
    1STR   H09457954  15.061  29.998  50.465
    1STR   H09557955  15.082  29.985  50.638
    1STR   C09657956  15.357  29.959  50.648
    1STR   H09757957  15.357  29.850  50.649
    1STR   H09857958  15.460  29.991  50.632
    1STR   O09957959  15.307  30.011  50.771
    1STR   C10057960  15.376  29.968  50.888
    1STR   H10157961  15.398  29.861  50.882
    1STR   C10257962  15.507  30.047  50.903
    1STR   H10357963  15.487  30.155  50.904
    1STR   H10457964  15.577  30.027  50.822
    1STR   H10557965  15.557  30.022  50.996
    1STR   C10657966  15.282  29.990  51.007
    1STR   H10757967  15.259  30.097  51.017
    1STR   H10857968  15.188  29.939  50.988
    1STR   O10957969  15.343  29.940  51.126
    1STR   C11057970  15.268  29.958  51.245
    1STR   H11157971  15.225  30.059  51.248
    1STR   C11257972  15.157  29.853  51.254
    1STR   H11357973  15.198  29.752  51.246
    1STR   H11457974  15.083  29.865  51.175
    1STR   H11557975  15.104  29.860  51.348
    1STR   C11657976  15.366  29.946  51.363
    1STR   H11757977  15.410  29.846  51.365
    1STR   H11857978  15.448  30.017  51.349
    1STR   O11957979  15.297  29.973  51.485
    1STR   C12057980  15.376  29.961  51.603
    1STR   H12157981  15.438  29.872  51.598
    1STR   C12257982  15.464  30.086  51.620
    1STR   H12357983  15.403  30.177  51.621
    1STR   H12457984  15.538  30.096  51.541
    1STR   H12557985  15.518  30.082  51.715
    1STR   C12657986  15.279  29.944  51.721
    1STR   H12757987  15.216  30.032  51.731
    1STR   H12857988  15.213  29.859  51.701
    1STR   O12957989  15.353  29.922  51.841
    1STR   C13057990  15.275  29.908  51.959
    1STR   H13157991  15.195  29.983  51.960
    1STR   C13257992  15.215  29.767  51.966
    1STR   H13357993  15.293  29.691  51.959
    1STR   H13457994  15.144  29.748  51.885
    1STR   H13557995  15.162  29.752  52.060
    1STR   C13657996  15.368  29.935  52.078
    1STR   H13757997  15.448  29.862  52.081
    1STR   H13857998  15.414  30.033  52.065
    1STR   O13957999  15.292  29.932  52.199
    1STR   C14058000  15.367  29.952  52.318
    1STR   H14158001  15.460  29.895  52.314
    1STR   C14258002  15.397  30.102  52.337
    1STR   H14358003  15.305  30.161  52.336
    1STR   H14458004  15.462  30.141  52.259
    1STR   H14558005  15.447  30.120  52.432
    1STR   C14658006  15.283  29.897  52.435
    1STR   H14758007  15.190  29.952  52.443
    1STR   H14858008  15.257  29.793  52.414
    1STR   O14958009  15.358  29.906  52.556
    1STR   C15058010  15.290  29.862  52.673
    1STR   H15158011  15.188  29.898  52.673
    1STR   C15258012  15.292  29.708  52.679
    1STR   H15358013  15.393  29.669  52.674
    1STR   H15458014  15.235  29.663  52.598
    1STR   H15558015  15.247  29.673  52.772
    1STR   C15658016  15.363  29.923  52.794
    1STR   H15758017  15.466  29.888  52.798
    1STR   H15858018  15.367  30.032  52.781
    1STR   O15958019  15.292  29.890  52.913
    1STR   C16058020  15.352  29.938  53.033
    1STR   H16158021  15.460  29.923  53.031
    1STR   C16258022  15.319  30.087  53.052
    1STR   H16358023  15.211  30.104  53.050
    1STR   H16458024  15.365  30.149  52.975
    1STR   H16558025  15.356  30.122  53.148
    1STR   C16658026  15.295  29.853  53.149
    1STR   H16758027  15.187  29.867  53.155
    1STR   H16858028  15.313  29.748  53.127
    1STR   O16958029  15.358  29.891  53.271
    1STR   C17058030  15.312  29.822  53.387
    1STR   H17158031  15.203  29.815  53.385
    1STR   C17258032  15.374  29.682  53.393
    1STR   H17358033  15.483  29.687  53.390
    1STR   H17458034  15.341  29.618  53.311
    1STR   H17558035  15.346  29.632  53.486
    1STR   C17658036  15.351  29.907  53.508
    1STR   H17758037  15.460  29.916  53.514
    1STR   H17858038  15.312  30.008  53.496
    1STR   O17958039  15.299  29.848  53.627
    1STR   C18058040  15.332  29.915  53.748
    1STR   H18158041  15.437  29.944  53.747
    1STR   C18258042  15.242  30.038  53.766
    1STR   H18358043  15.137  30.011  53.762
    1STR   H18458044  15.261  30.114  53.689
    1STR   H18558045  15.261  30.086  53.862
    1STR   C18658046  15.312  29.814  53.863
    1STR   H18758047  15.207  29.783  53.867
    1STR   H18858048  15.370  29.725  53.842
    1STR   O18958049  15.353  29.873  53.985
    1STR   C19058050  15.335  29.792  54.101
    1STR   H19158051  15.238  29.741  54.097
    1STR   C19258052  15.448  29.688  54.109
    1STR   H19358053  15.546  29.736  54.108
    1STR   H19458054  15.445  29.617  54.026
    1STR   H19558055  15.441  29.630  54.201
    1STR   C19658056  15.336  29.885  54.223
    1STR   H19758057  15.432  29.936  54.231
    1STR   H19858058  15.260  29.962  54.210
    1STR   O19958059  15.309  29.809  54.341
    1STR   C20058060  15.311  29.883  54.462
    1STR   H20158061  15.395  29.952  54.463
    1STR   C20258062  15.179  29.960  54.478
    1STR   H20358063  15.093  29.892  54.473
    1STR   H20458064  15.166  30.036  54.402
    1STR   H20558065  15.175  30.010  54.575
    1STR   C20658066  15.331  29.782  54.577
    1STR   H20758067  15.248  29.712  54.580
    1STR   H20858068  15.421  29.724  54.557
    1STR   O20958069  15.343  29.852  54.700
    1STR   C21058070  15.358  29.770  54.815
    1STR   H21158071  15.289  29.685  54.811
    1STR   C21258072  15.503  29.720  54.826
    1STR   H21358073  15.573  29.804  54.826
    1STR   H21458074  15.530  29.654  54.743
    1STR   H21558075  15.518  29.664  54.918
    1STR   C21658076  15.319  29.855  54.938
    1STR   H21758077  15.387  29.940  54.947
    1STR   H21858078  15.219  29.895  54.922
    1STR   O21958079  15.323  29.774  55.055
    1STR   C22058080  15.293  29.842  55.176
    1STR   H22158081  15.343  29.939  55.179
    1STR   C22258082  15.141  29.860  55.190
    1STR   H22358083  15.089  29.764  55.183
    1STR   H22458084  15.100  29.926  55.113
    1STR   H22558085  15.116  29.904  55.286
    1STR   C22658086  15.350  29.757  55.291
    1STR   H22758087  15.301  29.660  55.293
    1STR   H22858088  15.456  29.740  55.273
    1STR   O22958089  15.331  29.826  55.415
    1STR   C23058090  15.375  29.756  55.530
    1STR   H23158091  15.347  29.651  55.525
    1STR   C23258092  15.528  29.769  55.543
    1STR   H23358093  15.559  29.873  55.544
    1STR   H23458094  15.580  29.719  55.461
    1STR   H23558095  15.563  29.723  55.636
    1STR   C23658096  15.304  29.818  55.652
    1STR   H23758097  15.332  29.923  55.662
    1STR   H23858098  15.196  29.815  55.635
    1STR   O23958099  15.338  29.745  55.769
    1STR   C24058100  15.282  29.795  55.890
    1STR   H24158101  15.288  29.904  55.893
    1STR   C24258102  15.135  29.750  55.901
    1STR   H24358103  15.126  29.642  55.894
    1STR   H24458104  15.072  29.794  55.823
    1STR   H24558105  15.093  29.780  55.997
    1STR   C24658106  15.366  29.740  56.006
    1STR   H24758107  15.360  29.631  56.007
    1STR   H24858108  15.470  29.766  55.990
    1STR   O24958109  15.319  29.794  56.129
    1STR   C25058110  15.386  29.748  56.245
    1STR   H25158111  15.402  29.640  56.239
    1STR   C25258112  15.521  29.820  56.261
    1STR   H25358113  15.507  29.928  56.262
    1STR   H25458114  15.590  29.796  56.180
    1STR   H25558115  15.569  29.791  56.354
    1STR   C25658116  15.294  29.775  56.365
    1STR   H25758117  15.277  29.883  56.375
    1STR   H25858118  15.197  29.729  56.347
    1STR   O25958119  15.352  29.722  56.483
    1STR   C26058120  15.278  29.744  56.603
    1STR   H26158121  15.241  29.847  56.606
    1STR   C26258122  15.162  29.645  56.612
    1STR   H26358123  15.197  29.542  56.605
    1STR   H26458124  15.088  29.661  56.533
    1STR   H26558125  15.109  29.655  56.707
    1STR   C26658126  15.376  29.727  56.720
    1STR   H26758127  15.414  29.624  56.722
    1STR   H26858128  15.461  29.793  56.706
    1STR   O26958129  15.309  29.758  56.842
    1STR   C27058130  15.387  29.741  56.960
    1STR   H27158131  15.445  29.649  56.955
    1STR   C27258132  15.482  29.861  56.977
    1STR   H27358133  15.426  29.955  56.979
    1STR   H27458134  15.556  29.867  56.898
    1STR   H27558135  15.536  29.854  57.072
    1STR   C27658136  15.290  29.729  57.078
    1STR   H27758137  15.231  29.820  57.088
    1STR   H27858138  15.220  29.648  57.058
    1STR   O27958139  15.363  29.703  57.197
    1STR   C28058140  15.285  29.693  57.316
    1STR   H28158141  15.209  29.772  57.318
    1STR   C28258142  15.217  29.556  57.323
    1STR   H28358143  15.291  29.475  57.317
    1STR   H28458144  15.145  29.541  57.244
    1STR   H28558145  15.164  29.544  57.418
    1STR   C28658146  15.380  29.716  57.434
    1STR   H28758147  15.456  29.638  57.437
    1STR   H28858148  15.431  29.811  57.421
    1STR   O28958149  15.304  29.717  57.555
    1STR   C29058150  15.381  29.733  57.674
    1STR   H29158151  15.471  29.671  57.670
    1STR   C29258152  15.419  29.880  57.693
    1STR   H29358153  15.330  29.944  57.693
    1STR   H29458154  15.486  29.916  57.615
    1STR   H29558155  15.470  29.895  57.788
    1STR   C29658156  15.294  29.682  57.790
    1STR   H29758157  15.204  29.742  57.798
    1STR   H29858158  15.263  29.580  57.769
    1STR   O29958159  15.370  29.686  57.911
    1STR   C30058160  15.298  29.645  58.027
    1STR   H30158161  15.197  29.686  58.026
    1STR   C30258162  15.293  29.491  58.033
    1STR   H30358163  15.393  29.448  58.030
    1STR   H30458164  15.235  29.449  57.951
    1STR   H30558165  15.246  29.458  58.126
    1STR   C30658166  15.371  29.704  58.149
    1STR   H30758167  15.472  29.663  58.155
    1STR   H30858168  15.381  29.811  58.136
    1STR   O30958169  15.295  29.674  58.265
    1STR    H1R58170  15.460  29.693  58.389
    1STR    H1S58171  15.372  29.902  58.501
    1STR    H1T58172  15.225  29.892  58.406
    1STR    H1U58173  15.379  29.926  58.328
    1STR    H1V58174  15.289  29.527  58.472
    1STR    H1W58175  15.178  29.657  58.506
    1STR    H1X58176  15.474  29.681  58.799
    1STR    H1Y58177  15.616  29.831  58.929
    1STR    H1Z58178  15.631  29.998  59.108
    1STR    H2058179  15.340  30.192  59.243
    1STR    H2158180  15.455  30.089  59.329
    1STR    H2258181  15.511  30.203  59.206
    1STR    H2358182  15.115  30.091  59.099
    1STR    H2758183  15.185  29.855  58.942
    1STR    H2858184  15.528  30.058  46.506
    1STR    H2958185  15.585  30.012  46.276
    1STR    H2A58186  15.349  29.944  46.009
    1STR    H2B58187  15.517  29.940  46.059
    1STR    H2C58188  15.447  30.090  45.998
    1STR   BCK158189  15.044  45.169   0.879
    1STR    O0358190  14.947  45.173   0.804
    1STR    N0458191  15.046  45.203   1.009
    1STR    C0558192  14.948  45.257   1.094
    1STR    C0658193  14.950  45.220   1.232
    1STR    C0758194  14.859  45.273   1.327
    1STR    N0858195  14.869  45.240   1.464
    1STR    C0958196  14.805  45.290   1.572
    1STR    O0A58197  14.720  45.378   1.567
    1STR    O0B58198  14.845  45.232   1.688
    1STR    C0C58199  14.778  45.267   1.812
    1STR    C0D58200  14.650  45.182   1.825
    1STR    C0E58201  14.870  45.249   1.935
    1STR    O0F58202  14.800  45.288   2.054
    1STR    C0G58203  14.874  45.282   2.177
    1STR    C0H58204  14.967  45.404   2.186
    1STR    C0I58205  14.776  45.279   2.296
    1STR    O0J58206  14.849  45.266   2.419
    1STR    C0K58207  15.044  45.593  13.272
    1STR    C0M58208  14.961  45.464  13.283
    1STR    C0N58209  15.145  45.605  13.387
    1STR    O0O58210  15.078  45.625  13.512
    1STR    C0P58211  15.073  45.527  13.603
    1STR    O0Q58212  15.121  45.415  13.590
    1STR    N0R58213  15.008  45.571  13.711
    1STR    C0S58214  14.976  45.509  13.832
    1STR    C0T58215  14.885  45.575  13.916
    1STR    C0U58216  14.845  45.517  14.039
    1STR    C0V58217  14.897  45.393  14.079
    1STR    C0W58218  14.846  45.330  14.208
    1STR    C0X58219  14.993  45.327  13.998
    1STR    N0Y58220  15.044  45.203  14.033
    1STR   BCK258221  15.115  45.172  14.141
    1STR    O1058222  15.157  45.252  14.224
    1STR    C1358223  15.030  45.385  13.874
    1STR    C1458224  14.759  45.361   1.279
    1STR    C1558225  14.757  45.401   1.144
    1STR    C1658226  14.852  45.354   1.053
    1STR    C1758227  14.851  45.417   0.915
    1STR    H1B58228  15.135  45.183   1.051
    1STR    H1C58229  15.025  45.150   1.265
    1STR    H1D58230  14.936  45.169   1.491
    1STR    H1E58231  14.750  45.372   1.809
    1STR    H1F58232  14.673  45.075   1.829
    1STR    H1G58233  14.595  45.208   1.915
    1STR    H1H58234  14.583  45.198   1.740
    1STR    H1I58235  14.959  45.311   1.921
    1STR    H1J58236  14.903  45.146   1.943
    1STR    H1K58237  14.933  45.190   2.180
    1STR    H1M58238  14.910  45.497   2.179
    1STR    H1N58239  15.043  45.405   2.108
    1STR    H1O58240  15.020  45.405   2.282
    1STR    H1P58241  14.716  45.370   2.298
    1STR    H1Q58242  14.707  45.196   2.284
    1STR   C01058243  14.771  45.267   2.540
    1STR   H01158244  14.697  45.348   2.535
    1STR   C01258245  14.700  45.132   2.558
    1STR   H01358246  14.771  45.050   2.558
    1STR   H01458247  14.626  45.114   2.480
    1STR   H01558248  14.647  45.129   2.653
    1STR   C01658249  14.866  45.296   2.658
    1STR   H01758250  14.942  45.218   2.664
    1STR   H01858251  14.918  45.390   2.639
    1STR   O01958252  14.793  45.304   2.781
    1STR   C02058253  14.872  45.327   2.898
    1STR   H02158254  14.961  45.264   2.896
    1STR   C02258255  14.913  45.475   2.906
    1STR   H02358256  14.826  45.540   2.904
    1STR   H02458257  14.979  45.504   2.824
    1STR   H02558258  14.967  45.495   2.999
    1STR   C02658259  14.789  45.286   3.022
    1STR   H02758260  14.699  45.348   3.028
    1STR   H02858261  14.756  45.183   3.010
    1STR   O02958262  14.867  45.301   3.141
    1STR   C03058263  14.800  45.270   3.263
    1STR   H03158264  14.700  45.314   3.263
    1STR   C03258265  14.790  45.118   3.281
    1STR   H03358266  14.889  45.072   3.277
    1STR   H03458267  14.728  45.071   3.205
    1STR   H03558268  14.746  45.093   3.378
    1STR   C03658269  14.879  45.335   3.379
    1STR   H03758270  14.979  45.293   3.383
    1STR   H03858271  14.889  45.442   3.359
    1STR   O03958272  14.810  45.314   3.502
    1STR   C04058273  14.876  45.365   3.618
    1STR   H04158274  14.982  45.343   3.614
    1STR   C04258275  14.854  45.517   3.627
    1STR   H04358276  14.748  45.542   3.626
    1STR   H04458277  14.902  45.571   3.545
    1STR   H04558278  14.897  45.557   3.719
    1STR   C04658279  14.817  45.294   3.741
    1STR   H04758280  14.710  45.315   3.749
    1STR   H04858281  14.827  45.186   3.728
    1STR   O04958282  14.885  45.336   3.859
    1STR   C05058283  14.837  45.280   3.981
    1STR   H05158284  14.728  45.280   3.983
    1STR   C05258285  14.890  45.137   3.997
    1STR   H05358286  14.999  45.134   3.992
    1STR   H05458287  14.851  45.070   3.921
    1STR   H05558288  14.861  45.096   4.094
    1STR   C05658289  14.886  45.371   4.096
    1STR   H05758290  14.995  45.372   4.099
    1STR   H05858291  14.853  45.473   4.077
    1STR   O05958292  14.833  45.323   4.220
    1STR   C06058293  14.873  45.396   4.336
    1STR   H06158294  14.980  45.418   4.331
    1STR   C06258295  14.793  45.527   4.346
    1STR   H06358296  14.686  45.507   4.347
    1STR   H06458297  14.814  45.595   4.264
    1STR   H06558298  14.817  45.579   4.439
    1STR   C06658299  14.850  45.306   4.458
    1STR   H06758300  14.744  45.283   4.467
    1STR   H06858301  14.902  45.211   4.443
    1STR   O06958302  14.898  45.371   4.576
    1STR   C07058303  14.878  45.299   4.697
    1STR   H07158304  14.778  45.256   4.699
    1STR   C07258305  14.984  45.189   4.710
    1STR   H07358306  15.085  45.230   4.704
    1STR   H07458307  14.974  45.112   4.634
    1STR   H07558308  14.975  45.139   4.807
    1STR   C07658309  14.888  45.400   4.812
    1STR   H07758310  14.987  45.445   4.814
    1STR   H07858311  14.817  45.481   4.795
    1STR   O07958312  14.860  45.335   4.936
    1STR   C08058313  14.870  45.417   5.052
    1STR   H08158314  14.959  45.480   5.046
    1STR   C08258315  14.744  45.505   5.065
    1STR   H08358316  14.654  45.444   5.066
    1STR   H08458317  14.735  45.576   4.984
    1STR   H08558318  14.746  45.562   5.158
    1STR   C08658319  14.886  45.324   5.173
    1STR   H08758320  14.798  45.260   5.183
    1STR   H08858321  14.971  45.258   5.156
    1STR   O08958322  14.906  45.402   5.291
    1STR   C09058323  14.918  45.327   5.411
    1STR   H09158324  14.844  45.247   5.414
    1STR   C09258325  15.060  45.269   5.422
    1STR   H09358326  15.136  45.347   5.415
    1STR   H09458327  15.080  45.195   5.344
    1STR   H09558328  15.074  45.218   5.518
    1STR   C09658329  14.889  45.423   5.528
    1STR   H09758330  14.962  45.504   5.529
    1STR   H09858331  14.791  45.469   5.512
    1STR   O09958332  14.891  45.351   5.651
    1STR   C10058333  14.868  45.429   5.767
    1STR   H10158334  14.925  45.523   5.762
    1STR   C10258335  14.718  45.459   5.783
    1STR   H10358336  14.660  45.367   5.784
    1STR   H10458337  14.680  45.522   5.702
    1STR   H10558338  14.699  45.512   5.876
    1STR   C10658339  14.922  45.349   5.887
    1STR   H10758340  14.867  45.256   5.897
    1STR   H10858341  15.026  45.323   5.869
    1STR   O10958342  14.911  45.428   6.006
    1STR   C11058343  14.954  45.364   6.125
    1STR   H11158344  14.918  45.261   6.128
    1STR   C11258345  15.107  45.366   6.134
    1STR   H11358346  15.145  45.468   6.127
    1STR   H11458347  15.154  45.308   6.055
    1STR   H11558348  15.142  45.325   6.229
    1STR   C11658349  14.890  45.439   6.243
    1STR   H11758350  14.925  45.542   6.245
    1STR   H11858351  14.782  45.442   6.229
    1STR   O11958352  14.923  45.372   6.365
    1STR   C12058353  14.873  45.434   6.483
    1STR   H12158354  14.887  45.543   6.478
    1STR   C12258355  14.723  45.401   6.500
    1STR   H12358356  14.707  45.293   6.501
    1STR   H12458357  14.662  45.444   6.421
    1STR   H12558358  14.686  45.441   6.595
    1STR   C12658359  14.956  45.382   6.601
    1STR   H12758360  14.943  45.274   6.611
    1STR   H12858361  15.061  45.400   6.581
    1STR   O12958362  14.916  45.448   6.721
    1STR   C13058363  14.983  45.406   6.839
    1STR   H13158364  14.991  45.297   6.841
    1STR   C13258365  15.123  45.469   6.846
    1STR   H13358366  15.117  45.578   6.839
    1STR   H13458367  15.188  45.434   6.765
    1STR   H13558368  15.172  45.444   6.940
    1STR   C13658369  14.896  45.448   6.958
    1STR   H13758370  14.887  45.557   6.961
    1STR   H13858371  14.796  45.408   6.945
    1STR   O13958372  14.954  45.399   7.079
    1STR   C14058373  14.885  45.435   7.198
    1STR   H14158374  14.855  45.540   7.194
    1STR   C14258375  14.762  45.345   7.217
    1STR   H14358376  14.790  45.240   7.216
    1STR   H14458377  14.688  45.361   7.139
    1STR   H14558378  14.713  45.366   7.312
    1STR   C14658379  14.984  45.420   7.315
    1STR   H14758380  15.016  45.316   7.323
    1STR   H14858381  15.074  45.479   7.294
    1STR   O14958382  14.923  45.464   7.436
    1STR   C15058383  15.003  45.450   7.553
    1STR   H15158384  15.054  45.354   7.553
    1STR   C15258385  15.106  45.564   7.559
    1STR   H15358386  15.057  45.662   7.554
    1STR   H15458387  15.178  45.559   7.478
    1STR   H15558388  15.162  45.560   7.652
    1STR   C15658389  14.908  45.454   7.674
    1STR   H15758390  14.856  45.550   7.678
    1STR   H15858391  14.832  45.377   7.661
    1STR   O15958392  14.983  45.431   7.793
    1STR   C16058393  14.907  45.436   7.913
    1STR   H16158394  14.837  45.519   7.911
    1STR   C16258395  14.830  45.304   7.932
    1STR   H16358396  14.898  45.218   7.930
    1STR   H16458397  14.755  45.288   7.855
    1STR   H16558398  14.778  45.302   8.028
    1STR   C16658399  15.005  45.460   8.029
    1STR   H16758400  15.076  45.377   8.035
    1STR   H16858401  15.063  45.550   8.007
    1STR   O16958402  14.933  45.475   8.151
    1STR   C17058403  15.014  45.494   8.267
    1STR   H17158404  15.099  45.426   8.265
    1STR   C17258405  15.062  45.639   8.273
    1STR   H17358406  14.978  45.709   8.270
    1STR   H17458407  15.129  45.664   8.191
    1STR   H17558408  15.117  45.658   8.366
    1STR   C17658409  14.927  45.458   8.388
    1STR   H17758410  14.841  45.525   8.394
    1STR   H17858411  14.888  45.357   8.376
    1STR   O17958412  15.006  45.466   8.507
    1STR   C18058413  14.937  45.439   8.628
    1STR   H18158414  14.839  45.488   8.627
    1STR   C18258415  14.920  45.287   8.646
    1STR   H18358416  15.016  45.236   8.642
    1STR   H18458417  14.855  45.244   8.569
    1STR   H18558418  14.874  45.264   8.742
    1STR   C18658419  15.019  45.500   8.743
    1STR   H18758420  15.117  45.452   8.747
    1STR   H18858421  15.036  45.605   8.722
    1STR   O18958422  14.949  45.483   8.866
    1STR   C19058423  15.017  45.532   8.981
    1STR   H19158424  15.122  45.504   8.977
    1STR   C19258425  15.004  45.685   8.989
    1STR   H19358426  14.899  45.715   8.987
    1STR   H19458427  15.054  45.735   8.906
    1STR   H19558428  15.048  45.723   9.081
    1STR   C19658429  14.954  45.464   9.103
    1STR   H19758430  14.848  45.491   9.111
    1STR   H19858431  14.958  45.356   9.090
    1STR   O19958432  15.025  45.502   9.221
    1STR   C20058433  14.973  45.448   9.342
    1STR   H20158434  14.864  45.454   9.343
    1STR   C20258435  15.019  45.302   9.358
    1STR   H20358436  15.127  45.294   9.353
    1STR   H20458437  14.976  45.238   9.282
    1STR   H20558438  14.987  45.263   9.455
    1STR   C20658439  15.026  45.536   9.457
    1STR   H20758440  15.135  45.532   9.460
    1STR   H20858441  14.999  45.640   9.437
    1STR   O20958442  14.970  45.492   9.580
    1STR   C21058443  15.015  45.563   9.695
    1STR   H21158444  15.123  45.580   9.691
    1STR   C21258445  14.942  45.698   9.706
    1STR   H21358446  14.833  45.684   9.706
    1STR   H21458447  14.967  45.765   9.623
    1STR   H21558448  14.968  45.750   9.798
    1STR   C21658449  14.986  45.475   9.818
    1STR   H21758450  14.879  45.457   9.827
    1STR   H21858451  15.033  45.377   9.803
    1STR   O21958452  15.037  45.537   9.935
    1STR   C22058453  15.014  45.467  10.056
    1STR   H22158454  14.911  45.428  10.059
    1STR   C22258455  15.114  45.351  10.070
    1STR   H22358456  15.217  45.386  10.063
    1STR   H22458457  15.099  45.275   9.993
    1STR   H22558458  15.102  45.301  10.166
    1STR   C22658459  15.029  45.567  10.171
    1STR   H22758460  15.131  45.607  10.173
    1STR   H22858461  14.963  45.652  10.154
    1STR   O22958462  14.997  45.504  10.295
    1STR   C23058463  15.011  45.586  10.410
    1STR   H23158464  15.104  45.644  10.405
    1STR   C23258465  14.890  45.680  10.423
    1STR   H23358466  14.797  45.623  10.424
    1STR   H23458467  14.885  45.751  10.342
    1STR   H23558468  14.896  45.737  10.516
    1STR   C23658469  15.022  45.492  10.532
    1STR   H23758470  14.931  45.433  10.542
    1STR   H23858471  15.104  45.421  10.515
    1STR   O23958472  15.046  45.569  10.649
    1STR   C24058473  15.055  45.493  10.770
    1STR   H24158474  14.976  45.418  10.773
    1STR   C24258475  15.193  45.427  10.781
    1STR   H24358476  15.273  45.501  10.774
    1STR   H24458477  15.209  45.352  10.703
    1STR   H24558478  15.204  45.376  10.877
    1STR   C24658479  15.030  45.591  10.886
    1STR   H24758480  15.108  45.668  10.888
    1STR   H24858481  14.935  45.642  10.870
    1STR   O24958482  15.028  45.519  11.009
    1STR   C25058483  15.010  45.599  11.126
    1STR   H25158484  15.071  45.689  11.120
    1STR   C25258485  14.861  45.636  11.141
    1STR   H25358486  14.798  45.547  11.142
    1STR   H25458487  14.827  45.701  11.060
    1STR   H25558488  14.844  45.690  11.234
    1STR   C25658489  15.059  45.516  11.246
    1STR   H25758490  14.999  45.425  11.256
    1STR   H25858491  15.162  45.484  11.227
    1STR   O25958492  15.052  45.595  11.364
    1STR   C26058493  15.091  45.529  11.484
    1STR   H26158494  15.049  45.428  11.486
    1STR   C26258495  15.244  45.523  11.492
    1STR   H26358496  15.288  45.623  11.485
    1STR   H26458497  15.288  45.462  11.414
    1STR   H26558498  15.276  45.480  11.587
    1STR   C26658499  15.031  45.607  11.601
    1STR   H26758500  15.072  45.709  11.603
    1STR   H26858501  14.924  45.616  11.587
    1STR   O26958502  15.060  45.540  11.724
    1STR   C27058503  15.013  45.605  11.841
    1STR   H27158504  15.033  45.712  11.836
    1STR   C27258505  14.862  45.580  11.858
    1STR   H27358506  14.840  45.473  11.859
    1STR   H27458507  14.804  45.626  11.779
    1STR   H27558508  14.827  45.622  11.952
    1STR   C27658509  15.093  45.548  11.960
    1STR   H27758510  15.074  45.441  11.969
    1STR   H27858511  15.199  45.560  11.940
    1STR   O27958512  15.056  45.616  12.079
    1STR   C28058513  15.120  45.570  12.198
    1STR   H28158514  15.123  45.461  12.199
    1STR   C28258515  15.263  45.626  12.205
    1STR   H28358516  15.263  45.735  12.198
    1STR   H28458517  15.327  45.588  12.125
    1STR   H28558518  15.311  45.599  12.299
    1STR   C28658519  15.036  45.617  12.317
    1STR   H28758520  15.032  45.726  12.319
    1STR   H28858521  14.933  45.582  12.304
    1STR   O28958522  15.091  45.566  12.438
    1STR   C29058523  15.024  45.606  12.557
    1STR   H29158524  14.999  45.713  12.552
    1STR   C29258525  14.896  45.523  12.576
    1STR   H29358526  14.919  45.416  12.576
    1STR   H29458527  14.823  45.542  12.498
    1STR   H29558528  14.848  45.546  12.671
    1STR   C29658529  15.122  45.586  12.674
    1STR   H29758530  15.148  45.480  12.682
    1STR   H29858531  15.214  45.640  12.653
    1STR   O29958532  15.063  45.633  12.795
    1STR   C30058533  15.142  45.615  12.912
    1STR   H30158534  15.188  45.516  12.911
    1STR   C30258535  15.250  45.724  12.919
    1STR   H30358536  15.206  45.824  12.914
    1STR   H30458537  15.322  45.716  12.838
    1STR   H30558538  15.306  45.717  13.012
    1STR   C30658539  15.047  45.621  13.032
    1STR   H30758540  15.001  45.720  13.039
    1STR   H30858541  14.966  45.550  13.018
    1STR   O30958542  15.120  45.591  13.151
    1STR    H1R58543  14.979  45.680  13.274
    1STR    H1S58544  14.906  45.461  13.378
    1STR    H1T58545  15.025  45.376  13.281
    1STR    H1U58546  14.887  45.454  13.204
    1STR    H1V58547  15.209  45.692  13.371
    1STR    H1W58548  15.212  45.519  13.390
    1STR    H1X58549  14.977  45.666  13.697
    1STR    H1Y58550  14.842  45.670  13.888
    1STR    H1Z58551  14.774  45.569  14.101
    1STR    H2058552  14.837  45.222  14.197
    1STR    H2158553  14.915  45.351  14.290
    1STR    H2258554  14.747  45.368  14.234
    1STR    H2358555  15.029  45.127  13.969
    1STR    H2758556  15.101  45.333  13.813
    1STR    H2858557  14.683  45.403   1.342
    1STR    H2958558  14.682  45.472   1.113
    1STR    H2A58559  14.951  45.424   0.873
    1STR    H2B58560  14.811  45.519   0.919
    1STR    H2C58561  14.788  45.360   0.847
    1STR   BCK158562  15.154  45.074  15.938
    1STR    O0358563  15.249  45.001  15.912
    1STR    N0458564  15.077  45.063  16.046
    1STR    C0558565  15.077  44.958  16.139
    1STR    C0658566  15.095  44.985  16.278
    1STR    C0758567  15.091  44.881  16.376
    1STR    N0858568  15.104  44.912  16.513
    1STR    C0958569  15.120  44.831  16.619
    1STR    O0A58570  15.132  44.708  16.612
    1STR    O0B58571  15.121  44.899  16.736
    1STR    C0C58572  15.144  44.829  16.859
    1STR    C0D58573  15.295  44.806  16.878
    1STR    C0E58574  15.083  44.905  16.979
    1STR    O0F58575  15.106  44.830  17.100
    1STR    C0G58576  15.054  44.887  17.220
    1STR    C0H58577  14.903  44.861  17.228
    1STR    C0I58578  15.127  44.823  17.340
    1STR    O0J58579  15.083  44.883  17.462
    1STR    C0K58580  14.717  44.784  28.305
    1STR    C0M58581  14.868  44.815  28.317
    1STR    C0N58582  14.636  44.851  28.417
    1STR    O0O58583  14.662  44.790  28.542
    1STR    C0P58584  14.746  44.845  28.630
    1STR    O0Q58585  14.807  44.950  28.616
    1STR    N0R58586  14.750  44.766  28.737
    1STR    C0S58587  14.821  44.772  28.857
    1STR    C0T58588  14.803  44.662  28.943
    1STR    C0U58589  14.873  44.655  29.064
    1STR    C0V58590  14.962  44.757  29.102
    1STR    C0W58591  15.046  44.736  29.227
    1STR    C0X58592  14.977  44.872  29.020
    1STR    N0Y58593  15.067  44.972  29.055
    1STR   BCK258594  15.070  45.039  29.171
    1STR    O1058595  14.978  45.042  29.252
    1STR    C1358596  14.908  44.877  28.896
    1STR    C1458597  15.069  44.749  16.330
    1STR    C1558598  15.050  44.722  16.193
    1STR    C1658599  15.051  44.825  16.098
    1STR    C1758600  15.021  44.791  15.953
    1STR    H1B58601  15.010  45.137  16.059
    1STR    H1C58602  15.112  45.087  16.309
    1STR    H1D58603  15.103  45.009  16.540
    1STR    H1E58604  15.094  44.732  16.855
    1STR    H1F58605  15.349  44.900  16.884
    1STR    H1G58606  15.315  44.750  16.969
    1STR    H1H58607  15.336  44.748  16.795
    1STR    H1I58608  14.977  44.919  16.962
    1STR    H1J58609  15.128  45.004  16.988
    1STR    H1K58610  15.074  44.994  17.222
    1STR    H1M58611  14.881  44.754  17.223
    1STR    H1N58612  14.848  44.911  17.149
    1STR    H1O58613  14.862  44.897  17.323
    1STR    H1P58614  15.109  44.715  17.342
    1STR    H1Q58615  15.234  44.836  17.328
    1STR   C01058616  15.139  44.830  17.583
    1STR   H01158617  15.139  44.721  17.579
    1STR   C01258618  15.283  44.881  17.601
    1STR   H01358619  15.285  44.990  17.600
    1STR   H01458620  15.350  44.845  17.523
    1STR   H01558621  15.324  44.848  17.696
    1STR   C01658622  15.049  44.873  17.700
    1STR   H01758623  15.046  44.982  17.707
    1STR   H01858624  14.947  44.839  17.681
    1STR   O01958625  15.097  44.817  17.823
    1STR   C02058626  15.024  44.854  17.940
    1STR   H02158627  15.001  44.960  17.938
    1STR   C02258628  14.894  44.772  17.948
    1STR   H02358629  14.914  44.665  17.945
    1STR   H02458630  14.826  44.795  17.866
    1STR   H02558631  14.840  44.793  18.041
    1STR   C02658632  15.113  44.827  18.063
    1STR   H02758633  15.137  44.721  18.069
    1STR   H02858634  15.207  44.881  18.051
    1STR   O02958635  15.046  44.870  18.182
    1STR   C03058636  15.116  44.847  18.304
    1STR   H03158637  15.160  44.747  18.304
    1STR   C03258638  15.225  44.953  18.322
    1STR   H03358639  15.183  45.054  18.318
    1STR   H03458640  15.303  44.946  18.246
    1STR   H03558641  15.274  44.942  18.419
    1STR   C03658642  15.014  44.853  18.420
    1STR   H03758643  14.968  44.952  18.424
    1STR   H03858644  14.934  44.781  18.400
    1STR   O03958645  15.078  44.822  18.543
    1STR   C04058646  14.995  44.828  18.659
    1STR   H04158647  14.932  44.917  18.655
    1STR   C04258648  14.908  44.701  18.668
    1STR   H04358649  14.970  44.611  18.667
    1STR   H04458650  14.837  44.694  18.585
    1STR   H04558651  14.850  44.701  18.760
    1STR   C04658652  15.087  44.841  18.782
    1STR   H04758653  15.151  44.753  18.790
    1STR   H04858654  15.152  44.927  18.769
    1STR   O04958655  15.008  44.856  18.900
    1STR   C05058656  15.081  44.865  19.022
    1STR   H05158657  15.162  44.791  19.023
    1STR   C05258658  15.139  45.007  19.038
    1STR   H05358659  15.060  45.082  19.032
    1STR   H05458660  15.213  45.029  18.961
    1STR   H05558661  15.188  45.017  19.134
    1STR   C05658662  14.984  44.831  19.137
    1STR   H05758663  14.903  44.904  19.140
    1STR   H05858664  14.940  44.733  19.118
    1STR   O05958665  15.056  44.830  19.260
    1STR   C06058666  14.977  44.804  19.376
    1STR   H06158667  14.883  44.859  19.371
    1STR   C06258668  14.948  44.653  19.387
    1STR   H06358669  15.041  44.595  19.387
    1STR   H06458670  14.886  44.617  19.304
    1STR   H06558671  14.895  44.630  19.479
    1STR   C06658672  15.055  44.854  19.498
    1STR   H06758673  15.149  44.800  19.508
    1STR   H06858674  15.080  44.959  19.483
    1STR   O06958675  14.975  44.839  19.616
    1STR   C07058676  15.038  44.878  19.737
    1STR   H07158677  15.142  44.843  19.740
    1STR   C07258678  15.034  45.032  19.750
    1STR   H07358679  14.932  45.069  19.744
    1STR   H07458680  15.094  45.081  19.674
    1STR   H07558681  15.075  45.063  19.847
    1STR   C07658682  14.963  44.810  19.853
    1STR   H07758683  14.859  44.844  19.854
    1STR   H07858684  14.961  44.703  19.835
    1STR   O07958685  15.028  44.840  19.976
    1STR   C08058686  14.965  44.786  20.092
    1STR   H08158687  14.857  44.799  20.086
    1STR   C08258688  14.999  44.636  20.105
    1STR   H08358689  15.106  44.620  20.106
    1STR   H08458690  14.957  44.577  20.024
    1STR   H08558691  14.958  44.596  20.198
    1STR   C08658692  15.016  44.866  20.213
    1STR   H08758693  15.124  44.853  20.223
    1STR   H08858694  14.997  44.972  20.196
    1STR   O08958695  14.949  44.821  20.331
    1STR   C09058696  14.990  44.885  20.451
    1STR   H09158697  15.099  44.894  20.454
    1STR   C09258698  14.925  45.024  20.462
    1STR   H09358699  14.817  45.018  20.455
    1STR   H09458700  14.960  45.092  20.384
    1STR   H09558701  14.949  45.070  20.558
    1STR   C09658702  14.947  44.794  20.568
    1STR   H09758703  14.838  44.784  20.569
    1STR   H09858704  14.988  44.694  20.552
    1STR   O09958705  14.994  44.849  20.691
    1STR   C10058706  14.958  44.776  20.807
    1STR   H10158707  14.853  44.745  20.802
    1STR   C10258708  15.048  44.653  20.823
    1STR   H10358709  15.153  44.681  20.824
    1STR   H10458710  15.034  44.581  20.742
    1STR   H10558711  15.027  44.600  20.916
    1STR   C10658712  14.972  44.871  20.927
    1STR   H10758713  15.076  44.903  20.937
    1STR   H10858714  14.913  44.961  20.909
    1STR   O10958715  14.927  44.806  21.046
    1STR   C11058716  14.939  44.882  21.165
    1STR   H11158717  15.035  44.934  21.168
    1STR   C11258718  14.824  44.984  21.174
    1STR   H11358719  14.727  44.934  21.166
    1STR   H11458720  14.829  45.059  21.095
    1STR   H11558721  14.827  45.037  21.269
    1STR   C11658722  14.935  44.784  21.283
    1STR   H11758723  14.840  44.731  21.285
    1STR   H11858724  15.013  44.708  21.269
    1STR   O11958725  14.956  44.855  21.405
    1STR   C12058726  14.951  44.775  21.523
    1STR   H12158727  14.868  44.705  21.518
    1STR   C12258728  15.083  44.699  21.540
    1STR   H12358729  15.168  44.767  21.541
    1STR   H12458730  15.100  44.626  21.461
    1STR   H12558731  15.084  44.644  21.635
    1STR   C12658732  14.925  44.870  21.641
    1STR   H12758733  15.008  44.941  21.651
    1STR   H12858734  14.835  44.928  21.621
    1STR   O12958735  14.910  44.794  21.761
    1STR   C13058736  14.889  44.871  21.879
    1STR   H13158737  14.957  44.957  21.880
    1STR   C13258738  14.743  44.918  21.886
    1STR   H13358739  14.674  44.834  21.879
    1STR   H13458740  14.719  44.988  21.806
    1STR   H13558741  14.724  44.970  21.980
    1STR   C13658742  14.925  44.781  21.998
    1STR   H13758743  14.858  44.694  22.001
    1STR   H13858744  15.026  44.743  21.985
    1STR   O13958745  14.915  44.856  22.119
    1STR   C14058746  14.941  44.783  22.238
    1STR   H14158747  14.893  44.685  22.234
    1STR   C14258748  15.093  44.766  22.257
    1STR   H14358749  15.144  44.863  22.256
    1STR   H14458750  15.137  44.704  22.179
    1STR   H14558751  15.115  44.718  22.352
    1STR   C14658752  14.879  44.862  22.355
    1STR   H14758753  14.926  44.960  22.363
    1STR   H14858754  14.773  44.879  22.334
    1STR   O14958755  14.895  44.788  22.476
    1STR   C15058756  14.844  44.852  22.593
    1STR   H15158757  14.872  44.957  22.593
    1STR   C15258758  14.692  44.837  22.599
    1STR   H15358759  14.662  44.732  22.594
    1STR   H15458760  14.642  44.890  22.518
    1STR   H15558761  14.653  44.878  22.692
    1STR   C15658762  14.912  44.785  22.714
    1STR   H15758763  14.886  44.679  22.718
    1STR   H15858764  15.020  44.790  22.701
    1STR   O15958765  14.872  44.852  22.833
    1STR   C16058766  14.925  44.797  22.953
    1STR   H16158767  14.920  44.688  22.951
    1STR   C16258768  15.071  44.843  22.972
    1STR   H16358769  15.079  44.951  22.970
    1STR   H16458770  15.137  44.803  22.895
    1STR   H16558771  15.110  44.809  23.068
    1STR   C16658772  14.836  44.846  23.069
    1STR   H16758773  14.840  44.955  23.075
    1STR   H16858774  14.733  44.819  23.047
    1STR   O16958775  14.879  44.786  23.191
    1STR   C17058776  14.807  44.827  23.307
    1STR   H17158777  14.790  44.935  23.305
    1STR   C17258778  14.673  44.752  23.313
    1STR   H17358779  14.688  44.644  23.310
    1STR   H17458780  14.607  44.780  23.231
    1STR   H17558781  14.620  44.776  23.406
    1STR   C17658782  14.895  44.795  23.428
    1STR   H17758783  14.913  44.687  23.434
    1STR   H17858784  14.992  44.842  23.416
    1STR   O17958785  14.831  44.842  23.547
    1STR   C18058786  14.901  44.815  23.668
    1STR   H18158787  14.940  44.713  23.667
    1STR   C18258788  15.016  44.915  23.686
    1STR   H18358789  14.980  45.018  23.682
    1STR   H18458790  15.093  44.904  23.609
    1STR   H18558791  15.065  44.901  23.782
    1STR   C18658792  14.799  44.826  23.783
    1STR   H18758793  14.759  44.928  23.787
    1STR   H18858794  14.715  44.760  23.762
    1STR   O18958795  14.862  44.791  23.906
    1STR   C19058796  14.779  44.801  24.021
    1STR   H19158797  14.720  44.893  24.017
    1STR   C19258798  14.685  44.679  24.029
    1STR   H19358799  14.742  44.586  24.028
    1STR   H19458800  14.614  44.676  23.947
    1STR   H19558801  14.627  44.681  24.121
    1STR   C19658802  14.871  44.808  24.143
    1STR   H19758803  14.931  44.717  24.151
    1STR   H19858804  14.941  44.891  24.130
    1STR   O19958805  14.793  44.828  24.261
    1STR   C20058806  14.867  44.833  24.382
    1STR   H20158807  14.944  44.755  24.383
    1STR   C20258808  14.932  44.971  24.398
    1STR   H20358809  14.858  45.051  24.393
    1STR   H20458810  15.008  44.990  24.322
    1STR   H20558811  14.982  44.980  24.495
    1STR   C20658812  14.769  44.804  24.497
    1STR   H20758813  14.691  44.881  24.500
    1STR   H20858814  14.718  44.709  24.477
    1STR   O20958815  14.840  44.799  24.620
    1STR   C21058816  14.759  44.776  24.735
    1STR   H21158817  14.668  44.837  24.731
    1STR   C21258818  14.722  44.628  24.745
    1STR   H21358819  14.811  44.565  24.746
    1STR   H21458820  14.658  44.595  24.663
    1STR   H21558821  14.668  44.608  24.838
    1STR   C21658822  14.840  44.822  24.858
    1STR   H21758823  14.931  44.763  24.867
    1STR   H21858824  14.871  44.926  24.843
    1STR   O21958825  14.760  44.811  24.975
    1STR   C22058826  14.825  44.847  25.096
    1STR   H22158827  14.926  44.806  25.099
    1STR   C22258828  14.830  45.000  25.110
    1STR   H22358829  14.730  45.043  25.103
    1STR   H22458830  14.891  45.047  25.033
    1STR   H22558831  14.871  45.029  25.206
    1STR   C22658832  14.746  44.783  25.211
    1STR   H22758833  14.644  44.823  25.213
    1STR   H22858834  14.738  44.676  25.193
    1STR   O22958835  14.813  44.808  25.335
    1STR   C23058836  14.747  44.757  25.450
    1STR   H23158837  14.640  44.777  25.445
    1STR   C23258838  14.772  44.606  25.463
    1STR   H23358839  14.879  44.585  25.464
    1STR   H23458840  14.728  44.550  25.381
    1STR   H23558841  14.730  44.568  25.556
    1STR   C23658842  14.802  44.834  25.572
    1STR   H23758843  14.909  44.816  25.582
    1STR   H23858844  14.790  44.941  25.555
    1STR   O23958845  14.733  44.793  25.689
    1STR   C24058846  14.777  44.854  25.810
    1STR   H24158847  14.886  44.857  25.813
    1STR   C24258848  14.720  44.997  25.821
    1STR   H24358849  14.611  44.996  25.814
    1STR   H24458850  14.759  45.063  25.743
    1STR   H24558851  14.746  45.041  25.917
    1STR   C24658852  14.729  44.766  25.926
    1STR   H24758853  14.620  44.762  25.927
    1STR   H24858854  14.765  44.664  25.910
    1STR   O24958855  14.780  44.817  26.049
    1STR   C25058856  14.739  44.746  26.165
    1STR   H25158857  14.633  44.721  26.159
    1STR   C25258858  14.823  44.618  26.180
    1STR   H25358859  14.930  44.641  26.182
    1STR   H25458860  14.805  44.547  26.100
    1STR   H25558861  14.799  44.567  26.274
    1STR   C25658862  14.759  44.840  26.285
    1STR   H25758863  14.864  44.867  26.295
    1STR   H25858864  14.705  44.933  26.266
    1STR   O25958865  14.710  44.777  26.403
    1STR   C26058866  14.726  44.853  26.523
    1STR   H26158867  14.825  44.899  26.526
    1STR   C26258868  14.617  44.961  26.532
    1STR   H26358869  14.518  44.917  26.525
    1STR   H26458870  14.627  45.036  26.453
    1STR   H26558871  14.623  45.014  26.627
    1STR   C26658872  14.717  44.754  26.640
    1STR   H26758873  14.619  44.707  26.642
    1STR   H26858874  14.791  44.675  26.626
    1STR   O26958875  14.742  44.824  26.762
    1STR   C27058876  14.733  44.744  26.880
    1STR   H27158877  14.645  44.679  26.874
    1STR   C27258878  14.860  44.661  26.897
    1STR   H27358879  14.949  44.724  26.899
    1STR   H27458880  14.873  44.587  26.818
    1STR   H27558881  14.858  44.606  26.992
    1STR   C27658882  14.712  44.841  26.998
    1STR   H27758883  14.798  44.907  27.008
    1STR   H27858884  14.625  44.904  26.978
    1STR   O27958885  14.692  44.765  27.117
    1STR   C28058886  14.676  44.842  27.235
    1STR   H28158887  14.748  44.924  27.237
    1STR   C28258888  14.533  44.898  27.243
    1STR   H28358889  14.460  44.817  27.237
    1STR   H28458890  14.512  44.969  27.163
    1STR   H28558891  14.517  44.950  27.338
    1STR   C28658892  14.707  44.750  27.354
    1STR   H28758893  14.636  44.667  27.357
    1STR   H28858894  14.806  44.707  27.341
    1STR   O28958895  14.701  44.825  27.475
    1STR   C29058896  14.723  44.750  27.594
    1STR   H29158897  14.670  44.655  27.589
    1STR   C29258898  14.874  44.725  27.613
    1STR   H29358899  14.929  44.819  27.613
    1STR   H29458900  14.915  44.662  27.535
    1STR   H29558901  14.893  44.675  27.708
    1STR   C29658902  14.665  44.832  27.709
    1STR   H29758903  14.717  44.927  27.718
    1STR   H29858904  14.560  44.854  27.688
    1STR   O29958905  14.676  44.757  27.830
    1STR   C30058906  14.630  44.825  27.946
    1STR   H30158907  14.662  44.929  27.944
    1STR   C30258908  14.477  44.817  27.955
    1STR   H30358909  14.442  44.714  27.952
    1STR   H30458910  14.428  44.871  27.874
    1STR   H30558911  14.441  44.861  28.048
    1STR   C30658912  14.697  44.758  28.067
    1STR   H30758913  14.663  44.655  28.077
    1STR   H30858914  14.805  44.755  28.051
    1STR   O30958915  14.666  44.835  28.183
    1STR    H1R58916  14.701  44.676  28.311
    1STR    H1S58917  14.908  44.779  28.412
    1STR    H1T58918  14.885  44.922  28.314
    1STR    H1U58919  14.926  44.769  28.238
    1STR    H1V58920  14.530  44.838  28.396
    1STR    H1W58921  14.653  44.959  28.420
    1STR    H1X58922  14.690  44.687  28.723
    1STR    H1Y58923  14.737  44.581  28.918
    1STR    H1Z58924  14.861  44.568  29.128
    1STR    H2058925  15.150  44.757  29.205
    1STR    H2158926  15.012  44.801  29.307
    1STR    H2258927  15.040  44.634  29.263
    1STR    H2358928  15.140  44.996  28.989
    1STR    H2758929  14.921  44.963  28.832
    1STR    H2858930  15.064  44.665  16.397
    1STR    H2958931  15.031  44.620  16.162
    1STR    H2A58932  14.959  44.868  15.907
    1STR    H2B58933  14.966  44.697  15.945
    1STR    H2C58934  15.113  44.781  15.896
    1STR   BCK158935  15.117  45.191  30.972
    1STR    O0358936  15.067  45.297  30.934
    1STR    N0458937  15.165  45.169  31.095
    1STR    C0558938  15.197  45.266  31.189
    1STR    C0658939  15.155  45.253  31.324
    1STR    C0758940  15.193  45.346  31.424
    1STR    N0858941  15.155  45.326  31.558
    1STR    C0958942  15.196  45.389  31.669
    1STR    O0A58943  15.277  45.481  31.672
    1STR    O0B58944  15.137  45.339  31.781
    1STR    C0C58945  15.161  45.404  31.907
    1STR    C0D58946  15.062  45.521  31.922
    1STR    C0E58947  15.151  45.305  32.025
    1STR    O0F58948  15.184  45.375  32.145
    1STR    C0G58949  15.186  45.298  32.265
    1STR    C0H58950  15.316  45.216  32.272
    1STR    C0I58951  15.175  45.396  32.384
    1STR    O0J58952  15.167  45.322  32.506
    1STR    C0K58953  15.521  45.159  43.342
    1STR    C0M58954  15.383  45.226  43.360
    1STR    C0N58955  15.553  45.060  43.456
    1STR    O0O58956  15.575  45.130  43.578
    1STR    C0P58957  15.477  45.139  43.668
    1STR    O0Q58958  15.366  45.089  43.657
    1STR    N0R58959  15.519  45.214  43.770
    1STR    C0S58960  15.453  45.252  43.887
    1STR    C0T58961  15.509  45.356  43.964
    1STR    C0U58962  15.447  45.399  44.083
    1STR    C0V58963  15.328  45.338  44.128
    1STR    C0W58964  15.261  45.388  44.255
    1STR    C0X58965  15.273  45.231  44.054
    1STR    N0Y58966  15.159  45.165  44.098
    1STR   BCK258967  15.153  45.076  44.198
    1STR    O1058968  15.046  45.025  44.229
    1STR    C1358969  15.334  45.190  43.934
    1STR    C1458970  15.272  45.456  31.384
    1STR    C1558971  15.317  45.469  31.252
    1STR    C1658972  15.284  45.373  31.155
    1STR    C1758973  15.348  45.387  31.017
    1STR    H1B58974  15.190  45.074  31.114
    1STR    H1C58975  15.092  45.169  31.350
    1STR    H1D58976  15.089  45.253  31.578
    1STR    H1E58977  15.263  45.443  31.909
    1STR    H1F58978  14.959  45.486  31.923
    1STR    H1G58979  15.080  45.575  32.015
    1STR    H1H58980  15.073  45.592  31.840
    1STR    H1I58981  15.220  45.222  32.008
    1STR    H1J58982  15.050  45.263  32.031
    1STR    H1K58983  15.099  45.231  32.268
    1STR    H1M58984  15.403  45.281  32.265
    1STR    H1N58985  15.323  45.142  32.193
    1STR    H1O58986  15.322  45.163  32.367
    1STR    H1P58987  15.261  45.463  32.385
    1STR    H1Q58988  15.086  45.458  32.371
    1STR   C01058989  15.162  45.400  32.625
    1STR   H01158990  15.236  45.480  32.621
    1STR   C01258991  15.022  45.459  32.644
    1STR   H01358992  14.946  45.381  32.643
    1STR   H01458993  14.997  45.531  32.566
    1STR   H01558994  15.014  45.512  32.739
    1STR   C01658995  15.200  45.308  32.743
    1STR   H01758996  15.128  45.226  32.750
    1STR   H01858997  15.297  45.263  32.723
    1STR   O01958998  15.202  45.382  32.865
    1STR   C02058999  15.232  45.305  32.982
    1STR   H02159000  15.177  45.211  32.980
    1STR   C02259001  15.383  45.277  32.990
    1STR   H02359002  15.440  45.370  32.987
    1STR   H02459003  15.417  45.214  32.908
    1STR   H02559004  15.408  45.226  33.082
    1STR   C02659005  15.184  45.385  33.105
    1STR   H02759006  15.238  45.480  33.111
    1STR   H02859007  15.079  45.409  33.093
    1STR   O02959008  15.205  45.308  33.224
    1STR   C03059009  15.168  45.372  33.346
    1STR   H03159010  15.203  45.476  33.345
    1STR   C03259011  15.016  45.368  33.363
    1STR   H03359012  14.979  45.266  33.359
    1STR   H03459013  14.964  45.426  33.287
    1STR   H03559014  14.987  45.410  33.460
    1STR   C03659015  15.240  45.299  33.461
    1STR   H03759016  15.207  45.195  33.465
    1STR   H03859017  15.347  45.298  33.441
    1STR   O03959018  15.213  45.366  33.584
    1STR   C04059019  15.271  45.305  33.700
    1STR   H04159020  15.258  45.197  33.696
    1STR   C04259021  15.420  45.340  33.708
    1STR   H04359022  15.435  45.448  33.708
    1STR   H04459023  15.477  45.297  33.626
    1STR   H04559024  15.463  45.301  33.801
    1STR   C04659025  15.194  45.358  33.823
    1STR   H04759026  15.206  45.466  33.831
    1STR   H04859027  15.088  45.338  33.809
    1STR   O04959028  15.242  45.293  33.940
    1STR   C05059029  15.182  45.336  34.062
    1STR   H05159030  15.172  45.444  34.064
    1STR   C05259031  15.044  45.270  34.078
    1STR   H05359032  15.051  45.162  34.072
    1STR   H05459033  14.973  45.304  34.002
    1STR   H05559034  15.000  45.296  34.175
    1STR   C05659035  15.276  45.295  34.177
    1STR   H05759036  15.287  45.187  34.180
    1STR   H05859037  15.375  45.337  34.158
    1STR   O05959038  15.224  45.344  34.301
    1STR   C06059039  15.301  45.310  34.416
    1STR   H06159040  15.332  45.206  34.411
    1STR   C06259041  15.423  45.402  34.427
    1STR   H06359042  15.394  45.507  34.427
    1STR   H06459043  15.493  45.387  34.345
    1STR   H06559044  15.478  45.383  34.519
    1STR   C06659045  15.209  45.326  34.538
    1STR   H06759046  15.176  45.430  34.548
    1STR   H06859047  15.119  45.265  34.523
    1STR   O06959048  15.278  45.284  34.656
    1STR   C07059049  15.205  45.297  34.777
    1STR   H07159050  15.152  45.393  34.780
    1STR   C07259051  15.104  45.182  34.791
    1STR   H07359052  15.154  45.085  34.784
    1STR   H07459053  15.027  45.185  34.714
    1STR   H07559054  15.053  45.186  34.887
    1STR   C07659055  15.306  45.296  34.893
    1STR   H07759056  15.360  45.201  34.895
    1STR   H07859057  15.381  45.374  34.875
    1STR   O07959058  15.239  45.318  35.016
    1STR   C08059059  15.321  45.316  35.132
    1STR   H08159060  15.392  45.233  35.126
    1STR   C08259061  15.397  45.449  35.145
    1STR   H08359062  15.328  45.533  35.146
    1STR   H08459063  15.468  45.464  35.064
    1STR   H08559064  15.454  45.452  35.238
    1STR   C08659065  15.230  45.291  35.253
    1STR   H08759066  15.159  45.373  35.263
    1STR   H08859067  15.172  45.201  35.236
    1STR   O08959068  15.309  45.279  35.371
    1STR   C09059069  15.236  45.260  35.492
    1STR   H09159070  15.150  45.326  35.494
    1STR   C09259071  15.190  45.113  35.502
    1STR   H09359072  15.274  45.045  35.495
    1STR   H09459073  15.118  45.087  35.425
    1STR   H09559074  15.141  45.095  35.598
    1STR   C09659075  15.329  45.298  35.608
    1STR   H09759076  15.416  45.232  35.609
    1STR   H09859077  15.366  45.399  35.592
    1STR   O09959078  15.257  45.289  35.731
    1STR   C10059079  15.333  45.318  35.848
    1STR   H10159080  15.431  45.271  35.842
    1STR   C10259081  15.349  45.471  35.863
    1STR   H10359082  15.252  45.520  35.864
    1STR   H10459083  15.408  45.514  35.782
    1STR   H10559084  15.400  45.495  35.956
    1STR   C10659085  15.258  45.258  35.967
    1STR   H10759086  15.160  45.304  35.978
    1STR   H10859087  15.242  45.151  35.948
    1STR   O10959088  15.336  45.276  36.086
    1STR   C11059089  15.275  45.227  36.205
    1STR   H11159090  15.169  45.254  36.208
    1STR   C11259091  15.292  45.075  36.214
    1STR   H11359092  15.396  45.046  36.206
    1STR   H11459093  15.237  45.023  36.135
    1STR   H11559094  15.253  45.037  36.308
    1STR   C11659095  15.345  45.297  36.323
    1STR   H11759096  15.451  45.271  36.325
    1STR   H11859097  15.338  45.405  36.309
    1STR   O11959098  15.281  45.259  36.445
    1STR   C12059099  15.339  45.314  36.563
    1STR   H12159100  15.448  45.310  36.558
    1STR   C12259101  15.293  45.460  36.580
    1STR   H12359102  15.184  45.467  36.581
    1STR   H12459103  15.330  45.525  36.501
    1STR   H12559104  15.329  45.501  36.675
    1STR   C12659105  15.293  45.227  36.681
    1STR   H12759106  15.185  45.230  36.691
    1STR   H12859107  15.321  45.123  36.661
    1STR   O12959108  15.356  45.273  36.801
    1STR   C13059109  15.319  45.202  36.919
    1STR   H13159110  15.212  45.184  36.920
    1STR   C13259111  15.395  45.068  36.926
    1STR   H13359112  15.503  45.084  36.919
    1STR   H13459113  15.366  45.001  36.845
    1STR   H13559114  15.375  45.017  37.020
    1STR   C13659115  15.354  45.292  37.038
    1STR   H13759116  15.462  45.311  37.041
    1STR   H13859117  15.305  45.389  37.025
    1STR   O13959118  15.311  45.230  37.159
    1STR   C14059119  15.340  45.302  37.278
    1STR   H14159120  15.442  45.341  37.274
    1STR   C14259121  15.240  45.417  37.297
    1STR   H14359122  15.137  45.380  37.296
    1STR   H14459123  15.249  45.492  37.219
    1STR   H14559124  15.256  45.467  37.392
    1STR   C14659125  15.333  45.202  37.395
    1STR   H14759126  15.232  45.161  37.403
    1STR   H14859127  15.400  45.118  37.374
    1STR   O14959128  15.372  45.267  37.516
    1STR   C15059129  15.366  45.186  37.633
    1STR   H15159130  15.274  45.127  37.633
    1STR   C15259131  15.488  45.093  37.639
    1STR   H15359132  15.581  45.151  37.634
    1STR   H15459133  15.489  45.021  37.558
    1STR   H15559134  15.489  45.037  37.732
    1STR   C15659135  15.361  45.281  37.754
    1STR   H15759136  15.452  45.341  37.758
    1STR   H15859137  15.277  45.350  37.741
    1STR   O15959138  15.345  45.204  37.873
    1STR   C16059139  15.343  45.280  37.993
    1STR   H16159140  15.420  45.357  37.991
    1STR   C16259141  15.204  45.345  38.012
    1STR   H16359142  15.125  45.270  38.010
    1STR   H16459143  15.183  45.419  37.935
    1STR   H16559144  15.199  45.397  38.108
    1STR   C16659145  15.375  45.184  38.109
    1STR   H16759146  15.299  45.107  38.115
    1STR   H16859147  15.470  45.134  38.087
    1STR   O16959148  15.384  45.257  38.231
    1STR   C17059149  15.410  45.179  38.347
    1STR   H17159150  15.349  45.088  38.345
    1STR   C17259151  15.559  45.143  38.353
    1STR   H17359152  15.621  45.233  38.350
    1STR   H17459153  15.590  45.078  38.271
    1STR   H17559154  15.582  45.090  38.446
    1STR   C17659155  15.366  45.262  38.468
    1STR   H17759156  15.426  45.353  38.474
    1STR   H17859157  15.262  45.292  38.456
    1STR   O17959158  15.382  45.184  38.587
    1STR   C18059159  15.349  45.251  38.708
    1STR   H18159160  15.389  45.352  38.707
    1STR   C18259161  15.196  45.255  38.726
    1STR   H18359162  15.153  45.155  38.722
    1STR   H18459163  15.147  45.315  38.649
    1STR   H18559164  15.169  45.298  38.822
    1STR   C18659165  15.416  45.174  38.823
    1STR   H18759166  15.377  45.072  38.827
    1STR   H18859167  15.523  45.166  38.802
    1STR   O18959168  15.394  45.242  38.945
    1STR   C19059169  15.448  45.179  39.061
    1STR   H19159170  15.429  45.072  39.057
    1STR   C19259171  15.600  45.206  39.069
    1STR   H19359172  15.621  45.313  39.068
    1STR   H19459173  15.654  45.160  38.986
    1STR   H19559174  15.641  45.165  39.161
    1STR   C19659175  15.375  45.236  39.183
    1STR   H19759176  15.393  45.343  39.191
    1STR   H19859177  15.268  45.223  39.170
    1STR   O19959178  15.419  45.169  39.301
    1STR   C20059179  15.361  45.215  39.422
    1STR   H20159180  15.358  45.324  39.423
    1STR   C20259181  15.220  45.157  39.438
    1STR   H20359182  15.221  45.048  39.433
    1STR   H20459183  15.151  45.194  39.362
    1STR   H20559184  15.177  45.185  39.535
    1STR   C20659185  15.453  45.170  39.537
    1STR   H20759186  15.458  45.061  39.540
    1STR   H20859187  15.554  45.206  39.517
    1STR   O20959188  15.405  45.222  39.660
    1STR   C21059189  15.479  45.184  39.775
    1STR   H21159190  15.505  45.078  39.771
    1STR   C21259191  15.607  45.269  39.785
    1STR   H21359192  15.584  45.375  39.786
    1STR   H21459193  15.676  45.250  39.703
    1STR   H21559194  15.661  45.246  39.878
    1STR   C21659195  15.388  45.205  39.897
    1STR   H21759196  15.362  45.310  39.907
    1STR   H21859197  15.295  45.149  39.882
    1STR   O21959198  15.455  45.159  40.015
    1STR   C22059199  15.383  45.176  40.136
    1STR   H22159200  15.336  45.275  40.138
    1STR   C22259201  15.276  45.066  40.150
    1STR   H22359202  15.321  44.967  40.143
    1STR   H22459203  15.199  45.074  40.073
    1STR   H22559204  15.226  45.073  40.246
    1STR   C22659205  15.485  45.170  40.251
    1STR   H22759206  15.533  45.072  40.253
    1STR   H22859207  15.563  45.244  40.233
    1STR   O22959208  15.418  45.196  40.375
    1STR   C23059209  15.501  45.189  40.490
    1STR   H23159210  15.567  45.103  40.485
    1STR   C23259211  15.584  45.318  40.503
    1STR   H23359212  15.520  45.406  40.504
    1STR   H23459213  15.655  45.330  40.422
    1STR   H23559214  15.641  45.318  40.596
    1STR   C23659215  15.408  45.170  40.611
    1STR   H23759216  15.342  45.256  40.622
    1STR   H23859217  15.346  45.083  40.595
    1STR   O23959218  15.487  45.153  40.729
    1STR   C24059219  15.413  45.138  40.850
    1STR   H24159220  15.331  45.210  40.853
    1STR   C24259221  15.359  44.995  40.861
    1STR   H24359222  15.440  44.922  40.853
    1STR   H24459223  15.286  44.972  40.783
    1STR   H24559224  15.309  44.980  40.957
    1STR   C24659225  15.508  45.171  40.966
    1STR   H24759226  15.591  45.101  40.967
    1STR   H24859227  15.551  45.270  40.950
    1STR   O24959228  15.436  45.167  41.089
    1STR   C25059229  15.514  45.192  41.205
    1STR   H25159230  15.609  45.139  41.199
    1STR   C25259231  15.538  45.343  41.220
    1STR   H25359232  15.444  45.398  41.222
    1STR   H25459233  15.600  45.384  41.140
    1STR   H25559234  15.591  45.365  41.314
    1STR   C25659235  15.436  45.136  41.325
    1STR   H25759236  15.341  45.188  41.335
    1STR   H25859237  15.413  45.031  41.306
    1STR   O25959238  15.514  45.150  41.443
    1STR   C26059239  15.451  45.105  41.562
    1STR   H26159240  15.347  45.137  41.565
    1STR   C26259241  15.459  44.951  41.571
    1STR   H26359242  15.562  44.917  41.564
    1STR   H26459243  15.402  44.903  41.493
    1STR   H26559244  15.419  44.916  41.667
    1STR   C26659245  15.525  45.171  41.680
    1STR   H26759246  15.629  45.140  41.682
    1STR   H26859247  15.524  45.280  41.665
    1STR   O26959248  15.459  45.137  41.802
    1STR   C27059249  15.520  45.189  41.919
    1STR   H27159250  15.629  45.179  41.914
    1STR   C27259251  15.482  45.337  41.937
    1STR   H27359252  15.374  45.350  41.938
    1STR   H27459253  15.523  45.400  41.857
    1STR   H27559254  15.521  45.376  42.031
    1STR   C27659255  15.470  45.104  42.037
    1STR   H27759256  15.362  45.114  42.047
    1STR   H27859257  15.492  44.999  42.017
    1STR   O27959258  15.536  45.146  42.156
    1STR   C28059259  15.496  45.079  42.274
    1STR   H28159260  15.387  45.067  42.276
    1STR   C28259261  15.564  44.941  42.282
    1STR   H28359262  15.673  44.951  42.276
    1STR   H28459263  15.532  44.875  42.202
    1STR   H28559264  15.541  44.892  42.376
    1STR   C28659265  15.535  45.168  42.393
    1STR   H28759266  15.644  45.181  42.395
    1STR   H28859267  15.491  45.267  42.379
    1STR   O28959268  15.488  45.108  42.513
    1STR   C29059269  15.523  45.179  42.632
    1STR   H29159270  15.627  45.212  42.627
    1STR   C29259271  15.429  45.299  42.652
    1STR   H29359272  15.325  45.267  42.652
    1STR   H29459273  15.441  45.373  42.573
    1STR   H29559274  15.450  45.348  42.747
    1STR   C29659275  15.511  45.078  42.748
    1STR   H29759276  15.408  45.044  42.757
    1STR   H29859277  15.572  44.991  42.726
    1STR   O29959278  15.555  45.141  42.867
    1STR   C30059279  15.543  45.061  42.984
    1STR   H30159280  15.449  45.007  42.984
    1STR   C30259281  15.661  44.963  42.992
    1STR   H30359282  15.757  45.015  42.989
    1STR   H30459283  15.659  44.890  42.911
    1STR   H30559284  15.658  44.906  43.086
    1STR   C30659285  15.542  45.158  43.104
    1STR   H30759286  15.636  45.213  43.108
    1STR   H30859287  15.463  45.231  43.090
    1STR   O30959288  15.522  45.083  43.223
    1STR    H1R59289  15.600  45.234  43.340
    1STR    H1S59290  15.379  45.283  43.452
    1STR    H1T59291  15.304  45.152  43.364
    1STR    H1U59292  15.360  45.295  43.279
    1STR    H1V59293  15.644  45.006  43.432
    1STR    H1W59294  15.475  44.984  43.465
    1STR    H1X59295  15.613  45.247  43.755
    1STR    H1Y59296  15.600  45.404  43.933
    1STR    H1Z59297  15.491  45.479  44.140
    1STR    H2059298  15.152  45.386  44.244
    1STR    H2159299  15.288  45.324  44.339
    1STR    H2259300  15.290  45.490  44.278
    1STR    H2359301  15.072  45.177  44.048
    1STR    H2759302  15.290  45.107  43.880
    1STR    H2859303  15.303  45.534  31.452
    1STR    H2959304  15.381  45.553  31.226
    1STR    H2A59305  15.373  45.289  30.976
    1STR    H2B59306  15.440  45.444  31.022
    1STR    H2C59307  15.280  45.437  30.949
    1STR   BCK159308  15.043  45.127  46.011
    1STR    O0359309  15.016  45.018  45.962
    1STR    N0459310  14.999  45.171  46.130
    1STR    C0559311  14.899  45.118  46.214
    1STR    C0659312  14.924  45.104  46.354
    1STR    C0759313  14.822  45.063  46.445
    1STR    N0859314  14.849  45.054  46.584
    1STR    C0959315  14.766  45.032  46.688
    1STR    O0A59316  14.645  45.015  46.679
    1STR    O0B59317  14.833  45.031  46.807
    1STR    C0C59318  14.763  45.000  46.929
    1STR    C0D59319  14.751  44.848  46.943
    1STR    C0E59320  14.831  45.063  47.053
    1STR    O0F59321  14.758  45.031  47.172
    1STR    C0G59322  14.809  45.086  47.295
    1STR    C0H59323  14.770  45.234  47.304
    1STR    C0I59324  14.752  45.007  47.415
    1STR    O0J59325  14.807  45.057  47.538
    1STR    C0K59326  14.672  45.409  58.394
    1STR    C0M59327  14.721  45.264  58.403
    1STR    C0N59328  14.727  45.495  58.509
    1STR    O0O59329  14.674  45.453  58.635
    1STR    C0P59330  14.749  45.385  58.723
    1STR    O0Q59331  14.865  45.349  58.705
    1STR    N0R59332  14.676  45.362  58.832
    1STR    C0S59333  14.704  45.294  58.951
    1STR    C0T59334  14.597  45.277  59.041
    1STR    C0U59335  14.615  45.205  59.161
    1STR    C0V59336  14.740  45.150  59.194
    1STR    C0W59337  14.750  45.065  59.320
    1STR    C0X59338  14.851  45.171  59.108
    1STR    N0Y59339  14.976  45.116  59.135
    1STR   BCK259340  15.049  45.126  59.247
    1STR    O1059341  15.020  45.197  59.343
    1STR    C1359342  14.831  45.241  58.986
    1STR    C1459343  14.694  45.035  46.391
    1STR    C1559344  14.668  45.051  46.254
    1STR    C1659345  14.768  45.095  46.165
    1STR    C1759346  14.730  45.121  46.021
    1STR    H1B59347  15.042  45.256  46.160
    1STR    H1C59348  15.022  45.125  46.391
    1STR    H1D59349  14.944  45.066  46.614
    1STR    H1E59350  14.662  45.043  46.924
    1STR    H1F59351  14.849  44.800  46.950
    1STR    H1G59352  14.696  44.821  47.033
    1STR    H1H59353  14.698  44.804  46.858
    1STR    H1I59354  14.837  45.171  47.039
    1STR    H1J59355  14.934  45.027  47.061
    1STR    H1K59356  14.918  45.076  47.297
    1STR    H1M59357  14.661  45.247  47.298
    1STR    H1N59358  14.815  45.295  47.226
    1STR    H1O59359  14.802  45.277  47.399
    1STR    H1P59360  14.643  45.015  47.417
    1STR    H1Q59361  14.776  44.901  47.403
    1STR   C01059362  14.759  44.996  47.658
    1STR   H01159363  14.650  44.987  47.654
    1STR   C01259364  14.823  44.858  47.676
    1STR   H01359365  14.932  44.864  47.676
    1STR   H01459366  14.793  44.788  47.599
    1STR   H01559367  14.793  44.814  47.772
    1STR   C01659368  14.794  45.089  47.777
    1STR   H01759369  14.902  45.102  47.783
    1STR   H01859370  14.752  45.188  47.758
    1STR   O01959371  14.744  45.036  47.900
    1STR   C02059372  14.774  45.112  48.017
    1STR   H02159373  14.878  45.144  48.015
    1STR   C02259374  14.682  45.235  48.025
    1STR   H02359375  14.577  45.206  48.023
    1STR   H02459376  14.699  45.305  47.944
    1STR   H02559377  14.698  45.290  48.118
    1STR   C02659378  14.755  45.022  48.141
    1STR   H02759379  14.652  44.988  48.147
    1STR   H02859380  14.817  44.933  48.129
    1STR   O02959381  14.791  45.093  48.260
    1STR   C03059382  14.775  45.021  48.382
    1STR   H03159383  14.679  44.968  48.382
    1STR   C03259384  14.890  44.921  48.401
    1STR   H03359385  14.987  44.971  48.397
    1STR   H03459386  14.890  44.843  48.325
    1STR   H03559387  14.883  44.871  48.497
    1STR   C03659388  14.771  45.123  48.498
    1STR   H03759389  14.866  45.177  48.502
    1STR   H03859390  14.693  45.196  48.478
    1STR   O03959391  14.747  45.056  48.622
    1STR   C04059392  14.745  45.139  48.738
    1STR   H04159393  14.828  45.210  48.734
    1STR   C04259394  14.611  45.214  48.746
    1STR   H04359395  14.527  45.145  48.746
    1STR   H04459396  14.598  45.285  48.664
    1STR   H04559397  14.606  45.272  48.839
    1STR   C04659398  14.766  45.049  48.861
    1STR   H04759399  14.685  44.977  48.869
    1STR   H04859400  14.858  44.992  48.848
    1STR   O04959401  14.774  45.129  48.979
    1STR   C05059402  14.789  45.057  49.101
    1STR   H05159403  14.723  44.970  49.102
    1STR   C05259404  14.936  45.012  49.117
    1STR   H05359405  15.004  45.096  49.111
    1STR   H05459406  14.965  44.940  49.041
    1STR   H05559407  14.951  44.964  49.214
    1STR   C05659408  14.747  45.150  49.216
    1STR   H05759409  14.812  45.238  49.219
    1STR   H05859410  14.646  45.186  49.197
    1STR   O05959411  14.753  45.079  49.340
    1STR   C06059412  14.720  45.156  49.455
    1STR   H06159413  14.767  45.254  49.450
    1STR   C06259414  14.567  45.171  49.466
    1STR   H06359415  14.518  45.074  49.467
    1STR   H06459416  14.525  45.229  49.384
    1STR   H06559417  14.540  45.222  49.559
    1STR   C06659418  14.777  45.082  49.578
    1STR   H06759419  14.731  44.984  49.587
    1STR   H06859420  14.884  45.066  49.563
    1STR   O06959421  14.754  45.160  49.695
    1STR   C07059422  14.799  45.101  49.817
    1STR   H07159423  14.773  44.995  49.819
    1STR   C07259424  14.951  45.118  49.830
    1STR   H07359425  14.980  45.223  49.823
    1STR   H07459426  15.006  45.063  49.754
    1STR   H07559427  14.986  45.081  49.927
    1STR   C07659428  14.725  45.170  49.932
    1STR   H07759429  14.750  45.276  49.934
    1STR   H07859430  14.617  45.162  49.915
    1STR   O07959431  14.760  45.108  50.056
    1STR   C08059432  14.701  45.166  50.172
    1STR   H08159433  14.704  45.275  50.166
    1STR   C08259434  14.555  45.119  50.185
    1STR   H08359435  14.549  45.010  50.186
    1STR   H08459436  14.492  45.155  50.104
    1STR   H08559437  14.511  45.155  50.278
    1STR   C08659438  14.785  45.122  50.293
    1STR   H08759439  14.782  45.013  50.303
    1STR   H08859440  14.889  45.150  50.276
    1STR   O08959441  14.735  45.185  50.411
    1STR   C09059442  14.801  45.150  50.531
    1STR   H09159443  14.820  45.042  50.534
    1STR   C09259444  14.934  45.226  50.542
    1STR   H09359445  14.918  45.334  50.535
    1STR   H09459446  15.005  45.197  50.464
    1STR   H09559447  14.982  45.206  50.638
    1STR   C09659448  14.707  45.184  50.648
    1STR   H09759449  14.688  45.292  50.649
    1STR   H09859450  14.611  45.135  50.632
    1STR   O09959451  14.766  45.142  50.771
    1STR   C10059452  14.690  45.172  50.887
    1STR   H10159453  14.650  45.273  50.882
    1STR   C10259454  14.575  45.071  50.903
    1STR   H10359455  14.613  44.969  50.904
    1STR   H10459456  14.502  45.079  50.822
    1STR   H10559457  14.521  45.087  50.996
    1STR   C10659458  14.786  45.166  51.007
    1STR   H10759459  14.827  45.065  51.017
    1STR   H10859460  14.870  45.233  50.989
    1STR   O10959461  14.717  45.205  51.126
    1STR   C11059462  14.794  45.200  51.245
    1STR   H11159463  14.854  45.109  51.248
    1STR   C11259464  14.886  45.323  51.254
    1STR   H11359465  14.828  45.416  51.247
    1STR   H11459466  14.961  45.325  51.175
    1STR   H11559467  14.939  45.325  51.349
    1STR   C11659468  14.696  45.195  51.363
    1STR   H11759469  14.635  45.286  51.365
    1STR   H11859470  14.628  45.111  51.349
    1STR   O11959471  14.768  45.180  51.485
    1STR   C12059472  14.689  45.178  51.603
    1STR   H12159473  14.611  45.255  51.598
    1STR   C12259474  14.624  45.040  51.620
    1STR   H12359475  14.700  44.961  51.621
    1STR   H12459476  14.553  45.017  51.541
    1STR   H12559477  14.570  45.034  51.715
    1STR   C12659478  14.781  45.212  51.721
    1STR   H12759479  14.859  45.137  51.731
    1STR   H12859480  14.831  45.307  51.701
    1STR   O12959481  14.704  45.221  51.841
    1STR   C13059482  14.779  45.248  51.959
    1STR   H13159483  14.870  45.189  51.960
    1STR   C13259484  14.813  45.398  51.966
    1STR   H13359485  14.723  45.459  51.959
    1STR   H13459486  14.880  45.429  51.885
    1STR   H13559487  14.863  45.422  52.060
    1STR   C13659488  14.692  45.205  52.078
    1STR   H13759489  14.600  45.264  52.081
    1STR   H13859490  14.663  45.101  52.065
    1STR   O13959491  14.766  45.222  52.199
    1STR   C14059492  14.696  45.189  52.318
    1STR   H14159493  14.594  45.229  52.314
    1STR   C14259494  14.692  45.036  52.337
    1STR   H14359495  14.793  44.994  52.336
    1STR   H14459496  14.635  44.987  52.259
    1STR   H14559497  14.646  45.010  52.432
    1STR   C14659498  14.769  45.258  52.435
    1STR   H14759499  14.870  45.219  52.443
    1STR   H14859500  14.776  45.365  52.414
    1STR   O14959501  14.696  45.236  52.556
    1STR   C15059502  14.755  45.291  52.673
    1STR   H15159503  14.863  45.273  52.673
    1STR   C15259504  14.727  45.442  52.679
    1STR   H15359505  14.620  45.463  52.674
    1STR   H15459506  14.776  45.497  52.598
    1STR   H15559507  14.765  45.485  52.772
    1STR   C15659508  14.695  45.218  52.794
    1STR   H15759509  14.587  45.235  52.798
    1STR   H15859510  14.710  45.111  52.781
    1STR   O15959511  14.758  45.264  52.913
    1STR   C16059512  14.708  45.206  53.033
    1STR   H16159513  14.599  45.202  53.031
    1STR   C16259514  14.766  45.065  53.052
    1STR   H16359515  14.875  45.067  53.050
    1STR   H16459516  14.732  44.996  52.975
    1STR   H16559517  14.736  45.023  53.148
    1STR   C16659518  14.750  45.299  53.149
    1STR   H16759519  14.858  45.305  53.155
    1STR   H16859520  14.714  45.400  53.127
    1STR   O16959521  14.694  45.251  53.271
    1STR   C17059522  14.728  45.326  53.387
    1STR   H17159523  14.834  45.353  53.385
    1STR   C17259524  14.642  45.454  53.393
    1STR   H17359525  14.535  45.429  53.390
    1STR   H17459526  14.663  45.522  53.311
    1STR   H17559527  14.661  45.508  53.486
    1STR   C17659528  14.704  45.236  53.508
    1STR   H17759529  14.598  45.209  53.514
    1STR   H17859530  14.760  45.143  53.496
    1STR   O17959531  14.745  45.304  53.627
    1STR   C18059532  14.724  45.232  53.748
    1STR   H18159533  14.626  45.185  53.747
    1STR   C18259534  14.834  45.126  53.766
    1STR   H18359535  14.933  45.171  53.762
    1STR   H18459536  14.829  45.049  53.689
    1STR   H18559537  14.824  45.076  53.862
    1STR   C18659538  14.726  45.335  53.863
    1STR   H18759539  14.824  45.383  53.867
    1STR   H18859540  14.653  45.412  53.842
    1STR   O18959541  14.696  45.269  53.985
    1STR   C19059542  14.699  45.353  54.101
    1STR   H19159543  14.786  45.419  54.097
    1STR   C19259544  14.569  45.435  54.109
    1STR   H19359545  14.482  45.370  54.108
    1STR   H19459546  14.560  45.506  54.026
    1STR   H19559547  14.566  45.493  54.201
    1STR   C19659548  14.715  45.261  54.223
    1STR   H19759549  14.629  45.194  54.231
    1STR   H19859550  14.803  45.198  54.210
    1STR   O19959551  14.727  45.340  54.341
    1STR   C20059552  14.739  45.267  54.462
    1STR   H20159553  14.668  45.184  54.463
    1STR   C20259554  14.882  45.214  54.478
    1STR   H20359555  14.955  45.295  54.473
    1STR   H20459556  14.908  45.141  54.402
    1STR   H20559557  14.895  45.165  54.575
    1STR   C20659558  14.702  45.363  54.577
    1STR   H20759559  14.772  45.446  54.580
    1STR   H20859560  14.603  45.404  54.557
    1STR   O20959561  14.702  45.291  54.700
    1STR   C21059562  14.673  45.370  54.815
    1STR   H21159563  14.726  45.465  54.811
    1STR   C21259564  14.521  45.393  54.826
    1STR   H21359565  14.467  45.299  54.826
    1STR   H21459566  14.483  45.454  54.743
    1STR   H21559567  14.497  45.446  54.918
    1STR   C21659568  14.726  45.293  54.938
    1STR   H21759569  14.674  45.197  54.947
    1STR   H21859570  14.832  45.271  54.922
    1STR   O21959571  14.708  45.372  55.055
    1STR   C22059572  14.749  45.310  55.176
    1STR   H22159573  14.717  45.206  55.179
    1STR   C22259574  14.902  45.319  55.190
    1STR   H22359575  14.936  45.422  55.183
    1STR   H22459576  14.954  45.262  55.113
    1STR   H22559577  14.935  45.280  55.286
    1STR   C22659578  14.679  45.383  55.291
    1STR   H22759579  14.709  45.488  55.293
    1STR   H22859580  14.571  45.382  55.274
    1STR   O22959581  14.710  45.319  55.415
    1STR   C23059582  14.653  45.380  55.530
    1STR   H23159583  14.663  45.489  55.525
    1STR   C23259584  14.505  45.342  55.543
    1STR   H23359585  14.493  45.233  55.544
    1STR   H23459586  14.445  45.381  55.462
    1STR   H23559587  14.463  45.381  55.636
    1STR   C23659588  14.734  45.332  55.652
    1STR   H23759589  14.725  45.224  55.662
    1STR   H23859590  14.840  45.354  55.635
    1STR   O23959591  14.688  45.398  55.769
    1STR   C24059592  14.753  45.359  55.890
    1STR   H24159593  14.765  45.250  55.893
    1STR   C24259594  14.889  45.428  55.901
    1STR   H24359595  14.879  45.536  55.894
    1STR   H24459596  14.958  45.395  55.823
    1STR   H24559597  14.936  45.406  55.997
    1STR   C24659598  14.660  45.399  56.006
    1STR   H24759599  14.646  45.507  56.008
    1STR   H24859600  14.562  45.354  55.990
    1STR   O24959601  14.716  45.353  56.129
    1STR   C25059602  14.642  45.387  56.246
    1STR   H25159603  14.607  45.491  56.240
    1STR   C25259604  14.521  45.292  56.261
    1STR   H25359605  14.553  45.188  56.262
    1STR   H25459606  14.449  45.304  56.180
    1STR   H25559607  14.468  45.312  56.354
    1STR   C25659608  14.737  45.376  56.366
    1STR   H25759609  14.772  45.273  56.376
    1STR   H25859610  14.825  45.438  56.347
    1STR   O25959611  14.670  45.418  56.484
    1STR   C26059612  14.747  45.409  56.604
    1STR   H26159613  14.801  45.315  56.607
    1STR   C26259614  14.845  45.527  56.612
    1STR   H26359615  14.792  45.622  56.605
    1STR   H26459616  14.920  45.524  56.534
    1STR   H26559617  14.898  45.526  56.707
    1STR   C26659618  14.648  45.410  56.722
    1STR   H26759619  14.592  45.504  56.723
    1STR   H26859620  14.575  45.330  56.707
    1STR   O26959621  14.719  45.391  56.844
    1STR   C27059622  14.639  45.394  56.962
    1STR   H27159623  14.566  45.475  56.956
    1STR   C27259624  14.567  45.259  56.979
    1STR   H27359625  14.638  45.176  56.979
    1STR   H27459626  14.495  45.240  56.899
    1STR   H27559627  14.512  45.256  57.073
    1STR   C27659628  14.733  45.422  57.080
    1STR   H27759629  14.807  45.342  57.090
    1STR   H27859630  14.788  45.514  57.060
    1STR   O27959631  14.656  45.435  57.200
    1STR   C28059632  14.732  45.458  57.318
    1STR   H28159633  14.820  45.393  57.320
    1STR   C28259634  14.774  45.606  57.325
    1STR   H28359635  14.688  45.672  57.318
    1STR   H28459636  14.844  45.632  57.246
    1STR   H28559637  14.824  45.627  57.420
    1STR   C28659638  14.643  45.420  57.438
    1STR   H28759639  14.554  45.483  57.440
    1STR   H28859640  14.608  45.317  57.425
    1STR   O28959641  14.717  45.433  57.559
    1STR   C29059642  14.644  45.403  57.678
    1STR   H29159643  14.545  45.448  57.673
    1STR   C29259644  14.632  45.251  57.696
    1STR   H29359645  14.731  45.204  57.696
    1STR   H29459646  14.572  45.205  57.618
    1STR   H29559647  14.585  45.227  57.791
    1STR   C29659648  14.720  45.468  57.795
    1STR   H29759649  14.820  45.424  57.803
    1STR   H29859650  14.733  45.574  57.774
    1STR   O29959651  14.647  45.450  57.916
    1STR   C30059652  14.709  45.502  58.033
    1STR   H30159653  14.816  45.479  58.032
    1STR   C30259654  14.688  45.654  58.040
    1STR   H30359655  14.582  45.679  58.036
    1STR   H30459656  14.738  45.706  57.959
    1STR   H30559657  14.728  45.694  58.133
    1STR   C30659658  14.647  45.430  58.154
    1STR   H30759659  14.541  45.454  58.162
    1STR   H30859660  14.655  45.323  58.139
    1STR   O30959661  14.717  45.469  58.273
    1STR    H1R59662  14.563  45.412  58.398
    1STR    H1S59663  14.691  45.218  58.497
    1STR    H1T59664  14.830  45.259  58.398
    1STR    H1U59665  14.681  45.201  58.324
    1STR    H1V59666  14.698  45.599  58.494
    1STR    H1W59667  14.836  45.494  58.509
    1STR    H1X59668  14.584  45.401  58.822
    1STR    H1Y59669  14.499  45.316  59.020
    1STR    H1Z59670  14.531  45.191  59.227
    1STR    H2059671  14.822  44.984  59.307
    1STR    H2159672  14.781  45.126  59.404
    1STR    H2259673  14.654  45.019  59.345
    1STR    H2359674  15.021  45.065  59.061
    1STR    H2759675  14.915  45.254  58.920
    1STR    H2859676  14.611  45.003  46.452
    1STR    H2959677  14.568  45.032  46.217
    1STR    H2A59678  14.779  45.210  45.983
    1STR    H2B59679  14.623  45.137  46.010
    1STR    H2C59680  14.758  45.036  45.958
    1STR   BCK159681  30.232   0.034   0.901
    1STR    O0359682  30.349   0.066   0.887
    1STR    N0459683  30.182  60.132   1.008
    1STR    C0559684  30.257  60.069   1.107
    1STR    C0659685  30.242  60.104   1.243
    1STR    C0759686  30.316  60.037   1.345
    1STR    N0859687  30.296  60.072   1.480
    1STR    C0959688  30.370  60.041   1.587
    1STR    O0A59689  30.476  59.980   1.584
    1STR    O0B59690  30.312  60.086   1.702
    1STR    C0C59691  30.380  60.065   1.827
    1STR    C0D59692  30.487   0.014   1.845
    1STR    C0E59693  30.280  60.063   1.944
    1STR    O0F59694  30.351  60.036   2.065
    1STR    C0G59695  30.273  60.029   2.184
    1STR    C0H59696  30.202  59.893   2.192
    1STR    C0I59697  30.368  60.048   2.304
    1STR    O0J59698  30.293  60.050   2.426
    1STR    C0K59699  30.137  59.701  13.267
    1STR    C0M59700  30.211  59.835  13.282
    1STR    C0N59701  30.028  59.684  13.375
    1STR    O0O59702  30.087  59.653  13.501
    1STR    C0P59703  30.104  59.746  13.595
    1STR    O0Q59704  30.065  59.863  13.589
    1STR    N0R59705  30.174  59.692  13.694
    1STR    C0S59706  30.232  59.747  13.807
    1STR    C0T59707  30.339  59.676  13.864
    1STR    C0U59708  30.410  59.730  13.971
    1STR    C0V59709  30.376  59.855  14.027
    1STR    C0W59710  30.476  59.905  14.128
    1STR    C0X59711  30.259  59.923  13.982
    1STR    N0Y59712  30.194  60.035  14.037
    1STR   BCK259713  30.198  60.130  14.133
    1STR    O1059714  30.102   0.046  14.139
    1STR    C1359715  30.191  59.868  13.869
    1STR    C1459716  30.404  59.934   1.306
    1STR    C1559717  30.418  59.897   1.171
    1STR    C1659718  30.343  59.962   1.071
    1STR    C1759719  30.355  59.912   0.928
    1STR    H1B59720  30.082  60.123   1.010
    1STR    H1C59721  30.175   0.024   1.269
    1STR    H1D59722  30.217  60.130   1.503
    1STR    H1E59723  30.428  59.967   1.825
    1STR    H1F59724  30.443   0.113   1.848
    1STR    H1G59725  30.542  60.158   1.938
    1STR    H1H59726  30.559   0.011   1.764
    1STR    H1I59727  30.204  59.987   1.926
    1STR    H1J59728  30.228  60.159   1.951
    1STR    H1K59729  30.200  60.110   2.186
    1STR    H1M59730  30.273  59.811   2.186
    1STR    H1N59731  30.129  59.880   2.112
    1STR    H1O59732  30.148  59.883   2.286
    1STR    H1P59733  30.442  59.968   2.306
    1STR    H1Q59734  30.423  60.142   2.291
    1STR   C01059735  30.370  60.062   2.546
    1STR   H01159736  30.457  59.996   2.542
    1STR   C01259737  30.417   0.048   2.564
    1STR   H01359738  30.332   0.117   2.563
    1STR   H01459739  30.486   0.079   2.486
    1STR   H01559740  30.468   0.060   2.659
    1STR   C01659741  30.281  60.017   2.663
    1STR   H01759742  30.193  60.082   2.670
    1STR   H01859743  30.245  59.916   2.643
    1STR   O01959744  30.355  60.021   2.785
    1STR   C02059745  30.281  59.985   2.902
    1STR   H02159746  30.183  60.032   2.900
    1STR   C02259747  30.267  59.832   2.910
    1STR   H02359748  30.364  59.783   2.907
    1STR   H02459749  30.207  59.792   2.828
    1STR   H02559750  30.218  59.802   3.002
    1STR   C02659751  30.357  60.039   3.025
    1STR   H02759752  30.456  59.994   3.031
    1STR   H02859753  30.371  60.147   3.013
    1STR   O02959754  30.282  60.012   3.144
    1STR   C03059755  30.343  60.054   3.266
    1STR   H03159756  30.449  60.029   3.265
    1STR   C03259757  30.325   0.046   3.283
    1STR   H03359758  30.220   0.074   3.279
    1STR   H03459759  30.378   0.103   3.207
    1STR   H03559760  30.364   0.078   3.380
    1STR   C03659761  30.276  59.977   3.381
    1STR   H03759762  30.170  60.001   3.385
    1STR   H03859763  30.284  59.870   3.361
    1STR   O03959764  30.340  60.009   3.504
    1STR   C04059765  30.285  59.947   3.620
    1STR   H04159766  30.176  59.950   3.616
    1STR   C04259767  30.332  59.801   3.628
    1STR   H04359768  30.441  59.795   3.627
    1STR   H04459769  30.295  59.740   3.546
    1STR   H04559770  30.297  59.754   3.721
    1STR   C04659771  30.330  60.028   3.743
    1STR   H04759772  30.439  60.025   3.751
    1STR   H04859773  30.301  60.132   3.729
    1STR   O04959774  30.270  59.974   3.860
    1STR   C05059775  30.307  60.037   3.982
    1STR   H05159776  30.415  60.056   3.983
    1STR   C05259777  30.231   0.010   3.998
    1STR   H05359778  30.123  60.153   3.992
    1STR   H05459779  30.258   0.083   3.922
    1STR   H05559780  30.252   0.055   4.095
    1STR   C05659781  30.275  59.940   4.097
    1STR   H05759782  30.168  59.920   4.100
    1STR   H05859783  30.325  59.845   4.078
    1STR   O05959784  30.320  59.996   4.221
    1STR   C06059785  30.292  59.917   4.336
    1STR   H06159786  30.191  59.876   4.331
    1STR   C06259787  30.395  59.803   4.347
    1STR   H06359788  30.497  59.841   4.347
    1STR   H06459789  30.386  59.732   4.265
    1STR   H06559790  30.380  59.746   4.439
    1STR   C06659791  30.300  60.010   4.458
    1STR   H06759792  30.400  60.051   4.468
    1STR   H06859793  30.232  60.094   4.443
    1STR   O06959794  30.264  59.937   4.576
    1STR   C07059795  30.271  60.012   4.697
    1STR   H07159796  30.362  60.072   4.700
    1STR   C07259797  30.147  60.102   4.711
    1STR   H07359798  30.055  60.044   4.704
    1STR   H07459799  30.144   0.019   4.634
    1STR   H07559800  30.147  60.153   4.807
    1STR   C07659801  30.279  59.910   4.813
    1STR   H07759802  30.188  59.849   4.815
    1STR   H07859803  30.363  59.843   4.795
    1STR   O07959804  30.295  59.980   4.936
    1STR   C08059805  30.300  59.897   5.052
    1STR   H08159806  30.223  59.819   5.046
    1STR   C08259807  30.439  59.833   5.065
    1STR   H08359808  30.517  59.909   5.066
    1STR   H08459809  30.460  59.764   4.984
    1STR   H08559810  30.447  59.776   5.158
    1STR   C08659811  30.267  59.986   5.173
    1STR   H08759812  30.343  60.064   5.183
    1STR   H08859813  30.172  60.035   5.156
    1STR   O08959814  30.261  59.906   5.291
    1STR   C09059815  30.236  59.977   5.412
    1STR   H09159816  30.295  60.069   5.414
    1STR   C09259817  30.086  60.010   5.422
    1STR   H09359818  30.025  59.920   5.415
    1STR   H09459819  30.054  60.079   5.345
    1STR   H09559820  30.064  60.057   5.518
    1STR   C09659821  30.282  59.888   5.528
    1STR   H09759822  30.224  59.795   5.529
    1STR   H09859823  30.386  59.860   5.512
    1STR   O09959824  30.268  59.959   5.651
    1STR   C10059825  30.303  59.885   5.768
    1STR   H10159826  30.264  59.783   5.762
    1STR   C10259827  30.456  59.882   5.783
    1STR   H10359828  30.497  59.983   5.784
    1STR   H10459829  30.505  59.827   5.702
    1STR   H10559830  30.484  59.834   5.876
    1STR   C10659831  30.236  59.955   5.887
    1STR   H10759832  30.274  60.056   5.897
    1STR   H10859833  30.129  59.962   5.868
    1STR   O10959834  30.261  59.879   6.006
    1STR   C11059835  30.207  59.935   6.125
    1STR   H11159836  30.225  60.043   6.128
    1STR   C11259837  30.057  59.906   6.134
    1STR   H11359838  30.037  59.799   6.126
    1STR   H11459839  30.000  59.955   6.055
    1STR   H11559840  30.016  59.940   6.229
    1STR   C11659841  30.283  59.872   6.243
    1STR   H11759842  30.267  59.764   6.245
    1STR   H11859843  30.390  59.888   6.229
    1STR   O11959844  30.240  59.932   6.365
    1STR   C12059845  30.300  59.879   6.483
    1STR   H12159846  30.304  59.770   6.478
    1STR   C12259847  30.441  59.938   6.500
    1STR   H12359848  30.438  60.047   6.501
    1STR   H12459849  30.508  59.906   6.421
    1STR   H12559850  30.485  59.905   6.595
    1STR   C12659851  30.209  59.917   6.601
    1STR   H12759852  30.203  60.025   6.611
    1STR   H12859853  30.108  59.881   6.581
    1STR   O12959854  30.260  59.858   6.721
    1STR   C13059855  30.186  59.889   6.839
    1STR   H13159856  30.159  59.995   6.840
    1STR   C13259857  30.060  59.802   6.846
    1STR   H13359858  30.084  59.696   6.839
    1STR   H13459859  29.989  59.824   6.766
    1STR   H13559860  30.007  59.818   6.940
    1STR   C13659861  30.279  59.862   6.958
    1STR   H13759862  30.307  59.757   6.961
    1STR   H13859863  30.371  59.919   6.945
    1STR   O13959864  30.213  59.900   7.079
    1STR   C14059865  30.287  59.877   7.198
    1STR   H14159866  30.335  59.779   7.194
    1STR   C14259867  30.393  59.987   7.217
    1STR   H14359868  30.347  60.086   7.216
    1STR   H14459869  30.469  59.984   7.139
    1STR   H14559870  30.445  59.975   7.312
    1STR   C14659871  30.187  59.875   7.315
    1STR   H14759872  30.138  59.972   7.323
    1STR   H14859873  30.109  59.801   7.294
    1STR   O14959874  30.255  59.842   7.436
    1STR   C15059875  30.174  59.841   7.553
    1STR   H15159876  30.107  59.928   7.553
    1STR   C15259877  30.093  59.711   7.559
    1STR   H15359878  30.158  59.624   7.554
    1STR   H15459879  30.020  59.704   7.478
    1STR   H15559880  30.036  59.705   7.652
    1STR   C15659881  30.268  59.855   7.673
    1STR   H15759882  30.336  59.769   7.678
    1STR   H15859883  30.330  59.944   7.661
    1STR   O15959884  30.191  59.864   7.793
    1STR   C16059885  30.266  59.872   7.913
    1STR   H16159886  30.350  59.802   7.911
    1STR   C16259887  30.319  60.016   7.932
    1STR   H16359888  30.237  60.088   7.930
    1STR   H16459889  30.390  60.044   7.855
    1STR   H16559890  30.369  60.026   8.028
    1STR   C16659891  30.173  59.831   8.029
    1STR   H16759892  30.089  59.901   8.035
    1STR   H16859893  30.132  59.733   8.007
    1STR   O16959894  30.247  59.829   8.151
    1STR   C17059895  30.171  59.797   8.267
    1STR   H17159896  30.075  59.849   8.265
    1STR   C17259897  30.149  59.645   8.273
    1STR   H17359898  30.243  59.591   8.270
    1STR   H17459899  30.087  59.608   8.191
    1STR   H17559900  30.098  59.617   8.366
    1STR   C17659901  30.250  59.847   8.389
    1STR   H17759902  30.346  59.796   8.394
    1STR   H17859903  30.271  59.953   8.376
    1STR   O17959904  30.173  59.825   8.507
    1STR   C18059905  30.237  59.864   8.628
    1STR   H18159906  30.342  59.832   8.627
    1STR   C18259907  30.228  60.016   8.646
    1STR   H18359908  30.124  60.050   8.642
    1STR   H18459909  30.284  60.070   8.569
    1STR   H18559910  30.269  60.047   8.742
    1STR   C18659911  30.166  59.790   8.743
    1STR   H18759912  30.062  59.820   8.747
    1STR   H18859913  30.168  59.683   8.722
    1STR   O18959914  30.233  59.818   8.865
    1STR   C19059915  30.174  59.758   8.981
    1STR   H19159916  30.066  59.768   8.977
    1STR   C19259917  30.214  59.610   8.989
    1STR   H19359918  30.322  59.598   8.988
    1STR   H19459919  30.173  59.552   8.907
    1STR   H19559920  30.177  59.565   9.081
    1STR   C19659921  30.225  59.837   9.103
    1STR   H19759922  30.333  59.828   9.111
    1STR   H19859923  30.202  59.942   9.090
    1STR   O19959924  30.162  59.787   9.221
    1STR   C20059925  30.203  59.848   9.342
    1STR   H20159926  30.311  59.861   9.343
    1STR   C20259927  30.133  59.984   9.358
    1STR   H20359928  30.025  59.974   9.353
    1STR   H20459929  30.164  60.056   9.282
    1STR   H20559930  30.157  60.029   9.455
    1STR   C20659931  30.166  59.753   9.457
    1STR   H20759932  30.058  59.738   9.460
    1STR   H20859933  30.210  59.655   9.437
    1STR   O20959934  30.213  59.805   9.580
    1STR   C21059935  30.182  59.728   9.695
    1STR   H21159936  30.079  59.693   9.690
    1STR   C21259937  30.278  59.608   9.705
    1STR   H21359938  30.382  59.641   9.706
    1STR   H21459939  30.265  59.538   9.623
    1STR   H21559940  30.260  59.553   9.798
    1STR   C21659941  30.195  59.820   9.817
    1STR   H21759942  30.298  59.856   9.827
    1STR   H21859943  30.132  59.908   9.802
    1STR   O21959944  30.155  59.750   9.935
    1STR   C22059945  30.166  59.823  10.056
    1STR   H22159946  30.260  59.879  10.058
    1STR   C22259947  30.047  59.920  10.070
    1STR   H22359948  29.952  59.867  10.063
    1STR   H22459949  30.048  59.997   9.993
    1STR   H22559950  30.050  59.971  10.166
    1STR   C22659951  30.169  59.721  10.171
    1STR   H22759952  30.075  59.665  10.173
    1STR   H22859953  30.249  59.650  10.153
    1STR   O22959954  30.189  59.790  10.294
    1STR   C23059955  30.189  59.707  10.410
    1STR   H23159956  30.109  59.633  10.404
    1STR   C23259957  30.325  59.635  10.423
    1STR   H23359958  30.407  59.707  10.424
    1STR   H23459959  30.343  59.566  10.341
    1STR   H23559960  30.330  59.578  10.515
    1STR   C23659961  30.162  59.797  10.531
    1STR   H23759962  30.242  59.871  10.541
    1STR   H23859963  30.069  59.852  10.514
    1STR   O23959964  30.152  59.717  10.649
    1STR   C24059965  30.131  59.790  10.769
    1STR   H24159966  30.195  59.878  10.772
    1STR   C24259967  29.983  59.831  10.780
    1STR   H24359968  29.917  59.744  10.773
    1STR   H24459969  29.954  59.901  10.703
    1STR   H24559970  29.964  59.879  10.876
    1STR   C24659971  30.172  59.698  10.885
    1STR   H24759972  30.109  59.609  10.887
    1STR   H24859973  30.275  59.664  10.869
    1STR   O24959974  30.162  59.769  11.008
    1STR   C25059975  30.194  59.694  11.125
    1STR   H25159976  30.149  59.594  11.119
    1STR   C25259977  30.346  59.683  11.140
    1STR   H25359978  30.393  59.781  11.142
    1STR   H25459979  30.392  59.625  11.059
    1STR   H25559980  30.372  59.633  11.233
    1STR   C25659981  30.130  59.767  11.244
    1STR   H25759982  30.174  59.866  11.255
    1STR   H25859983  30.024  59.780  11.226
    1STR   O25959984  30.151  59.690  11.362
    1STR   C26059985  30.101  59.749  11.482
    1STR   H26159986  30.124  59.855  11.485
    1STR   C26259987  29.949  59.728  11.491
    1STR   H26359988  29.924  59.622  11.484
    1STR   H26459989  29.895  59.780  11.412
    1STR   H26559990  29.911  59.765  11.586
    1STR   C26659991  30.174  59.682  11.599
    1STR   H26759992  30.152  59.575  11.601
    1STR   H26859993  30.281  59.692  11.585
    1STR   O26959994  30.134  59.744  11.721
    1STR   C27059995  30.191  59.688  11.839
    1STR   H27159996  30.190  59.579  11.833
    1STR   C27259997  30.335  59.738  11.856
    1STR   H27359998  30.339  59.847  11.858
    1STR   H27459999  30.401  59.704  11.777
    1STR   H27560000  30.377  59.703  11.951
    1STR   C27660001  30.102  59.730  11.957
    1STR   H27760002  30.102  59.838  11.967
    1STR   H27860003  29.999  59.699  11.937
    1STR   O27960004  30.150  59.668  12.076
    1STR   C28060005  30.079  59.703  12.195
    1STR   H28160006  30.059  59.810  12.196
    1STR   C28260007  29.948  59.623  12.203
    1STR   H28360008  29.967  59.516  12.196
    1STR   H28460009  29.879  59.650  12.123
    1STR   H28560010  29.897  59.642  12.297
    1STR   C28660011  30.172  59.671  12.313
    1STR   H28760012  30.194  59.564  12.315
    1STR   H28860013  30.267  59.723  12.299
    1STR   O28960014  30.109  59.712  12.434
    1STR   C29060015  30.182  59.684  12.553
    1STR   H29160016  30.225  59.584  12.548
    1STR   C29260017  30.294  59.788  12.571
    1STR   H29360018  30.253  59.889  12.572
    1STR   H29460019  30.369  59.783  12.493
    1STR   H29560020  30.345  59.773  12.666
    1STR   C29660021  30.081  59.688  12.668
    1STR   H29760022  30.037  59.787  12.676
    1STR   H29860023  30.000  59.618  12.647
    1STR   O29960024  30.146  59.652  12.790
    1STR   C30060025  30.063  59.657  12.905
    1STR   H30160026  29.998  59.745  12.901
    1STR   C30260027  29.977  59.529  12.913
    1STR   H30360028  30.040  59.440  12.911
    1STR   H30460029  29.907  59.522  12.830
    1STR   H30560030  29.919  59.527  13.005
    1STR   C30660031  30.153  59.672  13.029
    1STR   H30760032  30.214  59.582  13.042
    1STR   H30860033  30.221  59.755  13.013
    1STR   O30960034  30.070  59.695  13.142
    1STR    H1R60035  30.207  59.618  13.276
    1STR    H1S60036  30.259  59.843  13.379
    1STR    H1T60037  30.143  59.919  13.273
    1STR    H1U60038  30.289  59.848  13.207
    1STR    H1V60039  29.964  59.600  13.349
    1STR    H1W60040  29.963  59.771  13.381
    1STR    H1X60041  30.193  59.595  13.674
    1STR    H1Y60042  30.370  59.581  13.822
    1STR    H1Z60043  30.495  59.675  14.009
    1STR    H2060044  30.489  60.013  14.120
    1STR    H2160045  30.449  59.872  14.227
    1STR    H2260046  30.575  59.865  14.107
    1STR    H2360047  30.107  60.055  13.990
    1STR    H2760048  30.106  59.920  13.828
    1STR    H2860049  30.463  59.879   1.377
    1STR    H2960050  30.485  59.817   1.145
    1STR    H2A60051  30.257  59.910   0.879
    1STR    H2B60052  30.396  59.811   0.924
    1STR    H2C60053  30.420  59.977   0.870
    1STR   BCK160054  30.148   0.046  15.930
    1STR    O0360055  30.142  60.090  15.891
    1STR    N0460056  30.094   0.074  16.050
    1STR    C0560057  30.068   0.183  16.136
    1STR    C0660058  30.061   0.153  16.275
    1STR    C0760059  30.020   0.248  16.374
    1STR    N0860060  30.012   0.211  16.510
    1STR    C0960061  29.978   0.283  16.618
    1STR    O0A60062  29.946   0.402  16.616
    1STR    O0B60063  29.980   0.209  16.733
    1STR    C0C60064  29.938   0.269  16.857
    1STR    C0D60065  29.785   0.262  16.868
    1STR    C0E60066  30.006   0.202  16.979
    1STR    O0F60067  29.967   0.271  17.099
    1STR    C0G60068  30.027   0.226  17.221
    1STR    C0H60069  30.171   0.279  17.230
    1STR    C0I60070  29.943   0.276  17.340
    1STR    O0J60071  29.997   0.225  17.463
    1STR    C0K60072  30.340   0.404  28.307
    1STR    C0M60073  30.203   0.336  28.323
    1STR    C0N60074  30.437   0.367  28.420
    1STR    O0O60075  30.394   0.421  28.545
    1STR    C0P60076  30.334   0.343  28.635
    1STR    O0Q60077  30.308   0.224  28.619
    1STR    N0R60078  30.307   0.414  28.745
    1STR    C0S60079  30.245   0.378  28.865
    1STR    C0T60080  30.213   0.480  28.957
    1STR    C0U60081  30.148   0.449  29.078
    1STR    C0V60082  30.113   0.316  29.110
    1STR    C0W60083  30.036   0.289  29.238
    1STR    C0X60084  30.147   0.212  29.020
    1STR    N0Y60085  30.108   0.080  29.040
    1STR   BCK260086  30.146  60.150  29.130
    1STR    O1060087  30.105  60.036  29.122
    1STR    C1360088  30.212   0.244  28.899
    1STR    C1460089  29.987   0.377  16.328
    1STR    C1560090  29.995   0.410  16.192
    1STR    C1660091  30.034   0.315  16.095
    1STR    C1760092  30.029   0.361  15.951
    1STR    H1B60093  30.066  60.146  16.088
    1STR    H1C60094  30.086   0.053  16.308
    1STR    H1D60095  30.034   0.116  16.535
    1STR    H1E60096  29.968   0.374  16.858
    1STR    H1F60097  29.749   0.159  16.870
    1STR    H1G60098  29.750   0.310  16.960
    1STR    H1H60099  29.737   0.313  16.785
    1STR    H1I60100  30.114   0.207  16.966
    1STR    H1J60101  29.979   0.097  16.985
    1STR    H1K60102  30.027   0.116  17.223
    1STR    H1M60103  30.174   0.387  17.223
    1STR    H1N60104  30.235   0.239  17.152
    1STR    H1O60105  30.216   0.251  17.325
    1STR    H1P60106  29.942   0.385  17.342
    1STR    H1Q60107  29.840   0.243  17.327
    1STR   C01060108  29.932   0.268  17.583
    1STR   H01160109  29.913   0.376  17.578
    1STR   C01260110  29.799   0.193  17.601
    1STR   H01360111  29.815   0.085  17.600
    1STR   H01460112  29.727   0.217  17.523
    1STR   H01560113  29.753   0.219  17.696
    1STR   C01660114  30.028   0.242  17.701
    1STR   H01760115  30.050   0.135  17.707
    1STR   H01860116  30.122   0.292  17.681
    1STR   O01960117  29.971   0.288  17.823
    1STR   C02060118  30.049   0.265  17.940
    1STR   H02160119  30.091   0.164  17.938
    1STR   C02260120  30.164   0.368  17.948
    1STR   H02360121  30.125   0.470  17.945
    1STR   H02460122  30.235   0.357  17.866
    1STR   H02560123  30.220   0.356  18.041
    1STR   C02660124  29.957   0.276  18.064
    1STR   H02760125  29.915   0.376  18.070
    1STR   H02860126  29.874   0.206  18.052
    1STR   O02960127  30.031   0.245  18.182
    1STR   C03060128  29.958   0.255  18.304
    1STR   H03160129  29.897   0.346  18.304
    1STR   C03260130  29.868   0.132  18.322
    1STR   H03360131  29.927   0.040  18.318
    1STR   H03460132  29.791   0.125  18.246
    1STR   H03560133  29.818   0.134  18.419
    1STR   C03660134  30.059   0.268  18.420
    1STR   H03760135  30.122   0.178  18.424
    1STR   H03860136  30.126   0.352  18.400
    1STR   O03960137  29.990   0.287  18.543
    1STR   C04060138  30.073   0.295  18.659
    1STR   H04160139  30.151   0.219  18.655
    1STR   C04260140  30.137   0.435  18.668
    1STR   H04360141  30.061   0.513  18.667
    1STR   H04460142  30.206   0.454  18.585
    1STR   H04560143  30.194   0.446  18.760
    1STR   C04660144  29.985   0.267  18.782
    1STR   H04760145  29.906   0.342  18.790
    1STR   H04860146  29.936   0.170  18.769
    1STR   O04960147  30.066   0.266  18.900
    1STR   C05060148  29.995   0.244  19.022
    1STR   H05160149  29.903   0.303  19.023
    1STR   C05260150  29.963   0.095  19.038
    1STR   H05360151  30.053   0.034  19.032
    1STR   H05460152  29.893   0.059  18.962
    1STR   H05560153  29.916   0.076  19.134
    1STR   C05660154  30.084   0.294  19.137
    1STR   H05760155  30.177   0.237  19.140
    1STR   H05860156  30.111   0.398  19.118
    1STR   O05960157  30.014   0.283  19.260
    1STR   C06060158  30.087   0.323  19.376
    1STR   H06160159  30.190   0.284  19.371
    1STR   C06260160  30.089   0.476  19.387
    1STR   H06360161  29.988   0.516  19.387
    1STR   H06460162  30.144   0.522  19.305
    1STR   H06560163  30.138   0.508  19.479
    1STR   C06660164  30.019   0.259  19.498
    1STR   H06760165  29.917   0.296  19.508
    1STR   H06860166  30.013   0.151  19.483
    1STR   O06960167  30.095   0.288  19.616
    1STR   C07060168  30.039   0.238  19.737
    1STR   H07160169  29.932   0.255  19.740
    1STR   C07260170  30.070   0.088  19.751
    1STR   H07360171  30.177   0.069  19.744
    1STR   H07460172  30.020   0.029  19.674
    1STR   H07560173  30.036   0.050  19.847
    1STR   C07660174  30.102   0.318  19.853
    1STR   H07760175  30.210   0.303  19.854
    1STR   H07860176  30.085   0.425  19.835
    1STR   O07960177  30.043   0.278  19.976
    1STR   C08060178  30.096   0.342  20.092
    1STR   H08160179  30.205   0.348  20.086
    1STR   C08260180  30.036   0.483  20.105
    1STR   H08360181  29.928   0.480  20.106
    1STR   H08460182  30.067   0.549  20.024
    1STR   H08560183  30.069   0.530  20.198
    1STR   C08660184  30.059   0.255  20.213
    1STR   H08760185  29.951   0.248  20.223
    1STR   H08860186  30.096   0.154  20.196
    1STR   O08960187  30.118   0.310  20.331
    1STR   C09060188  30.088   0.240  20.451
    1STR   H09160189  29.983   0.213  20.454
    1STR   C09260190  30.176   0.115  20.462
    1STR   H09360191  30.282   0.140  20.455
    1STR   H09460192  30.154   0.042  20.384
    1STR   H09560193  30.161   0.065  20.558
    1STR   C09660194  30.115   0.337  20.568
    1STR   H09760195  30.220   0.366  20.569
    1STR   H09860196  30.057   0.428  20.552
    1STR   O09960197  30.078   0.275  20.691
    1STR   C10060198  30.101   0.353  20.807
    1STR   H10160199  30.199   0.402  20.802
    1STR   C10260200  29.991   0.459  20.823
    1STR   H10360201  29.892   0.412  20.824
    1STR   H10460202  29.992   0.532  20.742
    1STR   H10560203  30.002   0.514  20.916
    1STR   C10660204  30.104   0.257  20.927
    1STR   H10760205  30.007   0.207  20.937
    1STR   H10860206  30.178   0.179  20.909
    1STR   O10960207  30.136   0.329  21.046
    1STR   C11060208  30.138   0.252  21.165
    1STR   H11160209  30.053   0.184  21.168
    1STR   C11260210  30.269   0.172  21.174
    1STR   H11360211  30.356   0.237  21.166
    1STR   H11460212  30.277   0.097  21.095
    1STR   H11560213  30.276   0.119  21.269
    1STR   C11660214  30.125   0.350  21.283
    1STR   H11760215  30.210   0.418  21.285
    1STR   H11860216  30.035   0.410  21.269
    1STR   O11960217  30.117   0.276  21.405
    1STR   C12060218  30.108   0.355  21.523
    1STR   H12160219  30.177   0.439  21.518
    1STR   C12260220  29.964   0.407  21.540
    1STR   H12360221  29.892   0.325  21.541
    1STR   H12460222  29.935   0.476  21.461
    1STR   H12560223  29.953   0.461  21.635
    1STR   C12660224  30.150   0.266  21.641
    1STR   H12760225  30.081   0.182  21.651
    1STR   H12860226  30.248   0.225  21.621
    1STR   O12960227  30.151   0.344  21.761
    1STR   C13060228  30.185   0.272  21.879
    1STR   H13160229  30.134   0.175  21.880
    1STR   C13260230  30.337   0.251  21.886
    1STR   H13360231  30.390   0.346  21.879
    1STR   H13460232  30.373   0.186  21.806
    1STR   H13560233  30.365   0.203  21.980
    1STR   C13660234  30.134   0.354  21.998
    1STR   H13760235  30.185   0.451  22.001
    1STR   H13860236  30.028   0.374  21.985
    1STR   O13960237  30.157   0.282  22.119
    1STR   C14060238  30.119   0.349  22.238
    1STR   H14160239  30.149   0.454  22.234
    1STR   C14260240  29.966   0.339  22.257
    1STR   H14360241  29.933   0.235  22.256
    1STR   H14460242  29.912   0.392  22.179
    1STR   H14560243  29.936   0.383  22.352
    1STR   C14660244  30.194   0.283  22.355
    1STR   H14760245  30.164   0.178  22.363
    1STR   H14860246  30.301   0.284  22.334
    1STR   O14960247  30.165   0.353  22.476
    1STR   C15060248  30.226   0.299  22.593
    1STR   H15160249  30.217   0.190  22.593
    1STR   C15260250  30.374   0.340  22.599
    1STR   H15360251  30.385   0.448  22.594
    1STR   H15460252  30.432   0.296  22.518
    1STR   H15560253  30.419   0.306  22.692
    1STR   C15660254  30.148   0.352  22.714
    1STR   H15760255  30.155   0.461  22.718
    1STR   H15860256  30.042   0.328  22.701
    1STR   O15960257  30.198   0.293  22.833
    1STR   C16060258  30.137   0.338  22.953
    1STR   H16160259  30.123   0.446  22.951
    1STR   C16260260  30.001   0.268  22.972
    1STR   H16360261  30.013   0.159  22.970
    1STR   H16460262  29.930   0.296  22.895
    1STR   H16560263  29.957   0.295  23.068
    1STR   C16660264  30.233   0.305  23.069
    1STR   H16760265  30.248   0.197  23.075
    1STR   H16860266  30.330   0.350  23.047
    1STR   O16960267  30.180   0.357  23.191
    1STR   C17060268  30.258   0.329  23.307
    1STR   H17160269  30.294   0.226  23.305
    1STR   C17260270  30.377   0.426  23.313
    1STR   H17360271  30.344   0.530  23.310
    1STR   H17460272  30.447   0.411  23.231
    1STR   H17560273  30.433   0.412  23.406
    1STR   C17660274  30.166   0.345  23.428
    1STR   H17760275  30.130   0.448  23.434
    1STR   H17860276  30.079   0.281  23.416
    1STR   O17960277  30.237   0.310  23.547
    1STR   C18060278  30.164   0.325  23.668
    1STR   H18160279  30.108   0.418  23.667
    1STR   C18260280  30.068   0.206  23.686
    1STR   H18360281  30.122   0.111  23.682
    1STR   H18460282  29.990   0.204  23.609
    1STR   H18560283  30.017   0.211  23.782
    1STR   C18660284  30.266   0.332  23.783
    1STR   H18760285  30.323   0.239  23.787
    1STR   H18860286  30.337   0.412  23.762
    1STR   O18960287  30.198   0.356  23.905
    1STR   C19060288  30.282   0.360  24.021
    1STR   H19160289  30.355   0.280  24.017
    1STR   C19260290  30.353   0.496  24.029
    1STR   H19360291  30.281   0.578  24.028
    1STR   H19460292  30.422   0.511  23.946
    1STR   H19560293  30.410   0.504  24.121
    1STR   C19660294  30.192   0.336  24.143
    1STR   H19760295  30.118   0.416  24.151
    1STR   H19860296  30.137   0.243  24.130
    1STR   O19960297  30.272   0.331  24.261
    1STR   C20060298  30.200   0.313  24.382
    1STR   H20160299  30.111   0.376  24.383
    1STR   C20260300  30.160   0.165  24.398
    1STR   H20360301  30.247   0.100  24.393
    1STR   H20460302  30.089   0.134  24.322
    1STR   H20560303  30.112   0.149  24.495
    1STR   C20660304  30.292   0.358  24.497
    1STR   H20760305  30.382   0.296  24.500
    1STR   H20860306  30.325   0.461  24.477
    1STR   O20960307  30.221   0.351  24.620
    1STR   C21060308  30.297   0.387  24.735
    1STR   H21160309  30.396   0.343  24.731
    1STR   C21260310  30.307   0.540  24.746
    1STR   H21360311  30.208   0.587  24.746
    1STR   H21460312  30.364   0.583  24.663
    1STR   H21560313  30.357   0.570  24.838
    1STR   C21660314  30.225   0.328  24.858
    1STR   H21760315  30.125   0.371  24.867
    1STR   H21860316  30.212   0.221  24.843
    1STR   O21960317  30.302   0.353  24.975
    1STR   C22060318  30.244   0.306  25.096
    1STR   H22160319  30.137   0.329  25.099
    1STR   C22260320  30.266   0.155  25.110
    1STR   H22360321  30.372   0.130  25.103
    1STR   H22460322  30.214   0.098  25.033
    1STR   H22560323  30.230   0.119  25.206
    1STR   C22660324  30.311   0.383  25.211
    1STR   H22760325  30.418   0.362  25.213
    1STR   H22860326  30.300   0.490  25.193
    1STR   O22960327  30.250   0.347  25.335
    1STR   C23060328  30.305   0.408  25.450
    1STR   H23160329  30.414   0.408  25.445
    1STR   C23260330  30.254   0.552  25.463
    1STR   H23360331  30.145   0.555  25.464
    1STR   H23460332  30.288   0.616  25.382
    1STR   H23560333  30.289   0.598  25.556
    1STR   C23660334  30.264   0.323  25.572
    1STR   H23760335  30.156   0.322  25.582
    1STR   H23860336  30.296   0.220  25.555
    1STR   O23960337  30.326   0.375  25.689
    1STR   C24060338  30.293   0.307  25.810
    1STR   H24160339  30.186   0.285  25.813
    1STR   C24260340  30.374   0.177  25.821
    1STR   H24360341  30.481   0.197  25.813
    1STR   H24460342  30.347   0.105  25.743
    1STR   H24560343  30.356   0.129  25.917
    1STR   C24660344  30.324   0.403  25.926
    1STR   H24760345  30.431   0.426  25.927
    1STR   H24860346  30.271   0.497  25.910
    1STR   O24960347  30.284   0.343  26.049
    1STR   C25060348  30.311   0.420  26.165
    1STR   H25160349  30.411   0.463  26.159
    1STR   C25260350  30.206   0.532  26.181
    1STR   H25360351  30.105   0.491  26.182
    1STR   H25460352  30.212   0.605  26.100
    1STR   H25560353  30.221   0.586  26.274
    1STR   C25660354  30.308   0.324  26.285
    1STR   H25760355  30.209   0.280  26.295
    1STR   H25860356  30.378   0.242  26.266
    1STR   O25960357  30.345   0.394  26.403
    1STR   C26060358  30.342   0.317  26.523
    1STR   H26160359  30.253   0.255  26.526
    1STR   C26260360  30.468   0.230  26.532
    1STR   H26360361  30.559   0.291  26.525
    1STR   H26460362  30.472   0.155  26.453
    1STR   H26560363  30.472   0.177  26.627
    1STR   C26660364  30.334   0.416  26.640
    1STR   H26760365  30.423   0.480  26.642
    1STR   H26860366  30.248   0.481  26.626
    1STR   O26960367  30.322   0.343  26.762
    1STR   C27060368  30.317   0.423  26.880
    1STR   H27160369  30.392   0.503  26.875
    1STR   C27260370  30.177   0.483  26.897
    1STR   H27360371  30.101   0.405  26.899
    1STR   H27460372  30.152   0.553  26.818
    1STR   H27560373  30.169   0.538  26.992
    1STR   C27660374  30.354   0.332  26.998
    1STR   H27760375  30.281   0.252  27.008
    1STR   H27860376  30.451   0.285  26.978
    1STR   O27960377  30.361   0.410  27.117
    1STR   C28060378  30.390   0.336  27.236
    1STR   H28160379  30.333   0.243  27.237
    1STR   C28260380  30.540   0.307  27.243
    1STR   H28360381  30.599   0.399  27.237
    1STR   H28460382  30.573   0.240  27.163
    1STR   H28560383  30.566   0.258  27.338
    1STR   C28660384  30.343   0.422  27.355
    1STR   H28760385  30.399   0.516  27.357
    1STR   H28860386  30.238   0.447  27.341
    1STR   O28960387  30.362   0.349  27.475
    1STR   C29060388  30.328   0.419  27.594
    1STR   H29160389  30.364   0.522  27.589
    1STR   C29260390  30.175   0.418  27.613
    1STR   H29360391  30.136   0.316  27.614
    1STR   H29460392  30.123   0.473  27.535
    1STR   H29560393  30.148   0.464  27.708
    1STR   C29660394  30.399   0.349  27.711
    1STR   H29760395  30.364   0.246  27.720
    1STR   H29860396  30.506   0.345  27.689
    1STR   O29960397  30.375   0.422  27.831
    1STR   C30060398  30.432   0.364  27.948
    1STR   H30160399  30.417   0.256  27.948
    1STR   C30260400  30.581   0.398  27.956
    1STR   H30360401  30.598   0.505  27.951
    1STR   H30460402  30.638   0.352  27.875
    1STR   H30560403  30.624   0.361  28.049
    1STR   C30660404  30.355   0.422  28.068
    1STR   H30760405  30.368   0.530  28.072
    1STR   H30860406  30.248   0.403  28.054
    1STR   O30960407  30.401   0.359  28.187
    1STR    H1R60408  30.328   0.512  28.306
    1STR    H1S60409  30.155   0.365  28.417
    1STR    H1T60410  30.212   0.227  28.324
    1STR    H1U60411  30.133   0.363  28.243
    1STR    H1V60412  30.535   0.408  28.399
    1STR    H1W60413  30.451   0.259  28.425
    1STR    H1X60414  30.336   0.510  28.733
    1STR    H1Y60415  30.237   0.583  28.935
    1STR    H1Z60416  30.123   0.529  29.146
    1STR    H2060417  29.965   0.207  29.224
    1STR    H2160418  30.104   0.262  29.318
    1STR    H2260419  29.980   0.377  29.270
    1STR    H2360420  30.050   0.039  28.969
    1STR    H2760421  30.236   0.163  28.832
    1STR    H2860422  29.953   0.455  16.394
    1STR    H2960423  29.967   0.510  16.162
    1STR    H2A60424  30.130   0.389  15.920
    1STR    H2B60425  29.967   0.450  15.940
    1STR    H2C60426  29.989   0.284  15.886
    1STR   BCK160427  30.135  60.112  30.978
    1STR    O0360428  30.182  60.006  30.938
    1STR    N0460429  30.065  60.127  31.091
    1STR    C0560430  30.019  60.028  31.178
    1STR    C0660431  30.044  60.038  31.317
    1STR    C0760432  29.994  59.943  31.411
    1STR    N0860433  30.019  59.959  31.549
    1STR    C0960434  29.986  59.882  31.654
    1STR    O0A60435  29.927  59.775  31.646
    1STR    O0B60436  30.027  59.936  31.772
    1STR    C0C60437  30.008  59.863  31.894
    1STR    C0D60438  30.123  59.761  31.910
    1STR    C0E60439  30.000  59.958  32.016
    1STR    O0F60440  29.979  59.881  32.136
    1STR    C0G60441  29.966  59.956  32.258
    1STR    C0H60442  29.825  60.015  32.266
    1STR    C0I60443  29.994  59.863  32.378
    1STR    O0J60444  29.989  59.937  32.500
    1STR    C0K60445  29.626  60.045  43.353
    1STR    C0M60446  29.771  59.994  43.364
    1STR    C0N60447  29.592  60.142  43.467
    1STR    O0O60448  29.588  60.076  43.593
    1STR    C0P60449  29.689  60.087  43.681
    1STR    O0Q60450  29.792  60.150  43.663
    1STR    N0R60451  29.658  60.017  43.789
    1STR    C0S60452  29.727  59.992  43.908
    1STR    C0T60453  29.664  59.906  44.000
    1STR    C0U60454  29.728  59.870  44.120
    1STR    C0V60455  29.855  59.920  44.150
    1STR    C0W60456  29.925  59.867  44.274
    1STR    C0X60457  29.918  60.013  44.063
    1STR    N0Y60458  30.044  60.064  44.092
    1STR   BCK260459  30.080  60.128  44.204
    1STR    O1060460  30.002   0.008  44.290
    1STR    C1360461  29.854  60.046  43.941
    1STR    C1460462  29.918  59.836  31.359
    1STR    C1560463  29.890  59.826  31.222
    1STR    C1660464  29.938  59.922  31.131
    1STR    C1760465  29.895  59.910  30.985
    1STR    H1B60466  30.043   0.063  31.113
    1STR    H1C60467  30.104  60.121  31.352
    1STR    H1D60468  30.071  60.041  31.577
    1STR    H1E60469  29.914  59.809  31.890
    1STR    H1F60470  30.220  59.811  31.917
    1STR    H1G60471  30.109  59.702  32.001
    1STR    H1H60472  30.126  59.692  31.827
    1STR    H1I60473  29.917  60.027  32.001
    1STR    H1J60474  30.091  60.017  32.024
    1STR    H1K60475  30.040  60.036  32.260
    1STR    H1M60476  29.749  59.937  32.260
    1STR    H1N60477  29.805  60.087  32.187
    1STR    H1O60478  29.810  60.067  32.361
    1STR    H1P60479  29.921  59.781  32.379
    1STR    H1Q60480  30.092  59.817  32.365
    1STR   C01060481  30.007  59.862  32.620
    1STR   H01160482  29.949  59.770  32.617
    1STR   C01260483  30.156  59.828  32.639
    1STR   H01360484  30.217  59.919  32.638
    1STR   H01460485  30.194  59.762  32.561
    1STR   H01560486  30.173  59.778  32.734
    1STR   C01660487  29.955  59.946  32.739
    1STR   H01760488  30.011  60.040  32.745
    1STR   H01860489  29.851  59.973  32.719
    1STR   O01960490  29.966  59.874  32.861
    1STR   C02060491  29.924  59.944  32.979
    1STR   H02160492  29.962  60.046  32.977
    1STR   C02260493  29.770  59.945  32.986
    1STR   H02360494  29.730  59.844  32.984
    1STR   H02460495  29.725  60.001  32.905
    1STR   H02560496  29.737  59.992  33.079
    1STR   C02660497  29.984  59.874  33.102
    1STR   H02760498  29.948  59.771  33.108
    1STR   H02860499  30.093  59.869  33.090
    1STR   O02960500  29.950  59.946  33.221
    1STR   C03060501  29.997  59.889  33.343
    1STR   H03160502  29.981  59.781  33.343
    1STR   C03260503  30.147  59.920  33.361
    1STR   H03360504  30.165  60.027  33.358
    1STR   H03460505  30.208  59.872  33.285
    1STR   H03560506  30.182  59.884  33.458
    1STR   C03660507  29.914  59.949  33.459
    1STR   H03760508  29.928  60.057  33.463
    1STR   H03860509  29.808  59.931  33.439
    1STR   O03960510  29.952  59.888  33.582
    1STR   C04060511  29.885  59.938  33.698
    1STR   H04160512  29.879  60.047  33.695
    1STR   C04260513  29.744  59.878  33.707
    1STR   H04360514  29.748  59.769  33.706
    1STR   H04460515  29.680  59.910  33.625
    1STR   H04560516  29.695  59.908  33.799
    1STR   C04660517  29.970  59.899  33.821
    1STR   H04760518  29.977  59.791  33.829
    1STR   H04860519  30.071  59.937  33.808
    1STR   O04960520  29.911  59.954  33.939
    1STR   C05060521  29.978  59.923  34.061
    1STR   H05160522  30.006  59.817  34.063
    1STR   C05260523  30.102  60.011  34.077
    1STR   H05360524  30.077  60.117  34.072
    1STR   H05460525  30.177  59.991  34.001
    1STR   H05560526  30.150  59.994  34.174
    1STR   C05660527  29.878  59.946  34.176
    1STR   H05760528  29.848  60.051  34.179
    1STR   H05860529  29.788  59.888  34.158
    1STR   O05960530  29.937  59.907  34.300
    1STR   C06060531  29.856  59.927  34.416
    1STR   H06160532  29.807  60.025  34.411
    1STR   C06260533  29.752  59.815  34.426
    1STR   H06360534  29.799  59.717  34.427
    1STR   H06460535  29.680  59.818  34.344
    1STR   H06560536  29.694  59.825  34.519
    1STR   C06660537  29.950  59.928  34.538
    1STR   H06760538  30.000  59.831  34.547
    1STR   H06860539  30.027  60.003  34.523
    1STR   O06960540  29.874  59.957  34.656
    1STR   C07060541  29.949  59.957  34.777
    1STR   H07160542  30.017  59.872  34.779
    1STR   C07260543  30.028  60.088  34.790
    1STR   H07360544  29.962   0.015  34.784
    1STR   H07460545  30.104  60.098  34.714
    1STR   H07560546  30.078  60.093  34.887
    1STR   C07660547  29.848  59.940  34.892
    1STR   H07760548  29.779  60.025  34.894
    1STR   H07860549  29.789  59.850  34.875
    1STR   O07960550  29.919  59.930  35.016
    1STR   C08060551  29.837  59.918  35.132
    1STR   H08160552  29.753  59.988  35.126
    1STR   C08260553  29.786  59.774  35.145
    1STR   H08360554  29.868  59.703  35.146
    1STR   H08460555  29.719  59.746  35.064
    1STR   H08560556  29.730  59.761  35.238
    1STR   C08660557  29.923  59.958  35.253
    1STR   H08760558  30.007  59.890  35.263
    1STR   H08860559  29.964  60.058  35.236
    1STR   O08960560  29.842  59.957  35.371
    1STR   C09060561  29.911  59.988  35.491
    1STR   H09160562  30.008  59.937  35.494
    1STR   C09260563  29.931  60.140  35.502
    1STR   H09360564  29.836   0.033  35.495
    1STR   H09460565  29.997   0.019  35.424
    1STR   H09560566  29.976   0.007  35.598
    1STR   C09660567  29.826  59.935  35.608
    1STR   H09760568  29.729  59.985  35.609
    1STR   H09860569  29.807  59.829  35.592
    1STR   O09960570  29.896  59.956  35.731
    1STR   C10060571  29.826  59.914  35.848
    1STR   H10160572  29.721  59.944  35.842
    1STR   C10260573  29.836  59.761  35.863
    1STR   H10360574  29.940  59.729  35.864
    1STR   H10460575  29.785  59.708  35.783
    1STR   H10560576  29.790  59.729  35.956
    1STR   C10660577  29.889  59.987  35.967
    1STR   H10760578  29.994  59.958  35.977
    1STR   H10860579  29.887  60.094  35.948
    1STR   O10960580  29.816  59.955  36.086
    1STR   C11060581  29.867  60.014  36.205
    1STR   H11160582  29.976  60.006  36.208
    1STR   C11260583  29.825   0.001  36.214
    1STR   H11360584  29.716   0.011  36.207
    1STR   H11460585  29.869   0.061  36.135
    1STR   H11560586  29.856   0.045  36.309
    1STR   C11660587  29.811  59.933  36.323
    1STR   H11760588  29.702  59.940  36.325
    1STR   H11860589  29.836  59.827  36.309
    1STR   O11960590  29.867  59.981  36.445
    1STR   C12060591  29.820  59.917  36.563
    1STR   H12160592  29.712  59.902  36.558
    1STR   C12260593  29.891  59.781  36.580
    1STR   H12360594  29.999  59.793  36.581
    1STR   H12460595  29.865  59.711  36.501
    1STR   H12560596  29.862  59.735  36.675
    1STR   C12660597  29.849  60.011  36.681
    1STR   H12760598  29.957  60.026  36.691
    1STR   H12860599  29.805  60.108  36.661
    1STR   O12960600  29.795  59.955  36.801
    1STR   C13060601  29.819  60.031  36.919
    1STR   H13160602  29.922  60.067  36.920
    1STR   C13260603  29.721  60.149  36.926
    1STR   H13360604  29.618  60.115  36.919
    1STR   H13460605  29.738   0.061  36.845
    1STR   H13560606  29.733   0.043  37.020
    1STR   C13660607  29.801  59.936  37.038
    1STR   H13760608  29.698  59.899  37.041
    1STR   H13860609  29.866  59.849  37.025
    1STR   O13960610  29.833  60.005  37.159
    1STR   C14060611  29.816  59.929  37.278
    1STR   H14160612  29.722  59.872  37.274
    1STR   C14260613  29.934  59.833  37.297
    1STR   H14360614  30.029  59.887  37.296
    1STR   H14460615  29.939  59.757  37.219
    1STR   H14560616  29.927  59.780  37.392
    1STR   C14660617  29.805  60.028  37.395
    1STR   H14760618  29.898  60.086  37.403
    1STR   H14860619  29.725  60.099  37.374
    1STR   O14960620  29.779  59.958  37.516
    1STR   C15060621  29.771  60.039  37.633
    1STR   H15160622  29.851  60.113  37.633
    1STR   C15260623  29.634  60.108  37.639
    1STR   H15360624  29.553  60.036  37.634
    1STR   H15460625  29.620   0.019  37.558
    1STR   H15560626  29.623   0.004  37.732
    1STR   C15660627  29.792  59.946  37.754
    1STR   H15760628  29.713  59.871  37.758
    1STR   H15860629  29.886  59.892  37.741
    1STR   O15960630  29.794  60.024  37.873
    1STR   C16060631  29.810  59.949  37.993
    1STR   H16160632  29.747  59.860  37.991
    1STR   C16260633  29.957  59.910  38.012
    1STR   H16360634  30.022  59.997  38.010
    1STR   H16460635  29.991  59.841  37.935
    1STR   H16560636  29.972  59.860  38.108
    1STR   C16660637  29.761  60.038  38.109
    1STR   H16760638  29.823  60.128  38.115
    1STR   H16860639  29.659  60.071  38.087
    1STR   O16960640  29.765  59.965  38.231
    1STR   C17060641  29.726  60.038  38.347
    1STR   H17160642  29.770  60.138  38.345
    1STR   C17260643  29.573  60.047  38.353
    1STR   H17360644  29.527  59.948  38.350
    1STR   H17460645  29.531  60.105  38.271
    1STR   H17560646  29.541  60.095  38.446
    1STR   C17660647  29.783  59.963  38.469
    1STR   H17760648  29.741  59.863  38.474
    1STR   H17860649  29.891  59.952  38.456
    1STR   O17960650  29.755  60.038  38.587
    1STR   C18060651  29.799  59.977  38.708
    1STR   H18160652  29.777  59.870  38.707
    1STR   C18260653  29.950  60.000  38.726
    1STR   H18360654  29.974  60.106  38.722
    1STR   H18460655  30.008  59.949  38.649
    1STR   H18560656  29.984  59.962  38.822
    1STR   C18660657  29.719  60.041  38.822
    1STR   H18760658  29.740  60.148  38.827
    1STR   H18860659  29.612  60.031  38.802
    1STR   O18960660  29.753  59.978  38.945
    1STR   C19060661  29.688  60.031  39.061
    1STR   H19160662  29.688  60.140  39.057
    1STR   C19260663  29.544  59.978  39.069
    1STR   H19360664  29.541  59.869  39.068
    1STR   H19460665  29.482  60.014  38.986
    1STR   H19560666  29.496  60.011  39.161
    1STR   C19660667  29.770  59.987  39.183
    1STR   H19760668  29.771  59.879  39.191
    1STR   H19860669  29.874  60.019  39.170
    1STR   O19960670  29.715  60.046  39.301
    1STR   C20060671  29.780  60.011  39.422
    1STR   H20160672  29.803  59.904  39.423
    1STR   C20260673  29.909  60.092  39.438
    1STR   H20360674  29.889   0.039  39.433
    1STR   H20460675  29.983  60.068  39.362
    1STR   H20560676  29.956  60.072  39.535
    1STR   C20660677  29.681  60.039  39.537
    1STR   H20760678  29.658  60.145  39.540
    1STR   H20860679  29.588  59.986  39.517
    1STR   O20960680  29.738  59.996  39.660
    1STR   C21060681  29.658  60.021  39.775
    1STR   H21160682  29.615  60.121  39.771
    1STR   C21260683  29.547  59.915  39.786
    1STR   H21360684  29.589  59.814  39.786
    1STR   H21460685  29.476  59.922  39.703
    1STR   H21560686  29.491  59.927  39.878
    1STR   C21660687  29.752  60.016  39.898
    1STR   H21760688  29.796  59.917  39.907
    1STR   H21860689  29.833  60.086  39.883
    1STR   O21960690  29.678  60.049  40.015
    1STR   C22060691  29.752  60.045  40.136
    1STR   H22160692  29.816  59.956  40.139
    1STR   C22260693  29.838   0.012  40.150
    1STR   H22360694  29.777   0.102  40.143
    1STR   H22460695  29.915   0.018  40.073
    1STR   H22560696  29.889   0.014  40.246
    1STR   C22660697  29.651  60.034  40.251
    1STR   H22760698  29.587  60.122  40.253
    1STR   H22860699  29.587  59.947  40.234
    1STR   O22960700  29.721  60.019  40.375
    1STR   C23060701  29.638  60.012  40.491
    1STR   H23160702  29.558  60.085  40.485
    1STR   C23260703  29.579  59.870  40.503
    1STR   H23360704  29.657  59.795  40.504
    1STR   H23460705  29.511  59.847  40.422
    1STR   H23560706  29.522  59.860  40.596
    1STR   C23660707  29.726  60.047  40.612
    1STR   H23760708  29.806  59.974  40.622
    1STR   H23860709  29.772  60.144  40.595
    1STR   O23960710  29.645  60.050  40.729
    1STR   C24060711  29.716  60.077  40.850
    1STR   H24160712  29.809  60.021  40.853
    1STR   C24260713  29.744   0.068  40.861
    1STR   H24360714  29.651   0.126  40.854
    1STR   H24460715  29.811   0.103  40.783
    1STR   H24560716  29.790   0.092  40.957
    1STR   C24660717  29.628  60.028  40.966
    1STR   H24760718  29.534  60.083  40.968
    1STR   H24860719  29.603  59.923  40.950
    1STR   O24960720  29.698  60.045  41.089
    1STR   C25060721  29.626  60.006  41.206
    1STR   H25160722  29.523  60.042  41.200
    1STR   C25260723  29.628  59.853  41.221
    1STR   H25360724  29.730  59.815  41.222
    1STR   H25460725  29.574  59.803  41.140
    1STR   H25560726  29.580  59.823  41.314
    1STR   C25660727  29.693  60.075  41.326
    1STR   H25760728  29.796  60.041  41.336
    1STR   H25860729  29.697   0.023  41.307
    1STR   O25960730  29.618  60.048  41.444
    1STR   C26060731  29.672  60.103  41.564
    1STR   H26160732  29.780  60.089  41.567
    1STR   C26260733  29.638   0.093  41.572
    1STR   H26360734  29.530   0.109  41.565
    1STR   H26460735  29.686   0.151  41.494
    1STR   H26560736  29.671   0.135  41.668
    1STR   C26660737  29.611  60.025  41.682
    1STR   H26760738  29.503  60.038  41.683
    1STR   H26860739  29.631  59.919  41.668
    1STR   O26960740  29.669  60.070  41.804
    1STR   C27060741  29.619  60.008  41.922
    1STR   H27160742  29.510  60.000  41.916
    1STR   C27260743  29.682  59.869  41.939
    1STR   H27360744  29.791  59.875  41.940
    1STR   H27460745  29.653  59.801  41.859
    1STR   H27560746  29.651  59.824  42.033
    1STR   C27660747  29.653  60.100  42.040
    1STR   H27760748  29.761  60.110  42.050
    1STR   H27860749  29.614   0.040  42.020
    1STR   O27960750  29.597  60.047  42.160
    1STR   C28060751  29.624  60.121  42.278
    1STR   H28160752  29.729  60.152  42.280
    1STR   C28260753  29.533   0.084  42.285
    1STR   H28360754  29.428   0.056  42.278
    1STR   H28460755  29.554   0.156  42.206
    1STR   H28560756  29.547   0.137  42.380
    1STR   C28660757  29.600  60.027  42.398
    1STR   H28760758  29.496  59.995  42.400
    1STR   H28860759  29.661  59.937  42.385
    1STR   O28960760  29.635  60.094  42.519
    1STR   C29060761  29.614  60.018  42.638
    1STR   H29160762  29.518  59.967  42.633
    1STR   C29260763  29.728  59.916  42.656
    1STR   H29360764  29.825  59.966  42.656
    1STR   H29460765  29.728  59.841  42.578
    1STR   H29560766  29.717  59.864  42.751
    1STR   C29660767  29.609  60.118  42.755
    1STR   H29760768  29.704   0.010  42.763
    1STR   H29860769  29.532   0.033  42.734
    1STR   O29960770  29.579  60.048  42.876
    1STR   C30060771  29.576  60.130  42.993
    1STR   H30160772  29.660   0.040  42.991
    1STR   C30260773  29.443   0.046  43.000
    1STR   H30360774  29.358  60.137  42.996
    1STR   H30460775  29.432   0.118  42.920
    1STR   H30560776  29.436   0.101  43.094
    1STR   C30660777  29.596  60.037  43.114
    1STR   H30760778  29.512  59.968  43.122
    1STR   H30860779  29.685  59.977  43.098
    1STR   O30960780  29.608  60.117  43.232
    1STR    H1R60781  29.556  59.961  43.358
    1STR    H1S60782  29.787  59.942  43.458
    1STR    H1T60783  29.842  60.076  43.359
    1STR    H1U60784  29.796  59.923  43.285
    1STR    H1V60785  29.493   0.025  43.450
    1STR    H1W60786  29.661   0.067  43.468
    1STR    H1X60787  29.567  59.975  43.779
    1STR    H1Y60788  29.566  59.865  43.980
    1STR    H1Z60789  29.679  59.802  44.188
    1STR    H2060790  30.028  59.842  44.251
    1STR    H2160791  29.923  59.940  44.354
    1STR    H2260792  29.878  59.776  44.311
    1STR    H2360793  30.116  60.054  44.023
    1STR    H2760794  29.903  60.114  43.873
    1STR    H2860795  29.877  59.759  31.422
    1STR    H2960796  29.829  59.743  31.187
    1STR    H2A60797  29.878  60.008  30.941
    1STR    H2B60798  29.802  59.853  30.976
    1STR    H2C60799  29.972  59.859  30.928
    1STR   BCK160800  30.179   0.084  46.020
    1STR    O0360801  30.213   0.200  46.000
    1STR    N0460802  30.200   0.017  46.133
    1STR    C0560803  30.289   0.058  46.232
    1STR    C0660804  30.246   0.070  46.367
    1STR    C0760805  30.337   0.109  46.469
    1STR    N0860806  30.292   0.115  46.603
    1STR    C0960807  30.357   0.156  46.713
    1STR    O0A60808  30.470   0.204  46.715
    1STR    O0B60809  30.282   0.138  46.824
    1STR    C0C60810  30.335   0.179  46.951
    1STR    C0D60811  30.313   0.330  46.968
    1STR    C0E60812  30.274   0.099  47.067
    1STR    O0F60813  30.340   0.139  47.187
    1STR    C0G60814  30.299   0.072  47.307
    1STR    C0H60815  30.365  60.093  47.314
    1STR    C0I60816  30.342   0.160  47.426
    1STR    O0J60817  30.296   0.102  47.548
    1STR    C0K60818  30.501  59.934  58.388
    1STR    C0M60819  30.425  60.067  58.403
    1STR    C0N60820  30.469  59.835  58.502
    1STR    O0O60821  30.526  59.880  58.624
    1STR    C0P60822  30.450  59.941  58.715
    1STR    O0Q60823  30.329  59.961  58.706
    1STR    N0R60824  30.528  59.980  58.816
    1STR    C0S60825  30.496  60.052  58.932
    1STR    C0T60826  30.601  60.118  58.999
    1STR    C0U60827  30.576   0.037  59.112
    1STR    C0V60828  30.445   0.051  59.162
    1STR    C0W60829  30.420   0.143  59.280
    1STR    C0X60830  30.340  60.140  59.100
    1STR    N0Y60831  30.212  60.149  59.153
    1STR   BCK260832  30.163  60.077  59.254
    1STR    O1060833  30.055  60.105  59.305
    1STR    C1360834  30.365  60.063  58.985
    1STR    C1460835  30.470   0.137  46.432
    1STR    C1560836  30.514   0.122  46.300
    1STR    C1660837  30.425   0.080  46.200
    1STR    C1760838  30.481   0.056  46.060
    1STR    H1B60839  30.156  60.087  46.141
    1STR    H1C60840  30.143   0.050  46.390
    1STR    H1D60841  30.199   0.085  46.623
    1STR    H1E60842  30.443   0.159  46.953
    1STR    H1F60843  30.207   0.355  46.969
    1STR    H1G60844  30.356   0.366  47.062
    1STR    H1H60845  30.360   0.387  46.888
    1STR    H1I60846  30.289  60.152  47.048
    1STR    H1J60847  30.167   0.116  47.074
    1STR    H1K60848  30.190   0.063  47.309
    1STR    H1M60849  30.473  60.101  47.307
    1STR    H1N60850  30.331  60.028  47.234
    1STR    H1O60851  30.341  60.044  47.408
    1STR    H1P60852  30.451   0.170  47.427
    1STR    H1Q60853  30.301   0.260  47.413
    1STR   C01060854  30.333   0.171  47.667
    1STR   H01160855  30.439   0.199  47.663
    1STR   C01260856  30.246   0.296  47.685
    1STR   H01360857  30.140   0.271  47.684
    1STR   H01460858  30.264   0.370  47.607
    1STR   H01560859  30.268   0.345  47.780
    1STR   C01660860  30.315   0.073  47.784
    1STR   H01760861  30.211   0.042  47.791
    1STR   H01860862  30.373  60.143  47.764
    1STR   O01960863  30.357   0.134  47.906
    1STR   C02060864  30.341   0.053  48.023
    1STR   H02160865  30.244   0.003  48.021
    1STR   C02260866  30.454  60.109  48.030
    1STR   H02360867  30.552  60.156  48.028
    1STR   H02460868  30.449  60.037  47.949
    1STR   H02560869  30.448  60.052  48.123
    1STR   C02660870  30.344   0.146  48.146
    1STR   H02760871  30.440   0.197  48.152
    1STR   H02860872  30.268   0.223  48.134
    1STR   O02960873  30.320   0.070  48.264
    1STR   C03060874  30.324   0.144  48.386
    1STR   H03160875  30.409   0.213  48.386
    1STR   C03260876  30.193   0.223  48.404
    1STR   H03360877  30.106   0.156  48.400
    1STR   H03460878  30.179   0.299  48.328
    1STR   H03560879  30.191   0.273  48.501
    1STR   C03660880  30.345   0.044  48.501
    1STR   H03760881  30.261  60.134  48.505
    1STR   H03860882  30.434  60.145  48.481
    1STR   O03960883  30.358   0.114  48.625
    1STR   C04060884  30.374   0.032  48.740
    1STR   H04160885  30.304  60.108  48.736
    1STR   C04260886  30.519  60.141  48.749
    1STR   H04360887  30.590   0.064  48.748
    1STR   H04460888  30.544  60.075  48.666
    1STR   H04560889  30.534  60.085  48.841
    1STR   C04660890  30.338   0.118  48.863
    1STR   H04760891  30.406   0.203  48.871
    1STR   H04860892  30.237   0.158  48.849
    1STR   O04960893  30.343   0.037  48.981
    1STR   C05060894  30.316   0.106  49.103
    1STR   H05160895  30.366   0.203  49.104
    1STR   C05260896  30.164   0.125  49.118
    1STR   H05360897  30.111   0.030  49.113
    1STR   H05460898  30.122   0.191  49.042
    1STR   H05560899  30.141   0.170  49.215
    1STR   C05660900  30.373   0.021  49.217
    1STR   H05760901  30.324  60.084  49.220
    1STR   H05860902  30.479   0.003  49.198
    1STR   O05960903  30.356   0.090  49.341
    1STR   C06060904  30.402   0.021  49.456
    1STR   H06160905  30.373  60.076  49.451
    1STR   C06260906  30.555   0.032  49.467
    1STR   H06360907  30.587   0.137  49.467
    1STR   H06460908  30.606  60.142  49.385
    1STR   H06560909  30.591  60.147  49.559
    1STR   C06660910  30.333   0.083  49.579
    1STR   H06760911  30.361   0.188  49.588
    1STR   H06860912  30.225   0.080  49.563
    1STR   O06960913  30.369   0.011  49.696
    1STR   C07060914  30.314   0.061  49.818
    1STR   H07160915  30.321   0.170  49.820
    1STR   C07260916  30.167   0.018  49.831
    1STR   H07360917  30.157  60.069  49.824
    1STR   H07460918  30.104   0.062  49.754
    1STR   H07560919  30.126   0.048  49.927
    1STR   C07660920  30.399   0.006  49.933
    1STR   H07760921  30.393  60.057  49.935
    1STR   H07860922  30.504   0.032  49.915
    1STR   O07960923  30.354   0.061  50.056
    1STR   C08060924  30.422   0.014  50.172
    1STR   H08160925  30.438  60.066  50.166
    1STR   C08260926  30.558   0.086  50.185
    1STR   H08360927  30.545   0.194  50.187
    1STR   H08460928  30.626   0.061  50.104
    1STR   H08560929  30.608   0.057  50.278
    1STR   C08660930  30.332   0.043  50.293
    1STR   H08760931  30.316   0.150  50.303
    1STR   H08860932  30.234  60.157  50.276
    1STR   O08960933  30.392  60.149  50.411
    1STR   C09060934  30.320   0.012  50.532
    1STR   H09160935  30.283   0.115  50.534
    1STR   C09260936  30.203  60.074  50.542
    1STR   H09360937  30.237  59.971  50.535
    1STR   H09460938  30.128  60.090  50.464
    1STR   H09560939  30.152  60.085  50.638
    1STR   C09660940  30.419  60.155  50.648
    1STR   H09760941  30.457  60.052  50.649
    1STR   H09860942  30.505   0.060  50.632
    1STR   O09960943  30.354   0.026  50.771
    1STR   C10060944  30.434   0.010  50.888
    1STR   H10160945  30.491  60.077  50.882
    1STR   C10260946  30.529   0.129  50.903
    1STR   H10360947  30.474   0.223  50.904
    1STR   H10460948  30.602   0.134  50.822
    1STR   H10560949  30.585   0.122  50.996
    1STR   C10660950  30.338  60.159  51.007
    1STR   H10760951  30.280   0.091  51.018
    1STR   H10860952  30.267  60.078  50.989
    1STR   O10960953  30.413  60.133  51.126
    1STR   C11060954  30.336  60.124  51.245
    1STR   H11160955  30.261   0.043  51.248
    1STR   C11260956  30.268  59.986  51.254
    1STR   H11360957  30.341  59.906  51.247
    1STR   H11460958  30.194  59.972  51.175
    1STR   H11560959  30.215  59.975  51.349
    1STR   C11660960  30.432  60.146  51.363
    1STR   H11760961  30.508  60.067  51.365
    1STR   H11860962  30.484   0.081  51.349
    1STR   O11960963  30.358  60.148  51.485
    1STR   C12060964  30.436   0.003  51.603
    1STR   H12160965  30.526  60.101  51.598
    1STR   C12260966  30.476   0.151  51.620
    1STR   H12360967  30.388   0.215  51.621
    1STR   H12460968  30.542   0.185  51.541
    1STR   H12560969  30.529   0.166  51.715
    1STR   C12660970  30.351  60.114  51.721
    1STR   H12760971  30.261   0.015  51.731
    1STR   H12860972  30.318  60.012  51.701
    1STR   O12960973  30.429  60.119  51.841
    1STR   C13060974  30.360  60.079  51.959
    1STR   H13160975  30.259  60.122  51.960
    1STR   C13260976  30.352  59.926  51.966
    1STR   H13360977  30.451  59.881  51.959
    1STR   H13460978  30.291  59.884  51.885
    1STR   H13560979  30.307  59.894  52.060
    1STR   C13660980  30.438  60.136  52.078
    1STR   H13760981  30.538  60.095  52.081
    1STR   H13860982  30.448   0.084  52.065
    1STR   O13960983  30.367  60.107  52.199
    1STR   C14060984  30.431  60.152  52.318
    1STR   H14160985  30.538  60.131  52.314
    1STR   C14260986  30.408   0.143  52.337
    1STR   H14360987  30.302   0.167  52.336
    1STR   H14460988  30.456   0.202  52.259
    1STR   H14560989  30.449   0.177  52.432
    1STR   C14660990  30.371  60.071  52.435
    1STR   H14760991  30.264  60.092  52.443
    1STR   H14860992  30.383  59.965  52.414
    1STR   O14960993  30.439  60.106  52.556
    1STR   C15060994  30.390  60.041  52.673
    1STR   H15160995  30.281  60.040  52.673
    1STR   C15260996  30.444  59.897  52.679
    1STR   H15360997  30.553  59.896  52.674
    1STR   H15460998  30.406  59.835  52.598
    1STR   H15560999  30.415  59.849  52.772
    1STR   C15661000  30.437  60.124  52.793
    1STR   H15761001  30.546  60.125  52.798
    1STR   H15861002  30.403   0.067  52.781
    1STR   O15961003  30.383  60.068  52.913
    1STR   C16061004  30.422  60.133  53.033
    1STR   H16161005  30.528  60.156  53.031
    1STR   C16261006  30.340   0.102  53.052
    1STR   H16361007  30.233   0.081  53.050
    1STR   H16461008  30.361   0.176  52.975
    1STR   H16561009  30.362   0.148  53.148
    1STR   C16661010  30.397  60.034  53.149
    1STR   H16761011  30.291  60.010  53.155
    1STR   H16861012  30.450  59.941  53.127
    1STR   O16961013  30.444  60.091  53.271
    1STR   C17061014  30.424  60.011  53.387
    1STR   H17161015  30.324  59.967  53.385
    1STR   C17261016  30.531  59.901  53.393
    1STR   H17361017  30.631  59.943  53.390
    1STR   H17461018  30.522  59.830  53.311
    1STR   H17561019  30.522  59.844  53.486
    1STR   C17661020  30.432  60.104  53.508
    1STR   H17761021  30.531  60.149  53.514
    1STR   H17861022  30.360   0.026  53.496
    1STR   O17961023  30.403  60.030  53.627
    1STR   C18061024  30.411  60.105  53.748
    1STR   H18161025  30.499   0.009  53.747
    1STR   C18261026  30.284   0.030  53.766
    1STR   H18361027  30.194  60.128  53.762
    1STR   H18461028  30.275   0.107  53.689
    1STR   H18561029  30.285   0.081  53.862
    1STR   C18661030  30.427  60.003  53.863
    1STR   H18761031  30.339  59.939  53.867
    1STR   H18861032  30.512  59.940  53.842
    1STR   O18961033  30.445  60.073  53.985
    1STR   C19061034  30.456  59.990  54.101
    1STR   H19161035  30.383  59.910  54.097
    1STR   C19261036  30.598  59.932  54.109
    1STR   H19361037  30.674  60.011  54.108
    1STR   H19461038  30.620  59.864  54.026
    1STR   H19561039  30.611  59.875  54.201
    1STR   C19661040  30.425  60.078  54.223
    1STR   H19761041  30.498  60.159  54.231
    1STR   H19861042  30.327  60.124  54.209
    1STR   O19961043  30.426  59.997  54.341
    1STR   C20061044  30.402  60.068  54.462
    1STR   H20161045  30.458   0.002  54.463
    1STR   C20261046  30.252  60.095  54.478
    1STR   H20361047  30.194  60.002  54.473
    1STR   H20461048  30.214   0.002  54.402
    1STR   H20561049  30.231  60.141  54.575
    1STR   C20661050  30.456  59.980  54.577
    1STR   H20761051  30.401  59.885  54.580
    1STR   H20861052  30.560  59.956  54.557
    1STR   O20961053  30.442  60.050  54.700
    1STR   C21061054  30.485  59.978  54.815
    1STR   H21161055  30.450  59.875  54.811
    1STR   C21261056  30.638  59.981  54.826
    1STR   H21361057  30.676  60.083  54.826
    1STR   H21461058  30.686  59.928  54.743
    1STR   H21561059  30.672  59.933  54.918
    1STR   C21661060  30.419  60.045  54.938
    1STR   H21761061  30.454  60.148  54.947
    1STR   H21861062  30.311  60.048  54.922
    1STR   O21961063  30.451  59.970  55.055
    1STR   C22061064  30.399  60.023  55.176
    1STR   H22161065  30.413  60.132  55.179
    1STR   C22261066  30.250  59.988  55.190
    1STR   H22361067  30.235  59.880  55.183
    1STR   H22461068  30.190  60.036  55.113
    1STR   H22561069  30.211  60.021  55.286
    1STR   C22661070  30.482  59.963  55.291
    1STR   H22761071  30.470  59.855  55.293
    1STR   H22861072  30.587  59.984  55.273
    1STR   O22961073  30.440  60.021  55.415
    1STR   C23061074  30.506  59.971  55.530
    1STR   H23161075  30.515  59.862  55.525
    1STR   C23261076  30.645  60.035  55.543
    1STR   H23361077  30.639  60.144  55.544
    1STR   H23461078  30.712  60.006  55.461
    1STR   H23561079  30.694  60.004  55.636
    1STR   C23661080  30.418  60.004  55.652
    1STR   H23761081  30.408  60.113  55.662
    1STR   H23861082  30.318  59.964  55.635
    1STR   O23961083  30.475  59.948  55.769
    1STR   C24061084  30.405  59.975  55.890
    1STR   H24161085  30.373  60.080  55.893
    1STR   C24261086  30.282  59.883  55.901
    1STR   H24361087  30.311  59.778  55.894
    1STR   H24461088  30.208  59.903  55.823
    1STR   H24561089  30.232  59.897  55.997
    1STR   C24661090  30.503  59.952  56.006
    1STR   H24761091  30.535  59.848  56.007
    1STR   H24861092  30.592  60.013  55.990
    1STR   O24961093  30.440  59.987  56.129
    1STR   C25061094  30.519  59.966  56.245
    1STR   H25161095  30.571  59.870  56.239
    1STR   C25261096  30.621  60.081  56.261
    1STR   H25361097  30.571   0.018  56.262
    1STR   H25461098  30.694  60.081  56.180
    1STR   H25561099  30.676  60.070  56.354
    1STR   C25661100  30.423  59.961  56.365
    1STR   H25761101  30.370  60.056  56.375
    1STR   H25861102  30.347  59.884  56.347
    1STR   O25961103  30.496  59.930  56.483
    1STR   C26061104  30.419  59.926  56.603
    1STR   H26161105  30.349  60.010  56.606
    1STR   C26261106  30.343  59.793  56.612
    1STR   H26361107  30.412  59.708  56.605
    1STR   H26461108  30.269  59.782  56.533
    1STR   H26561109  30.290  59.785  56.707
    1STR   C26661110  30.517  59.943  56.721
    1STR   H26761111  30.588  59.860  56.722
    1STR   H26861112  30.574  60.034  56.706
    1STR   O26961113  30.443  59.949  56.843
    1STR   C27061114  30.522  59.961  56.960
    1STR   H27161115  30.608  59.893  56.955
    1STR   C27261116  30.570  60.106  56.978
    1STR   H27361117  30.485   0.015  56.979
    1STR   H27461118  30.637  60.137  56.898
    1STR   H27561119  30.623  60.118  57.072
    1STR   C27661120  30.435  59.916  57.078
    1STR   H27761121  30.349  59.982  57.088
    1STR   H27861122  30.397  59.816  57.058
    1STR   O27961123  30.513  59.916  57.198
    1STR   C28061124  30.442  59.881  57.316
    1STR   H28161125  30.344  59.929  57.318
    1STR   C28261126  30.426  59.728  57.323
    1STR   H28361127  30.523  59.678  57.317
    1STR   H28461128  30.363  59.689  57.244
    1STR   H28561129  30.380  59.699  57.418
    1STR   C28661130  30.524  59.934  57.435
    1STR   H28761131  30.622  59.887  57.437
    1STR   H28861132  30.540  60.041  57.422
    1STR   O28961133  30.452  59.909  57.556
    1STR   C29061134  30.519  59.950  57.675
    1STR   H29161135  30.625  59.923  57.670
    1STR   C29261136  30.504  60.102  57.694
    1STR   H29361137  30.399  60.131  57.694
    1STR   H29461138  30.555  60.158  57.615
    1STR   H29561139  30.547  60.133  57.789
    1STR   C29661140  30.455  59.873  57.791
    1STR   H29761141  30.350  59.899  57.799
    1STR   H29861142  30.460  59.766  57.770
    1STR   O29961143  30.525  59.903  57.911
    1STR   C30061144  30.472  59.841  58.028
    1STR   H30161145  30.363  59.845  58.027
    1STR   C30261146  30.519  59.694  58.035
    1STR   H30361147  30.628  59.688  58.031
    1STR   H30461148  30.478  59.634  57.954
    1STR   H30561149  30.486  59.648  58.129
    1STR   C30661150  30.522  59.922  58.149
    1STR   H30761151  30.631  59.917  58.154
    1STR   H30861152  30.494  60.026  58.135
    1STR   O30961153  30.462  59.870  58.267
    1STR    H1R61154  30.609  59.952  58.388
    1STR    H1S61155  30.451  60.116  58.497
    1STR    H1T61156  30.317  60.051  58.404
    1STR    H1U61157  30.448  60.137  58.324
    1STR    H1V61158  30.513  59.738  58.479
    1STR    H1W61159  30.361  59.818  58.510
    1STR    H1X61160  30.624  59.957  58.800
    1STR    H1Y61161  30.703  60.110  58.962
    1STR    H1Z61162  30.658   0.088  59.160
    1STR    H2061163  30.325   0.195  59.269
    1STR    H2161164  30.416   0.086  59.373
    1STR    H2261165  30.498   0.218  59.290
    1STR    H2361166  30.148   0.057  59.116
    1STR    H2761167  30.282  60.011  58.938
    1STR    H2861168  30.545   0.168  46.503
    1STR    H2961169  30.617   0.142  46.276
    1STR    H2A61170  30.435  60.128  46.014
    1STR    H2B61171  30.588   0.038  46.063
    1STR    H2C61172  30.463   0.142  45.996
    1STR   BCK161173  30.067  15.069   0.874
    1STR    O0361174  29.976  15.057   0.793
    1STR    N0461175  30.056  15.098   1.005
    1STR    C0561176  29.947  15.125   1.090
    1STR    C0661177  29.960  15.092   1.228
    1STR    C0761178  29.857  15.118   1.324
    1STR    N0861179  29.878  15.090   1.461
    1STR    C0961180  29.798  15.113   1.567
    1STR    O0A61181  29.685  15.160   1.561
    1STR    O0B61182  29.857  15.077   1.685
    1STR    C0C61183  29.783  15.087   1.809
    1STR    C0D61184  29.692  14.964   1.823
    1STR    C0E61185  29.875  15.103   1.932
    1STR    O0F61186  29.796  15.115   2.052
    1STR    C0G61187  29.868  15.135   2.174
    1STR    C0H61188  29.914  15.281   2.184
    1STR    C0I61189  29.777  15.099   2.295
    1STR    O0J61190  29.850  15.111   2.417
    1STR    C0K61191  29.923  15.482  13.273
    1STR    C0M61192  29.888  15.333  13.283
    1STR    C0N61193  30.014  15.527  13.388
    1STR    O0O61194  29.946  15.521  13.513
    1STR    C0P61195  29.974  15.425  13.602
    1STR    O0Q61196  30.054  15.333  13.586
    1STR    N0R61197  29.900  15.445  13.711
    1STR    C0S61198  29.890  15.374  13.832
    1STR    C0T61199  29.785  15.411  13.919
    1STR    C0U61200  29.766  15.344  14.041
    1STR    C0V61201  29.851  15.238  14.079
    1STR    C0W61202  29.821  15.163  14.207
    1STR    C0X61203  29.959  15.202  13.995
    1STR    N0Y61204  30.042  15.095  14.028
    1STR   BCK261205  30.118  15.080  14.136
    1STR    O1061206  30.139  15.167  14.220
    1STR    C1361207  29.977  15.269  13.872
    1STR    C1461208  29.737  15.174   1.275
    1STR    C1561209  29.723  15.210   1.140
    1STR    C1661210  29.828  15.191   1.048
    1STR    C1761211  29.807  15.250   0.910
    1STR    H1B61212  30.146  15.095   1.050
    1STR    H1C61213  30.051  15.046   1.262
    1STR    H1D61214  29.966  15.049   1.488
    1STR    H1E61215  29.720  15.176   1.805
    1STR    H1F61216  29.750  14.872   1.828
    1STR    H1G61217  29.631  14.970   1.913
    1STR    H1H61218  29.623  14.955   1.738
    1STR    H1I61219  29.937  15.192   1.918
    1STR    H1J61220  29.942  15.018   1.940
    1STR    H1K61221  29.955  15.068   2.177
    1STR    H1M61222  29.829  15.349   2.177
    1STR    H1N61223  29.984  15.308   2.105
    1STR    H1O61224  29.963  15.300   2.279
    1STR    H1P61225  29.689  15.163   2.296
    1STR    H1Q61226  29.741  14.997   2.283
    1STR   C01061227  29.777  15.086   2.538
    1STR   H01161228  29.680  15.137   2.534
    1STR   C01261229  29.757  14.935   2.556
    1STR   H01361230  29.852  14.882   2.556
    1STR   H01461231  29.694  14.892   2.479
    1STR   H01561232  29.708  14.914   2.652
    1STR   C01661233  29.856  15.146   2.657
    1STR   H01761234  29.954  15.099   2.663
    1STR   H01861235  29.873  15.252   2.638
    1STR   O01961236  29.785  15.128   2.780
    1STR   C02061237  29.851  15.176   2.897
    1STR   H02161238  29.956  15.147   2.895
    1STR   C02261239  29.839  15.329   2.905
    1STR   H02361240  29.735  15.361   2.903
    1STR   H02461241  29.891  15.379   2.823
    1STR   H02561242  29.883  15.367   2.998
    1STR   C02661243  29.787  15.110   3.021
    1STR   H02761244  29.681  15.137   3.027
    1STR   H02861245  29.792  15.001   3.009
    1STR   O02961246  29.855  15.150   3.140
    1STR   C03061247  29.803  15.099   3.262
    1STR   H03161248  29.694  15.105   3.262
    1STR   C03261249  29.847  14.952   3.281
    1STR   H03361250  29.955  14.943   3.277
    1STR   H03461251  29.805  14.887   3.205
    1STR   H03561252  29.814  14.914   3.377
    1STR   C03661253  29.855  15.187   3.378
    1STR   H03761254  29.964  15.182   3.382
    1STR   H03861255  29.828  15.291   3.358
    1STR   O03961256  29.798  15.143   3.502
    1STR   C04061257  29.842  15.214   3.618
    1STR   H04161258  29.950  15.230   3.614
    1STR   C04261259  29.769  15.350   3.626
    1STR   H04361260  29.661  15.336   3.626
    1STR   H04461261  29.796  15.416   3.544
    1STR   H04561262  29.795  15.401   3.719
    1STR   C04661263  29.811  15.127   3.741
    1STR   H04761264  29.703  15.110   3.749
    1STR   H04861265  29.858  15.029   3.728
    1STR   O04961266  29.860  15.190   3.859
    1STR   C05061267  29.835  15.121   3.981
    1STR   H05161268  29.732  15.084   3.982
    1STR   C05261269  29.934  15.005   3.997
    1STR   H05361270  30.037  15.040   3.991
    1STR   H05461271  29.920  14.928   3.921
    1STR   H05561272  29.921  14.956   4.094
    1STR   C05661273  29.849  15.223   4.096
    1STR   H05761274  29.951  15.261   4.099
    1STR   H05861275  29.783  15.307   4.077
    1STR   O05961276  29.816  15.160   4.220
    1STR   C06061277  29.829  15.242   4.336
    1STR   H06161278  29.922  15.300   4.330
    1STR   C06261279  29.709  15.337   4.346
    1STR   H06361280  29.615  15.282   4.347
    1STR   H06461281  29.705  15.409   4.264
    1STR   H06561282  29.713  15.395   4.439
    1STR   C06661283  29.838  15.149   4.458
    1STR   H06761284  29.746  15.091   4.467
    1STR   H06861285  29.919  15.079   4.443
    1STR   O06961286  29.860  15.227   4.575
    1STR   C07061287  29.867  15.153   4.697
    1STR   H07161288  29.788  15.078   4.699
    1STR   C07261289  30.004  15.086   4.710
    1STR   H07361290  30.084  15.159   4.703
    1STR   H07461291  30.021  15.010   4.634
    1STR   H07561292  30.013  15.036   4.807
    1STR   C07661293  29.841  15.251   4.812
    1STR   H07761294  29.919  15.328   4.814
    1STR   H07861295  29.747  15.303   4.795
    1STR   O07961296  29.837  15.180   4.936
    1STR   C08061297  29.818  15.261   5.052
    1STR   H08161298  29.880  15.351   5.046
    1STR   C08261299  29.670  15.299   5.065
    1STR   H08361300  29.606  15.211   5.066
    1STR   H08461301  29.637  15.364   4.983
    1STR   H08561302  29.652  15.354   5.158
    1STR   C08661303  29.866  15.179   5.173
    1STR   H08761304  29.805  15.089   5.183
    1STR   H08861305  29.968  15.147   5.156
    1STR   O08961306  29.857  15.259   5.291
    1STR   C09061307  29.894  15.193   5.411
    1STR   H09161308  29.852  15.092   5.414
    1STR   C09261309  30.048  15.186   5.422
    1STR   H09361310  30.092  15.286   5.415
    1STR   H09461311  30.092  15.124   5.345
    1STR   H09561312  30.078  15.144   5.518
    1STR   C09661313  29.834  15.273   5.528
    1STR   H09761314  29.875  15.374   5.529
    1STR   H09861315  29.726  15.282   5.512
    1STR   O09961316  29.860  15.206   5.651
    1STR   C10061317  29.812  15.272   5.768
    1STR   H10161318  29.833  15.379   5.762
    1STR   C10261319  29.661  15.248   5.783
    1STR   H10361320  29.638  15.141   5.784
    1STR   H10461321  29.604  15.294   5.702
    1STR   H10561322  29.625  15.291   5.876
    1STR   C10661323  29.890  15.215   5.887
    1STR   H10761324  29.871  15.108   5.897
    1STR   H10861325  29.997  15.227   5.868
    1STR   O10961326  29.853  15.285   6.006
    1STR   C11061327  29.916  15.239   6.125
    1STR   H11161328  29.917  15.130   6.128
    1STR   C11261329  30.059  15.295   6.134
    1STR   H11361330  30.059  15.403   6.126
    1STR   H11461331  30.123  15.255   6.055
    1STR   H11561332  30.105  15.268   6.229
    1STR   C11661333  29.830  15.288   6.243
    1STR   H11761334  29.827  15.397   6.245
    1STR   H11861335  29.727  15.254   6.229
    1STR   O11961336  29.883  15.237   6.365
    1STR   C12061337  29.815  15.278   6.483
    1STR   H12161338  29.791  15.384   6.478
    1STR   C12261339  29.686  15.196   6.500
    1STR   H12361340  29.708  15.089   6.501
    1STR   H12461341  29.614  15.215   6.421
    1STR   H12561342  29.637  15.220   6.595
    1STR   C12661343  29.911  15.257   6.601
    1STR   H12761344  29.936  15.151   6.610
    1STR   H12861345  30.004  15.310   6.581
    1STR   O12961346  29.851  15.306   6.721
    1STR   C13061347  29.929  15.288   6.839
    1STR   H13161348  29.974  15.189   6.840
    1STR   C13261349  30.038  15.396   6.846
    1STR   H13361350  29.995  15.496   6.839
    1STR   H13461351  30.111  15.386   6.766
    1STR   H13561352  30.093  15.390   6.940
    1STR   C13661353  29.832  15.299   6.958
    1STR   H13761354  29.786  15.397   6.961
    1STR   H13861355  29.752  15.226   6.945
    1STR   O13961356  29.904  15.273   7.079
    1STR   C14061357  29.827  15.283   7.198
    1STR   H14161358  29.762  15.371   7.194
    1STR   C14261359  29.742  15.156   7.217
    1STR   H14361360  29.804  15.067   7.216
    1STR   H14461361  29.667  15.145   7.139
    1STR   H14561362  29.689  15.159   7.312
    1STR   C14661363  29.925  15.302   7.315
    1STR   H14761364  29.990  15.215   7.323
    1STR   H14861365  29.989  15.388   7.294
    1STR   O14961366  29.852  15.322   7.436
    1STR   C15061367  29.932  15.337   7.553
    1STR   H15161368  30.013  15.264   7.553
    1STR   C15261369  29.989  15.480   7.559
    1STR   H15361370  29.910  15.554   7.554
    1STR   H15461371  30.059  15.500   7.478
    1STR   H15561372  30.044  15.495   7.652
    1STR   C15661373  29.842  15.308   7.673
    1STR   H15761374  29.760  15.380   7.678
    1STR   H15861375  29.797  15.209   7.661
    1STR   O15961376  29.919  15.312   7.793
    1STR   C16061377  29.847  15.291   7.913
    1STR   H16161378  29.752  15.346   7.911
    1STR   C16261379  29.820  15.140   7.932
    1STR   H16361380  29.913  15.083   7.930
    1STR   H16461381  29.754  15.100   7.855
    1STR   H16561382  29.772  15.121   8.028
    1STR   C16661383  29.931  15.347   8.029
    1STR   H16761384  30.026  15.294   8.035
    1STR   H16861385  29.955  15.451   8.007
    1STR   O16961386  29.858  15.336   8.151
    1STR   C17061387  29.927  15.382   8.267
    1STR   H17161388  30.031  15.347   8.265
    1STR   C17261389  29.923  15.535   8.273
    1STR   H17361390  29.820  15.572   8.270
    1STR   H17461391  29.977  15.582   8.191
    1STR   H17561392  29.968  15.571   8.366
    1STR   C17661393  29.858  15.318   8.388
    1STR   H17761394  29.755  15.352   8.394
    1STR   H17861395  29.856  15.210   8.376
    1STR   O17961396  29.930  15.353   8.507
    1STR   C18061397  29.874  15.304   8.628
    1STR   H18161398  29.765  15.317   8.627
    1STR   C18261399  29.909  15.156   8.646
    1STR   H18361400  30.017  15.140   8.642
    1STR   H18461401  29.864  15.093   8.569
    1STR   H18561402  29.874  15.119   8.742
    1STR   C18661403  29.930  15.389   8.743
    1STR   H18761404  30.039  15.378   8.747
    1STR   H18861405  29.910  15.494   8.722
    1STR   O18961406  29.870  15.350   8.866
    1STR   C19061407  29.917  15.419   8.981
    1STR   H19161408  30.026  15.429   8.977
    1STR   C19261409  29.852  15.558   8.989
    1STR   H19361410  29.743  15.551   8.988
    1STR   H19461411  29.883  15.623   8.906
    1STR   H19561412  29.881  15.609   9.081
    1STR   C19661413  29.881  15.333   9.103
    1STR   H19761414  29.773  15.323   9.111
    1STR   H19861415  29.922  15.233   9.090
    1STR   O19961416  29.935  15.394   9.221
    1STR   C20061417  29.905  15.326   9.342
    1STR   H20161418  29.800  15.294   9.343
    1STR   C20261419  29.997  15.204   9.358
    1STR   H20361420  30.102  15.233   9.353
    1STR   H20461421  29.979  15.128   9.282
    1STR   H20561422  29.982  15.156   9.455
    1STR   C20661423  29.925  15.426   9.457
    1STR   H20761424  30.029  15.459   9.460
    1STR   H20861425  29.864  15.515   9.437
    1STR   O20961426  29.887  15.366   9.580
    1STR   C21061427  29.905  15.448   9.695
    1STR   H21161428  30.000  15.500   9.691
    1STR   C21261429  29.789  15.549   9.706
    1STR   H21361430  29.693  15.499   9.706
    1STR   H21461431  29.790  15.621   9.623
    1STR   H21561432  29.797  15.607   9.798
    1STR   C21661433  29.908  15.354   9.818
    1STR   H21761434  29.813  15.302   9.827
    1STR   H21861435  29.985  15.279   9.803
    1STR   O21961436  29.935  15.431   9.935
    1STR   C22061437  29.937  15.356  10.056
    1STR   H22161438  29.854  15.286  10.059
    1STR   C22261439  30.071  15.282  10.070
    1STR   H22361440  30.155  15.351  10.063
    1STR   H22461441  30.083  15.206   9.993
    1STR   H22561442  30.077  15.231  10.166
    1STR   C22661443  29.916  15.456  10.171
    1STR   H22761444  29.999  15.528  10.173
    1STR   H22861445  29.825  15.513  10.154
    1STR   O22961446  29.908  15.386  10.295
    1STR   C23061447  29.893  15.467  10.411
    1STR   H23161448  29.960  15.554  10.405
    1STR   C23261449  29.747  15.514  10.423
    1STR   H23361450  29.679  15.429  10.424
    1STR   H23461451  29.718  15.580  10.342
    1STR   H23561452  29.733  15.569  10.516
    1STR   C23661453  29.936  15.383  10.532
    1STR   H23761454  29.871  15.296  10.542
    1STR   H23861455  30.037  15.345  10.515
    1STR   O23961456  29.932  15.463  10.649
    1STR   C24061457  29.966  15.396  10.770
    1STR   H24161458  29.918  15.297  10.773
    1STR   C24261459  30.118  15.381  10.781
    1STR   H24361460  30.168  15.478  10.774
    1STR   H24461461  30.159  15.316  10.703
    1STR   H24561462  30.146  15.337  10.877
    1STR   C24661463  29.909  15.479  10.886
    1STR   H24761464  29.955  15.578  10.888
    1STR   H24861465  29.802  15.494  10.870
    1STR   O24961466  29.932  15.410  11.009
    1STR   C25061467  29.887  15.479  11.126
    1STR   H25161468  29.914  15.585  11.120
    1STR   C25261469  29.735  15.464  11.141
    1STR   H25361470  29.706  15.359  11.142
    1STR   H25461471  29.680  15.513  11.060
    1STR   H25561472  29.701  15.508  11.234
    1STR   C25661473  29.962  15.418  11.246
    1STR   H25761474  29.936  15.313  11.256
    1STR   H25861475  30.069  15.424  11.227
    1STR   O25961476  29.928  15.490  11.364
    1STR   C26061477  29.988  15.441  11.484
    1STR   H26161478  29.983  15.332  11.487
    1STR   C26261479  30.134  15.489  11.492
    1STR   H26361480  30.140  15.597  11.485
    1STR   H26461481  30.196  15.446  11.414
    1STR   H26561482  30.178  15.459  11.587
    1STR   C26661483  29.905  15.495  11.602
    1STR   H26761484  29.908  15.604  11.603
    1STR   H26861485  29.800  15.466  11.587
    1STR   O26961486  29.955  15.441  11.724
    1STR   C27061487  29.889  15.486  11.842
    1STR   H27161488  29.871  15.594  11.836
    1STR   C27261489  29.756  15.411  11.858
    1STR   H27361490  29.771  15.303  11.859
    1STR   H27461491  29.685  15.434  11.779
    1STR   H27561492  29.708  15.438  11.953
    1STR   C27661493  29.983  15.460  11.960
    1STR   H27761494  30.002  15.353  11.969
    1STR   H27861495  30.079  15.508  11.940
    1STR   O27961496  29.925  15.512  12.079
    1STR   C28061497  30.001  15.490  12.198
    1STR   H28161498  30.041  15.389  12.200
    1STR   C28261499  30.116  15.592  12.205
    1STR   H28361500  30.079  15.694  12.198
    1STR   H28461501  30.189  15.577  12.126
    1STR   H28561502  30.170  15.583  12.300
    1STR   C28661503  29.905  15.506  12.317
    1STR   H28761504  29.865  15.607  12.319
    1STR   H28861505  29.821  15.438  12.304
    1STR   O28961506  29.975  15.477  12.438
    1STR   C29061507  29.898  15.492  12.557
    1STR   H29161508  29.838  15.583  12.553
    1STR   C29261509  29.806  15.370  12.575
    1STR   H29361510  29.864  15.277  12.575
    1STR   H29461511  29.731  15.363  12.497
    1STR   H29561512  29.753  15.375  12.671
    1STR   C29661513  29.997  15.505  12.674
    1STR   H29761514  30.057  15.415  12.683
    1STR   H29861515  30.065  15.588  12.654
    1STR   O29961516  29.925  15.529  12.795
    1STR   C30061517  30.005  15.539  12.912
    1STR   H30161518  30.083  15.463  12.911
    1STR   C30261519  30.069  15.679  12.920
    1STR   H30361520  29.994  15.757  12.915
    1STR   H30461521  30.140  15.696  12.839
    1STR   H30561522  30.124  15.691  13.013
    1STR   C30661523  29.914  15.512  13.033
    1STR   H30761524  29.837  15.590  13.041
    1STR   H30861525  29.863  15.417  13.018
    1STR   O30961526  29.994  15.508  13.152
    1STR    H1R61527  29.832  15.543  13.276
    1STR    H1S61528  29.838  15.311  13.377
    1STR    H1T61529  29.978  15.272  13.279
    1STR    H1U61530  29.821  15.300  13.203
    1STR    H1V61531  30.045  15.630  13.373
    1STR    H1W61532  30.107  15.469  13.389
    1STR    H1X61533  29.842  15.525  13.700
    1STR    H1Y61534  29.717  15.490  13.892
    1STR    H1Z61535  29.683  15.372  14.104
    1STR    H2061536  29.843  15.056  14.196
    1STR    H2161537  29.883  15.201  14.288
    1STR    H2261538  29.716  15.172  14.236
    1STR    H2361539  30.047  15.018  13.962
    1STR    H2761540  30.059  15.240  13.808
    1STR    H2861541  29.653  15.194   1.338
    1STR    H2961542  29.631  15.257   1.108
    1STR    H2A61543  29.901  15.288   0.869
    1STR    H2B61544  29.738  15.334   0.913
    1STR    H2C61545  29.766  15.175   0.842
    1STR   BCK161546  30.217  15.023  15.944
    1STR    O0361547  30.334  14.990  15.927
    1STR    N0461548  30.144  14.989  16.050
    1STR    C0561549  30.177  14.892  16.145
    1STR    C0661550  30.183  14.924  16.283
    1STR    C0761551  30.212  14.825  16.381
    1STR    N0861552  30.214  14.860  16.517
    1STR    C0961553  30.257  14.790  16.624
    1STR    O0A61554  30.311  14.680  16.618
    1STR    O0B61555  30.234  14.856  16.740
    1STR    C0C61556  30.280  14.800  16.864
    1STR    C0D61557  30.429  14.832  16.882
    1STR    C0E61558  30.196  14.851  16.982
    1STR    O0F61559  30.242  14.789  17.103
    1STR    C0G61560  30.173  14.825  17.223
    1STR    C0H61561  30.040  14.749  17.231
    1STR    C0I61562  30.263  14.790  17.343
    1STR    O0J61563  30.201  14.832  17.464
    1STR    C0K61564  29.889  14.618  28.300
    1STR    C0M61565  30.021  14.695  28.314
    1STR    C0N61566  29.787  14.657  28.409
    1STR    O0O61567  29.828  14.605  28.534
    1STR    C0P61568  29.890  14.682  28.624
    1STR    O0Q61569  29.916  14.801  28.613
    1STR    N0R61570  29.920  14.604  28.727
    1STR    C0S61571  29.986  14.627  28.848
    1STR    C0T61572  30.004  14.513  28.929
    1STR    C0U61573  30.072  14.522  29.051
    1STR    C0V61574  30.124  14.645  29.094
    1STR    C0W61575  30.208  14.645  29.221
    1STR    C0X61576  30.103  14.763  29.017
    1STR    N0Y61577  30.159  14.884  29.058
    1STR   BCK261578  30.145  14.941  29.178
    1STR    O1061579  30.054  14.915  29.256
    1STR    C1361580  30.035  14.752  28.893
    1STR    C1461581  30.234  14.693  16.336
    1STR    C1561582  30.227  14.660  16.200
    1STR    C1661583  30.196  14.758  16.104
    1STR    C1761584  30.180  14.714  15.959
    1STR    H1B61585  30.054  15.033  16.056
    1STR    H1C61586  30.167  15.026  16.313
    1STR    H1D61587  30.180  14.951  16.544
    1STR    H1E61588  30.267  14.691  16.860
    1STR    H1F61589  30.447  14.939  16.887
    1STR    H1G61590  30.467  14.787  16.974
    1STR    H1H61591  30.488  14.791  16.800
    1STR    H1I61592  30.091  14.828  16.965
    1STR    H1J61593  30.203  14.960  16.990
    1STR    H1K61594  30.155  14.933  17.224
    1STR    H1M61595  30.056  14.641  17.225
    1STR    H1N61596  29.971  14.777  17.151
    1STR    H1O61597  29.989  14.770  17.325
    1STR    H1P61598  30.283  14.683  17.345
    1STR    H1Q61599  30.360  14.840  17.330
    1STR   C01061600  30.272  14.802  17.584
    1STR   H01161601  30.310  14.699  17.581
    1STR   C01261602  30.390  14.899  17.602
    1STR   H01361603  30.355  15.003  17.602
    1STR   H01461604  30.465  14.889  17.525
    1STR   H01561605  30.440  14.882  17.698
    1STR   C01661606  30.173  14.811  17.702
    1STR   H01761607  30.133  14.913  17.708
    1STR   H01861608  30.089  14.745  17.682
    1STR   O01961609  30.237  14.775  17.824
    1STR   C02061610  30.156  14.784  17.941
    1STR   H02161611  30.098  14.877  17.939
    1STR   C02261612  30.062  14.663  17.949
    1STR   H02361613  30.118  14.569  17.946
    1STR   H02461614  29.990  14.661  17.867
    1STR   H02561615  30.004  14.664  18.042
    1STR   C02661616  30.249  14.790  18.064
    1STR   H02761617  30.308  14.699  18.070
    1STR   H02861618  30.318  14.873  18.052
    1STR   O02961619  30.171  14.807  18.183
    1STR   C03061620  30.245  14.810  18.305
    1STR   H03161621  30.321  14.731  18.305
    1STR   C03261622  30.311  14.947  18.323
    1STR   H03361623  30.237  15.027  18.319
    1STR   H03461624  30.387  14.967  18.247
    1STR   H03561625  30.361  14.954  18.420
    1STR   C03661626  30.147  14.780  18.420
    1STR   H03761627  30.070  14.857  18.424
    1STR   H03861628  30.096  14.686  18.400
    1STR   O03961629  30.218  14.773  18.544
    1STR   C04061630  30.138  14.750  18.659
    1STR   H04161631  30.048  14.812  18.656
    1STR   C04261632  30.100  14.602  18.668
    1STR   H04361633  30.189  14.538  18.667
    1STR   H04461634  30.036  14.571  18.586
    1STR   H04561635  30.046  14.581  18.760
    1STR   C04661636  30.220  14.794  18.782
    1STR   H04761637  30.310  14.734  18.790
    1STR   H04861638  30.251  14.898  18.769
    1STR   O04961639  30.140  14.781  18.900
    1STR   C05061640  30.206  14.814  19.022
    1STR   H05161641  30.307  14.773  19.023
    1STR   C05261642  30.212  14.967  19.038
    1STR   H05361643  30.113  15.011  19.032
    1STR   H05461644  30.274  15.014  18.962
    1STR   H05561645  30.255  14.994  19.135
    1STR   C05661646  30.127  14.750  19.137
    1STR   H05761647  30.025  14.790  19.140
    1STR   H05861648  30.118  14.643  19.118
    1STR   O05961649  30.194  14.773  19.261
    1STR   C06061650  30.129  14.721  19.376
    1STR   H06161651  30.021  14.741  19.371
    1STR   C06261652  30.154  14.570  19.387
    1STR   H06361653  30.260  14.547  19.387
    1STR   H06461654  30.108  14.515  19.305
    1STR   H06561655  30.111  14.530  19.479
    1STR   C06661656  30.185  14.796  19.498
    1STR   H06761657  30.292  14.777  19.508
    1STR   H06861658  30.172  14.903  19.483
    1STR   O06961659  30.116  14.754  19.616
    1STR   C07061660  30.161  14.812  19.737
    1STR   H07161661  30.270  14.814  19.740
    1STR   C07261662  30.105  14.955  19.751
    1STR   H07361663  29.997  14.955  19.744
    1STR   H07461664  30.144  15.022  19.674
    1STR   H07561665  30.132  14.998  19.847
    1STR   C07661666  30.113  14.722  19.853
    1STR   H07761667  30.004  14.719  19.854
    1STR   H07861668  30.148  14.621  19.835
    1STR   O07961669  30.164  14.772  19.976
    1STR   C08061670  30.124  14.700  20.092
    1STR   H08161671  30.018  14.676  20.086
    1STR   C08261672  30.207  14.571  20.105
    1STR   H08361673  30.314  14.593  20.106
    1STR   H08461674  30.188  14.502  20.024
    1STR   H08561675  30.183  14.519  20.198
    1STR   C08661676  30.145  14.792  20.213
    1STR   H08761677  30.250  14.818  20.223
    1STR   H08861678  30.091  14.886  20.196
    1STR   O08961679  30.097  14.728  20.331
    1STR   C09061680  30.113  14.802  20.451
    1STR   H09161681  30.213  14.847  20.454
    1STR   C09261682  30.005  14.910  20.462
    1STR   H09361683  29.905  14.867  20.455
    1STR   H09461684  30.015  14.986  20.384
    1STR   H09561685  30.012  14.962  20.558
    1STR   C09661686  30.104  14.702  20.568
    1STR   H09761687  30.006  14.655  20.569
    1STR   H09861688  30.177  14.622  20.552
    1STR   O09961689  30.130  14.769  20.691
    1STR   C10061690  30.121  14.688  20.808
    1STR   H10161691  30.033  14.623  20.802
    1STR   C10261692  30.248  14.604  20.823
    1STR   H10361693  30.337  14.667  20.824
    1STR   H10461694  30.259  14.531  20.743
    1STR   H10561695  30.246  14.548  20.916
    1STR   C10661696  30.101  14.783  20.927
    1STR   H10761697  30.188  14.848  20.937
    1STR   H10861698  30.015  14.847  20.908
    1STR   O10961699  30.082  14.706  21.046
    1STR   C11061700  30.067  14.782  21.165
    1STR   H11161701  30.139  14.863  21.168
    1STR   C11261702  29.924  14.838  21.174
    1STR   H11361703  29.850  14.759  21.166
    1STR   H11461704  29.903  14.910  21.095
    1STR   H11561705  29.908  14.889  21.269
    1STR   C11661706  30.097  14.688  21.283
    1STR   H11761707  30.025  14.606  21.285
    1STR   H11861708  30.196  14.644  21.269
    1STR   O11961709  30.092  14.762  21.405
    1STR   C12061710  30.115  14.685  21.523
    1STR   H12161711  30.060  14.591  21.518
    1STR   C12261712  30.265  14.659  21.540
    1STR   H12361713  30.322  14.752  21.541
    1STR   H12461714  30.305  14.596  21.461
    1STR   H12561715  30.285  14.608  21.635
    1STR   C12661716  30.058  14.766  21.641
    1STR   H12761717  30.111  14.861  21.651
    1STR   H12861718  29.954  14.790  21.621
    1STR   O12961719  30.070  14.689  21.761
    1STR   C13061720  30.024  14.754  21.879
    1STR   H13161721  30.058  14.858  21.880
    1STR   C13261722  29.871  14.749  21.886
    1STR   H13361723  29.835  14.646  21.879
    1STR   H13461724  29.824  14.806  21.806
    1STR   H13561725  29.835  14.791  21.980
    1STR   C13661726  30.088  14.682  21.998
    1STR   H13761727  30.055  14.578  22.001
    1STR   H13861728  30.196  14.681  21.985
    1STR   O13961729  30.053  14.749  22.119
    1STR   C14061730  30.103  14.689  22.238
    1STR   H14161731  30.091  14.581  22.234
    1STR   C14261732  30.251  14.726  22.257
    1STR   H14361733  30.265  14.834  22.256
    1STR   H14461734  30.314  14.683  22.179
    1STR   H14561735  30.288  14.688  22.352
    1STR   C14661736  30.017  14.742  22.355
    1STR   H14761737  30.028  14.850  22.363
    1STR   H14861738  29.912  14.721  22.334
    1STR   O14961739  30.057  14.678  22.476
    1STR   C15061740  29.988  14.721  22.593
    1STR   H15161741  29.978  14.829  22.593
    1STR   C15261742  29.850  14.654  22.599
    1STR   H15361743  29.858  14.546  22.594
    1STR   H15461744  29.785  14.687  22.518
    1STR   H15561745  29.799  14.680  22.692
    1STR   C15661746  30.075  14.681  22.714
    1STR   H15761747  30.086  14.573  22.718
    1STR   H15861748  30.174  14.723  22.701
    1STR   O15961749  30.014  14.731  22.833
    1STR   C16061750  30.083  14.697  22.953
    1STR   H16161751  30.115  14.593  22.951
    1STR   C16261752  30.204  14.790  22.972
    1STR   H16361753  30.174  14.895  22.970
    1STR   H16461754  30.279  14.775  22.895
    1STR   H16561755  30.252  14.771  23.068
    1STR   C16661756  29.982  14.713  23.069
    1STR   H16761757  29.949  14.816  23.075
    1STR   H16861758  29.894  14.652  23.047
    1STR   O16961759  30.043  14.672  23.191
    1STR   C17061760  29.962  14.685  23.307
    1STR   H17161761  29.909  14.780  23.305
    1STR   C17261762  29.861  14.569  23.313
    1STR   H17361763  29.912  14.472  23.310
    1STR   H17461764  29.790  14.571  23.231
    1STR   H17561765  29.804  14.573  23.406
    1STR   C17661766  30.055  14.685  23.429
    1STR   H17761767  30.109  14.590  23.434
    1STR   H17861768  30.130  14.763  23.416
    1STR   O17961769  29.979  14.707  23.547
    1STR   C18061770  30.054  14.706  23.668
    1STR   H18161771  30.125  14.623  23.667
    1STR   C18261772  30.128  14.839  23.686
    1STR   H18361773  30.059  14.923  23.682
    1STR   H18461774  30.204  14.855  23.609
    1STR   H18561775  30.179  14.843  23.782
    1STR   C18661776  29.954  14.681  23.783
    1STR   H18761777  29.882  14.763  23.787
    1STR   H18861778  29.898  14.590  23.762
    1STR   O18961779  30.025  14.669  23.905
    1STR   C19061780  29.944  14.650  24.021
    1STR   H19161781  29.858  14.717  24.017
    1STR   C19261782  29.898  14.504  24.029
    1STR   H19361783  29.983  14.436  24.028
    1STR   H19461784  29.832  14.477  23.946
    1STR   H19561785  29.843  14.486  24.121
    1STR   C19661786  30.029  14.689  24.143
    1STR   H19761787  30.116  14.624  24.151
    1STR   H19861788  30.066  14.791  24.130
    1STR   O19961789  29.948  14.681  24.261
    1STR   C20061790  30.016  14.711  24.382
    1STR   H20161791  30.115  14.664  24.383
    1STR   C20261792  30.030  14.863  24.398
    1STR   H20361793  29.933  14.912  24.393
    1STR   H20461794  30.094  14.907  24.322
    1STR   H20561795  30.074  14.888  24.495
    1STR   C20661796  29.934  14.650  24.497
    1STR   H20761797  29.835  14.696  24.500
    1STR   H20861798  29.919  14.544  24.477
    1STR   O20961799  30.002  14.669  24.620
    1STR   C21061800  29.934  14.621  24.735
    1STR   H21161801  29.828  14.647  24.731
    1STR   C21261802  29.951  14.468  24.746
    1STR   H21361803  30.056  14.440  24.746
    1STR   H21461804  29.902  14.416  24.663
    1STR   H21561805  29.906  14.431  24.838
    1STR   C21661806  29.995  14.692  24.857
    1STR   H21761807  30.100  14.667  24.867
    1STR   H21861808  29.988  14.800  24.842
    1STR   O21961809  29.923  14.654  24.975
    1STR   C22061810  29.972  14.710  25.096
    1STR   H22161811  30.081  14.706  25.098
    1STR   C22261812  29.924  14.855  25.110
    1STR   H22361813  29.815  14.861  25.103
    1STR   H22461814  29.966  14.920  25.033
    1STR   H22561815  29.953  14.897  25.206
    1STR   C22661816  29.919  14.622  25.211
    1STR   H22761817  29.810  14.625  25.213
    1STR   H22861818  29.949  14.519  25.193
    1STR   O22961819  29.973  14.669  25.334
    1STR   C23061820  29.929  14.599  25.450
    1STR   H23161821  29.822  14.580  25.444
    1STR   C23261822  30.005  14.466  25.463
    1STR   H23361823  30.113  14.482  25.464
    1STR   H23461824  29.982  14.398  25.382
    1STR   H23561825  29.978  14.415  25.556
    1STR   C23661826  29.955  14.690  25.571
    1STR   H23761827  30.062  14.710  25.581
    1STR   H23861828  29.906  14.786  25.554
    1STR   O23961829  29.903  14.628  25.689
    1STR   C24061830  29.924  14.701  25.810
    1STR   H24161831  30.026  14.741  25.812
    1STR   C24261832  29.822  14.815  25.821
    1STR   H24361833  29.720  14.777  25.813
    1STR   H24461834  29.835  14.890  25.743
    1STR   H24561835  29.831  14.866  25.917
    1STR   C24661836  29.910  14.601  25.925
    1STR   H24761837  29.809  14.559  25.927
    1STR   H24861838  29.978  14.517  25.909
    1STR   O24961839  29.940  14.667  26.048
    1STR   C25061840  29.926  14.586  26.165
    1STR   H25161841  29.834  14.526  26.159
    1STR   C25261842  30.048  14.494  26.180
    1STR   H25361843  30.140  14.552  26.182
    1STR   H25461844  30.055  14.421  26.100
    1STR   H25561845  30.043  14.438  26.274
    1STR   C25661846  29.912  14.681  26.284
    1STR   H25761847  30.002  14.742  26.295
    1STR   H25861848  29.829  14.750  26.266
    1STR   O25961849  29.888  14.605  26.403
    1STR   C26061850  29.877  14.682  26.522
    1STR   H26161851  29.954  14.759  26.525
    1STR   C26261852  29.737  14.746  26.531
    1STR   H26361853  29.659  14.670  26.524
    1STR   H26461854  29.721  14.819  26.452
    1STR   H26561855  29.725  14.798  26.626
    1STR   C26661856  29.902  14.586  26.639
    1STR   H26761857  29.826  14.508  26.641
    1STR   H26861858  29.998  14.537  26.625
    1STR   O26961859  29.902  14.660  26.761
    1STR   C27061860  29.920  14.582  26.879
    1STR   H27161861  29.861  14.490  26.873
    1STR   C27261862  30.069  14.548  26.896
    1STR   H27361863  30.130  14.638  26.898
    1STR   H27461864  30.106  14.483  26.817
    1STR   H27561865  30.085  14.495  26.991
    1STR   C27661866  29.867  14.665  26.996
    1STR   H27761867  29.926  14.757  27.006
    1STR   H27861868  29.764  14.694  26.976
    1STR   O27961869  29.875  14.587  27.115
    1STR   C28061870  29.834  14.654  27.234
    1STR   H28161871  29.873  14.756  27.235
    1STR   C28261872  29.680  14.657  27.242
    1STR   H28361873  29.639  14.557  27.236
    1STR   H28461874  29.636  14.717  27.163
    1STR   H28561875  29.647  14.700  27.337
    1STR   C28661876  29.895  14.578  27.352
    1STR   H28761877  29.856  14.476  27.354
    1STR   H28861878  30.003  14.571  27.338
    1STR   O28961879  29.864  14.647  27.472
    1STR   C29061880  29.910  14.583  27.591
    1STR   H29161881  29.892  14.476  27.586
    1STR   C29261882  30.060  14.612  27.610
    1STR   H29361883  30.080  14.719  27.612
    1STR   H29461884  30.121  14.567  27.532
    1STR   H29561885  30.095  14.571  27.705
    1STR   C29661886  29.827  14.640  27.706
    1STR   H29761887  29.844  14.748  27.714
    1STR   H29861888  29.721  14.626  27.684
    1STR   O29961889  29.862  14.573  27.826
    1STR   C30061890  29.795  14.623  27.942
    1STR   H30161891  29.789  14.732  27.939
    1STR   C30261892  29.654  14.562  27.951
    1STR   H30361893  29.658  14.453  27.949
    1STR   H30461894  29.590  14.595  27.869
    1STR   H30561895  29.606  14.592  28.044
    1STR   C30661896  29.881  14.584  28.062
    1STR   H30761897  29.884  14.476  28.074
    1STR   H30861898  29.984  14.618  28.046
    1STR   O30961899  29.826  14.648  28.177
    1STR    H1R61900  29.907  14.510  28.307
    1STR    H1S61901  30.069  14.673  28.409
    1STR    H1T61902  30.004  14.802  28.310
    1STR    H1U61903  30.093  14.670  28.236
    1STR    H1V61904  29.691  14.612  28.386
    1STR    H1W61905  29.771  14.765  28.412
    1STR    H1X61906  29.888  14.511  28.710
    1STR    H1Y61907  29.968  14.417  28.898
    1STR    H1Z61908  30.087  14.434  29.110
    1STR    H2061909  30.299  14.702  29.204
    1STR    H2161910  30.152  14.689  29.304
    1STR    H2261911  30.236  14.545  29.251
    1STR    H2361912  30.221  14.932  28.994
    1STR    H2761913  30.020  14.841  28.833
    1STR    H2861914  30.256  14.612  16.404
    1STR    H2961915  30.243  14.557  16.170
    1STR    H2A61916  30.095  14.764  15.913
    1STR    H2B61917  30.164  14.607  15.951
    1STR    H2C61918  30.270  14.739  15.902
    1STR   BCK161919  30.147  15.113  30.965
    1STR    O0361920  30.072  15.195  30.913
    1STR    N0461921  30.189  15.115  31.092
    1STR    C0561922  30.181  15.220  31.184
    1STR    C0661923  30.145  15.194  31.319
    1STR    C0761924  30.146  15.296  31.418
    1STR    N0861925  30.117  15.265  31.552
    1STR    C0961926  30.136  15.340  31.663
    1STR    O0A61927  30.183  15.453  31.663
    1STR    O0B61928  30.097  15.275  31.776
    1STR    C0C61929  30.098  15.345  31.901
    1STR    C0D61930  29.966  15.423  31.916
    1STR    C0E61931  30.122  15.251  32.021
    1STR    O0F61932  30.129  15.329  32.141
    1STR    C0G61933  30.156  15.258  32.262
    1STR    C0H61934  30.306  15.226  32.270
    1STR    C0I61935  30.112  15.346  32.381
    1STR    O0J61936  30.130  15.274  32.504
    1STR    C0K61937  30.518  15.243  43.344
    1STR    C0M61938  30.366  15.258  43.361
    1STR    C0N61939  30.583  15.162  43.458
    1STR    O0O61940  30.578  15.233  43.581
    1STR    C0P61941  30.485  15.204  43.672
    1STR    O0Q61942  30.397  15.119  43.658
    1STR    N0R61943  30.500  15.284  43.778
    1STR    C0S61944  30.426  15.291  43.896
    1STR    C0T61945  30.448  15.402  43.981
    1STR    C0U61946  30.376  15.416  44.101
    1STR    C0V61947  30.281  15.319  44.139
    1STR    C0W61948  30.201  15.340  44.266
    1STR    C0X61949  30.261  15.206  44.057
    1STR    N0Y61950  30.169  15.107  44.091
    1STR   BCK261951  30.178  15.016  44.187
    1STR    O1061952  30.089  14.933  44.202
    1STR    C1361953  30.332  15.193  43.936
    1STR    C1461954  30.177  15.427  31.375
    1STR    C1561955  30.215  15.454  31.243
    1STR    C1661956  30.222  15.351  31.148
    1STR    C1761957  30.279  15.386  31.011
    1STR    H1B61958  30.238  15.031  31.120
    1STR    H1C61959  30.119  15.093  31.347
    1STR    H1D61960  30.080  15.174  31.574
    1STR    H1E61961  30.181  15.417  31.902
    1STR    H1F61962  29.880  15.355  31.917
    1STR    H1G61963  29.965  15.481  32.008
    1STR    H1H61964  29.953  15.493  31.833
    1STR    H1I61965  30.215  15.197  32.005
    1STR    H1J61966  30.042  15.177  32.028
    1STR    H1K61967  30.097  15.166  32.265
    1STR    H1M61968  30.366  15.316  32.263
    1STR    H1N61969  30.338  15.158  32.191
    1STR    H1O61970  30.330  15.178  32.365
    1STR    H1P61971  30.170  15.438  32.382
    1STR    H1Q61972  30.008  15.373  32.369
    1STR   C01061973  30.099  15.345  32.623
    1STR   H01161974  30.141  15.446  32.619
    1STR   C01261975  29.947  15.353  32.642
    1STR   H01361976  29.902  15.253  32.641
    1STR   H01461977  29.899  15.412  32.564
    1STR   H01561978  29.922  15.400  32.737
    1STR   C01661979  30.166  15.271  32.741
    1STR   H01761980  30.127  15.170  32.748
    1STR   H01861981  30.273  15.263  32.722
    1STR   O01961982  30.143  15.342  32.864
    1STR   C02061983  30.197  15.280  32.981
    1STR   H02161984  30.177  15.173  32.979
    1STR   C02261985  30.348  15.306  32.988
    1STR   H02361986  30.370  15.412  32.986
    1STR   H02461987  30.402  15.258  32.907
    1STR   H02561988  30.389  15.266  33.081
    1STR   C02661989  30.124  15.338  33.104
    1STR   H02761990  30.142  15.446  33.110
    1STR   H02861991  30.017  15.324  33.092
    1STR   O02961992  30.170  15.273  33.223
    1STR   C03061993  30.114  15.321  33.345
    1STR   H03161994  30.111  15.430  33.344
    1STR   C03261995  29.972  15.265  33.363
    1STR   H03361996  29.972  15.156  33.359
    1STR   H03461997  29.903  15.301  33.287
    1STR   H03561998  29.931  15.294  33.459
    1STR   C03661999  30.206  15.277  33.460
    1STR   H03762000  30.211  15.168  33.464
    1STR   H03862001  30.307  15.313  33.440
    1STR   O03962002  30.158  15.330  33.584
    1STR   C04062003  30.233  15.293  33.699
    1STR   H04162004  30.258  15.187  33.695
    1STR   C04262005  30.361  15.377  33.708
    1STR   H04362006  30.339  15.483  33.707
    1STR   H04462007  30.430  15.356  33.626
    1STR   H04562008  30.415  15.355  33.800
    1STR   C04662009  30.143  15.316  33.822
    1STR   H04762010  30.117  15.421  33.830
    1STR   H04862011  30.050  15.261  33.809
    1STR   O04962012  30.211  15.272  33.940
    1STR   C05062013  30.139  15.291  34.062
    1STR   H05162014  30.093  15.390  34.063
    1STR   C05262015  30.032  15.183  34.078
    1STR   H05362016  30.076  15.083  34.072
    1STR   H05462017  29.954  15.190  34.002
    1STR   H05562018  29.982  15.192  34.175
    1STR   C05662019  30.242  15.286  34.177
    1STR   H05762020  30.289  15.188  34.180
    1STR   H05862021  30.320  15.359  34.158
    1STR   O05962022  30.176  15.314  34.301
    1STR   C06062023  30.260  15.308  34.416
    1STR   H06162024  30.325  15.221  34.411
    1STR   C06262025  30.344  15.436  34.427
    1STR   H06362026  30.280  15.525  34.427
    1STR   H06462027  30.414  15.446  34.345
    1STR   H06562028  30.402  15.437  34.519
    1STR   C06662029  30.168  15.291  34.538
    1STR   H06762030  30.102  15.377  34.548
    1STR   H06862031  30.104  15.204  34.523
    1STR   O06962032  30.247  15.275  34.656
    1STR   C07062033  30.174  15.263  34.777
    1STR   H07162034  30.092  15.335  34.780
    1STR   C07262035  30.119  15.120  34.791
    1STR   H07362036  30.199  15.046  34.784
    1STR   H07462037  30.045  15.097  34.714
    1STR   H07562038  30.070  15.106  34.887
    1STR   C07662039  30.270  15.297  34.893
    1STR   H07762040  30.352  15.226  34.895
    1STR   H07862041  30.313  15.395  34.875
    1STR   O07962042  30.198  15.294  35.016
    1STR   C08062043  30.277  15.320  35.132
    1STR   H08162044  30.372  15.267  35.126
    1STR   C08262045  30.303  15.471  35.145
    1STR   H08362046  30.209  15.527  35.147
    1STR   H08462047  30.364  15.510  35.064
    1STR   H08562048  30.356  15.494  35.238
    1STR   C08662049  30.199  15.266  35.253
    1STR   H08762050  30.104  15.319  35.263
    1STR   H08862051  30.176  15.161  35.236
    1STR   O08962052  30.278  15.281  35.371
    1STR   C09062053  30.216  15.238  35.492
    1STR   H09162054  30.112  15.272  35.494
    1STR   C09262055  30.223  15.085  35.502
    1STR   H09362056  30.326  15.050  35.495
    1STR   H09462057  30.165  15.036  35.425
    1STR   H09562058  30.183  15.052  35.598
    1STR   C09662059  30.290  15.306  35.608
    1STR   H09762060  30.395  15.274  35.609
    1STR   H09862061  30.290  15.414  35.592
    1STR   O09962062  30.226  15.273  35.731
    1STR   C10062063  30.287  15.327  35.848
    1STR   H10162064  30.396  15.315  35.842
    1STR   C10262065  30.251  15.475  35.863
    1STR   H10362066  30.143  15.489  35.864
    1STR   H10462067  30.291  15.536  35.783
    1STR   H10562068  30.290  15.515  35.956
    1STR   C10662069  30.238  15.244  35.967
    1STR   H10762070  30.130  15.254  35.977
    1STR   H10862071  30.258  15.139  35.949
    1STR   O10962072  30.304  15.288  36.086
    1STR   C11062073  30.264  15.221  36.205
    1STR   H11162074  30.156  15.210  36.208
    1STR   C11262075  30.332  15.083  36.214
    1STR   H11362076  30.440  15.092  36.207
    1STR   H11462077  30.298  15.016  36.135
    1STR   H11562078  30.309  15.035  36.309
    1STR   C11662079  30.305  15.311  36.323
    1STR   H11762080  30.414  15.323  36.325
    1STR   H11862081  30.262  15.410  36.309
    1STR   O11962082  30.259  15.253  36.445
    1STR   C12062083  30.294  15.325  36.563
    1STR   H12162084  30.398  15.358  36.558
    1STR   C12262085  30.201  15.446  36.580
    1STR   H12362086  30.096  15.415  36.581
    1STR   H12462087  30.213  15.519  36.501
    1STR   H12562088  30.221  15.497  36.675
    1STR   C12662089  30.281  15.227  36.681
    1STR   H12762090  30.178  15.193  36.691
    1STR   H12862091  30.342  15.139  36.661
    1STR   O12962092  30.325  15.292  36.801
    1STR   C13062093  30.314  15.213  36.919
    1STR   H13162094  30.219  15.159  36.920
    1STR   C13262095  30.431  15.113  36.926
    1STR   H13362096  30.527  15.165  36.920
    1STR   H13462097  30.428  15.040  36.846
    1STR   H13562098  30.430  15.058  37.020
    1STR   C13662099  30.316  15.310  37.038
    1STR   H13762100  30.410  15.364  37.041
    1STR   H13862101  30.237  15.383  37.025
    1STR   O13962102  30.297  15.236  37.159
    1STR   C14062103  30.300  15.314  37.278
    1STR   H14162104  30.382  15.386  37.274
    1STR   C14262105  30.166  15.387  37.297
    1STR   H14362106  30.082  15.317  37.296
    1STR   H14462107  30.148  15.461  37.219
    1STR   H14562108  30.164  15.440  37.392
    1STR   C14662109  30.328  15.218  37.395
    1STR   H14762110  30.247  15.145  37.403
    1STR   H14862111  30.419  15.162  37.374
    1STR   O14962112  30.341  15.292  37.516
    1STR   C15062113  30.363  15.214  37.633
    1STR   H15162114  30.298  15.127  37.633
    1STR   C15262115  30.510  15.169  37.639
    1STR   H15362116  30.578  15.255  37.634
    1STR   H15462117  30.536  15.101  37.558
    1STR   H15562118  30.531  15.116  37.732
    1STR   C15662119  30.326  15.301  37.754
    1STR   H15762120  30.391  15.389  37.758
    1STR   H15862121  30.224  15.337  37.741
    1STR   O15962122  30.337  15.224  37.873
    1STR   C16062123  30.309  15.295  37.993
    1STR   H16162124  30.356  15.393  37.991
    1STR   C16262125  30.157  15.308  38.012
    1STR   H16362126  30.109  15.211  38.010
    1STR   H16462127  30.112  15.370  37.935
    1STR   H16562128  30.134  15.354  38.108
    1STR   C16662129  30.373  15.215  38.109
    1STR   H16762130  30.328  15.116  38.115
    1STR   H16862131  30.479  15.201  38.087
    1STR   O16962132  30.356  15.287  38.231
    1STR   C17062133  30.407  15.222  38.347
    1STR   H17162134  30.382  15.116  38.345
    1STR   C17262135  30.560  15.240  38.353
    1STR   H17362136  30.587  15.345  38.350
    1STR   H17462137  30.611  15.189  38.271
    1STR   H17562138  30.599  15.198  38.446
    1STR   C17662139  30.338  15.285  38.468
    1STR   H17762140  30.363  15.392  38.474
    1STR   H17862141  30.230  15.278  38.456
    1STR   O17962142  30.379  15.217  38.587
    1STR   C18062143  30.325  15.269  38.708
    1STR   H18162144  30.328  15.378  38.707
    1STR   C18262145  30.180  15.220  38.726
    1STR   H18362146  30.174  15.112  38.722
    1STR   H18462147  30.114  15.260  38.649
    1STR   H18562148  30.140  15.252  38.822
    1STR   C18662149  30.415  15.220  38.822
    1STR   H18762150  30.413  15.111  38.827
    1STR   H18862151  30.518  15.249  38.802
    1STR   O18962152  30.371  15.276  38.945
    1STR   C19062153  30.443  15.235  39.061
    1STR   H19162154  30.462  15.128  39.057
    1STR   C19262155  30.576  15.312  39.069
    1STR   H19362156  30.559  15.420  39.068
    1STR   H19462157  30.643  15.288  38.986
    1STR   H19562158  30.629  15.288  39.161
    1STR   C19662159  30.355  15.264  39.183
    1STR   H19762160  30.335  15.371  39.191
    1STR   H19862161  30.259  15.214  39.170
    1STR   O19962162  30.420  15.216  39.301
    1STR   C20062163  30.349  15.239  39.422
    1STR   H20162164  30.308  15.341  39.423
    1STR   C20262165  30.236  15.136  39.438
    1STR   H20362166  30.275  15.035  39.433
    1STR   H20462167  30.159  15.147  39.362
    1STR   H20562168  30.187  15.148  39.535
    1STR   C20662169  30.451  15.229  39.537
    1STR   H20762170  30.493  15.128  39.540
    1STR   H20862171  30.534  15.297  39.517
    1STR   O20962172  30.388  15.261  39.660
    1STR   C21062173  30.471  15.251  39.776
    1STR   H21162174  30.531  15.160  39.771
    1STR   C21262175  30.562  15.374  39.786
    1STR   H21362176  30.503  15.466  39.786
    1STR   H21462177  30.633  15.380  39.703
    1STR   H21562178  30.620  15.372  39.878
    1STR   C21662179  30.378  15.239  39.898
    1STR   H21762180  30.317  15.329  39.907
    1STR   H21862181  30.310  15.155  39.882
    1STR   O21962182  30.457  15.219  40.015
    1STR   C22062183  30.383  15.210  40.136
    1STR   H22162184  30.305  15.287  40.139
    1STR   C22262185  30.320  15.071  40.150
    1STR   H22362186  30.396  14.993  40.143
    1STR   H22462187  30.245  15.052  40.073
    1STR   H22562188  30.270  15.060  40.246
    1STR   C22662189  30.481  15.239  40.251
    1STR   H22762190  30.559  15.164  40.253
    1STR   H22862191  30.529  15.335  40.233
    1STR   O22962192  30.409  15.241  40.375
    1STR   C23062193  30.489  15.263  40.490
    1STR   H23162194  30.581  15.204  40.485
    1STR   C23262195  30.523  15.413  40.503
    1STR   H23362196  30.433  15.473  40.504
    1STR   H23462197  30.586  15.448  40.421
    1STR   H23562198  30.577  15.432  40.596
    1STR   C23662199  30.409  15.213  40.611
    1STR   H23762200  30.317  15.271  40.622
    1STR   H23862201  30.380  15.110  40.595
    1STR   O23962202  30.489  15.224  40.729
    1STR   C24062203  30.424  15.185  40.850
    1STR   H24162204  30.322  15.224  40.853
    1STR   C24262205  30.423  15.032  40.861
    1STR   H24362206  30.523  14.991  40.854
    1STR   H24462207  30.362  14.986  40.783
    1STR   H24562208  30.381  15.001  40.957
    1STR   C24662209  30.502  15.249  40.966
    1STR   H24762210  30.605  15.211  40.967
    1STR   H24862211  30.509  15.357  40.950
    1STR   O24962212  30.436  15.220  41.089
    1STR   C25062213  30.501  15.271  41.205
    1STR   H25162214  30.608  15.253  41.199
    1STR   C25262215  30.472  15.421  41.220
    1STR   H25362216  30.365  15.440  41.222
    1STR   H25462217  30.516  15.480  41.140
    1STR   H25562218  30.514  15.459  41.314
    1STR   C25662219  30.447  15.191  41.325
    1STR   H25762220  30.339  15.207  41.335
    1STR   H25862221  30.462  15.084  41.306
    1STR   O25962222  30.516  15.231  41.443
    1STR   C26062223  30.472  15.167  41.563
    1STR   H26162224  30.363  15.162  41.565
    1STR   C26262225  30.531  15.026  41.572
    1STR   H26362226  30.640  15.028  41.565
    1STR   H26462227  30.494  14.960  41.493
    1STR   H26562228  30.506  14.979  41.667
    1STR   C26662229  30.518  15.255  41.680
    1STR   H26762230  30.627  15.261  41.682
    1STR   H26862231  30.480  15.356  41.666
    1STR   O26962232  30.468  15.200  41.802
    1STR   C27062233  30.507  15.270  41.920
    1STR   H27162234  30.613  15.297  41.914
    1STR   C27262235  30.421  15.396  41.937
    1STR   H27362236  30.315  15.371  41.938
    1STR   H27462237  30.438  15.469  41.858
    1STR   H27562238  30.444  15.446  42.031
    1STR   C27662239  30.490  15.173  42.037
    1STR   H27762240  30.385  15.145  42.047
    1STR   H27862241  30.546  15.082  42.017
    1STR   O27962242  30.537  15.235  42.156
    1STR   C28062243  30.522  15.157  42.275
    1STR   H28162244  30.424  15.109  42.276
    1STR   C28262245  30.634  15.052  42.282
    1STR   H28362246  30.732  15.098  42.276
    1STR   H28462247  30.626  14.978  42.203
    1STR   H28562248  30.629  14.997  42.377
    1STR   C28662249  30.529  15.255  42.393
    1STR   H28762250  30.626  15.304  42.396
    1STR   H28862251  30.454  15.333  42.380
    1STR   O28962252  30.505  15.183  42.514
    1STR   C29062253  30.514  15.261  42.633
    1STR   H29162254  30.600  15.328  42.628
    1STR   C29262255  30.384  15.341  42.652
    1STR   H29362256  30.297  15.276  42.653
    1STR   H29462257  30.370  15.416  42.574
    1STR   H29562258  30.386  15.395  42.747
    1STR   C29662259  30.537  15.163  42.749
    1STR   H29762260  30.452  15.095  42.758
    1STR   H29862261  30.624  15.102  42.727
    1STR   O29962262  30.556  15.237  42.869
    1STR   C30062263  30.573  15.158  42.986
    1STR   H30162264  30.502  15.075  42.986
    1STR   C30262265  30.717  15.106  42.993
    1STR   H30362266  30.789  15.188  42.989
    1STR   H30462267  30.740  15.037  42.912
    1STR   H30562268  30.733  15.052  43.087
    1STR   C30662269  30.539  15.249  43.105
    1STR   H30762270  30.608  15.333  43.109
    1STR   H30862271  30.439  15.289  43.091
    1STR   O30962272  30.546  15.172  43.224
    1STR    H1R62273  30.566  15.341  43.341
    1STR    H1S62274  30.342  15.309  43.455
    1STR    H1T62275  30.317  15.160  43.365
    1STR    H1U62276  30.321  15.315  43.281
    1STR    H1V62277  30.688  15.144  43.434
    1STR    H1W62278  30.537  15.063  43.466
    1STR    H1X62279  30.577  15.347  43.765
    1STR    H1Y62280  30.520  15.478  43.954
    1STR    H1Z62281  30.393  15.502  44.163
    1STR    H2062282  30.099  15.303  44.254
    1STR    H2162283  30.247  15.286  44.349
    1STR    H2262284  30.194  15.445  44.293
    1STR    H2362285  30.089  15.094  44.030
    1STR    H2762286  30.315  15.105  43.876
    1STR    H2862287  30.175  15.511  31.442
    1STR    H2962288  30.243  15.554  31.216
    1STR    H2A62289  30.336  15.303  30.970
    1STR    H2B62290  30.347  15.471  31.018
    1STR    H2C62291  30.199  15.411  30.942
    1STR   BCK162292  30.093  15.022  46.015
    1STR    O0362293  30.094  14.908  45.969
    1STR    N0462294  30.035  15.057  46.131
    1STR    C0562295  29.953  14.982  46.216
    1STR    C0662296  29.980  14.977  46.356
    1STR    C0762297  29.893  14.911  46.448
    1STR    N0862298  29.922  14.911  46.586
    1STR    C0962299  29.853  14.862  46.690
    1STR    O0A62300  29.745  14.804  46.682
    1STR    O0B62301  29.916  14.885  46.809
    1STR    C0C62302  29.860  14.832  46.931
    1STR    C0D62303  29.902  14.684  46.946
    1STR    C0E62304  29.904  14.915  47.055
    1STR    O0F62305  29.846  14.860  47.174
    1STR    C0G62306  29.875  14.929  47.296
    1STR    C0H62307  29.787  15.055  47.305
    1STR    C0I62308  29.848  14.835  47.416
    1STR    O0J62309  29.883  14.901  47.539
    1STR    C0K62310  29.634  15.185  58.393
    1STR    C0M62311  29.730  15.065  58.402
    1STR    C0N62312  29.656  15.284  58.508
    1STR    O0O62313  29.619  15.227  58.633
    1STR    C0P62314  29.713  15.187  58.720
    1STR    O0Q62315  29.834  15.192  58.701
    1STR    N0R62316  29.652  15.140  58.829
    1STR    C0S62317  29.703  15.086  58.947
    1STR    C0T62318  29.609  15.033  59.039
    1STR    C0U62319  29.651  14.972  59.158
    1STR    C0V62320  29.788  14.963  59.189
    1STR    C0W62321  29.828  14.885  59.314
    1STR    C0X62322  29.884  15.022  59.102
    1STR    N0Y62323  30.020  15.019  59.131
    1STR   BCK262324  30.079  15.062  59.243
    1STR    O1062325  30.022  15.122  59.334
    1STR    C1362326  29.841  15.080  58.981
    1STR    C1462327  29.779  14.847  46.394
    1STR    C1562328  29.750  14.852  46.256
    1STR    C1662329  29.835  14.921  46.167
    1STR    C1762330  29.791  14.932  46.022
    1STR    H1B62331  30.054  15.152  46.158
    1STR    H1C62332  30.069  15.025  46.392
    1STR    H1D62333  30.008  14.955  46.616
    1STR    H1E62334  29.751  14.837  46.926
    1STR    H1F62335  30.011  14.674  46.952
    1STR    H1G62336  29.859  14.641  47.036
    1STR    H1H62337  29.867  14.625  46.861
    1STR    H1I62338  29.872  15.018  47.040
    1STR    H1J62339  30.013  14.916  47.063
    1STR    H1K62340  29.980  14.957  47.299
    1STR    H1M62341  29.681  15.029  47.299
    1STR    H1N62342  29.809  15.127  47.227
    1STR    H1O62343  29.802  15.106  47.401
    1STR    H1P62344  29.743  14.806  47.418
    1STR    H1Q62345  29.907  14.744  47.404
    1STR   C01062346  29.859  14.827  47.659
    1STR   H01162347  29.760  14.781  47.655
    1STR   C01262348  29.967  14.719  47.677
    1STR   H01362349  30.066  14.763  47.677
    1STR   H01462350  29.962  14.643  47.600
    1STR   H01562351  29.954  14.668  47.773
    1STR   C01662352  29.860  14.927  47.777
    1STR   H01762353  29.957  14.976  47.784
    1STR   H01862354  29.786  15.005  47.759
    1STR   O01962355  29.830  14.859  47.900
    1STR   C02062356  29.832  14.941  48.018
    1STR   H02162357  29.919  15.007  48.016
    1STR   C02262358  29.703  15.025  48.026
    1STR   H02362359  29.615  14.961  48.023
    1STR   H02462360  29.695  15.096  47.944
    1STR   H02562361  29.700  15.082  48.118
    1STR   C02662362  29.846  14.850  48.141
    1STR   H02762363  29.761  14.782  48.147
    1STR   H02862364  29.935  14.788  48.130
    1STR   O02962365  29.856  14.929  48.260
    1STR   C03062366  29.865  14.856  48.383
    1STR   H03162367  29.793  14.773  48.382
    1STR   C03262368  30.007  14.801  48.401
    1STR   H03362369  30.081  14.882  48.397
    1STR   H03462370  30.034  14.728  48.325
    1STR   H03562371  30.018  14.752  48.498
    1STR   C03662372  29.827  14.950  48.498
    1STR   H03762373  29.897  15.034  48.502
    1STR   H03862374  29.728  14.992  48.479
    1STR   O03962375  29.826  14.879  48.622
    1STR   C04062376  29.797  14.957  48.738
    1STR   H04162377  29.850  15.052  48.734
    1STR   C04262378  29.645  14.982  48.747
    1STR   H04362379  29.590  14.888  48.746
    1STR   H04462380  29.609  15.043  48.664
    1STR   H04562381  29.620  15.034  48.839
    1STR   C04662382  29.847  14.879  48.861
    1STR   H04762383  29.795  14.784  48.869
    1STR   H04862384  29.953  14.857  48.848
    1STR   O04962385  29.827  14.957  48.979
    1STR   C05062386  29.866  14.895  49.101
    1STR   H05162387  29.834  14.791  49.102
    1STR   C05262388  30.019  14.902  49.117
    1STR   H05362389  30.054  15.005  49.111
    1STR   H05462390  30.071  14.845  49.041
    1STR   H05562391  30.050  14.862  49.214
    1STR   C05662392  29.795  14.968  49.216
    1STR   H05762393  29.826  15.072  49.219
    1STR   H05862394  29.687  14.967  49.197
    1STR   O05962395  29.824  14.903  49.340
    1STR   C06062396  29.767  14.964  49.456
    1STR   H06162397  29.777  15.072  49.450
    1STR   C06262398  29.618  14.926  49.466
    1STR   H06362399  29.605  14.817  49.467
    1STR   H06462400  29.559  14.966  49.384
    1STR   H06562401  29.575  14.964  49.559
    1STR   C06662402  29.846  14.914  49.578
    1STR   H06762403  29.837  14.806  49.587
    1STR   H06862404  29.952  14.936  49.563
    1STR   O06962405  29.798  14.979  49.695
    1STR   C07062406  29.861  14.939  49.817
    1STR   H07162407  29.872  14.830  49.819
    1STR   C07262408  29.998  15.007  49.830
    1STR   H07362409  29.989  15.116  49.823
    1STR   H07462410  30.068  14.974  49.754
    1STR   H07562411  30.043  14.984  49.927
    1STR   C07662412  29.767  14.979  49.932
    1STR   H07762413  29.754  15.087  49.934
    1STR   H07862414  29.669  14.935  49.915
    1STR   O07962415  29.821  14.932  50.056
    1STR   C08062416  29.745  14.966  50.172
    1STR   H08162417  29.712  15.070  50.166
    1STR   C08262418  29.625  14.872  50.185
    1STR   H08362419  29.656  14.768  50.186
    1STR   H08462420  29.553  14.885  50.104
    1STR   H08562421  29.571  14.892  50.278
    1STR   C08662422  29.839  14.954  50.293
    1STR   H08762423  29.874  14.851  50.303
    1STR   H08862424  29.927  15.016  50.276
    1STR   O08962425  29.771  14.996  50.411
    1STR   C09062426  29.846  14.986  50.531
    1STR   H09162427  29.900  14.891  50.534
    1STR   C09262428  29.944  15.103  50.542
    1STR   H09362429  29.892  15.199  50.535
    1STR   H09462430  30.020  15.100  50.464
    1STR   H09562431  29.996  15.101  50.638
    1STR   C09662432  29.745  14.986  50.648
    1STR   H09762433  29.690  15.080  50.649
    1STR   H09862434  29.672  14.907  50.632
    1STR   O09962435  29.815  14.967  50.771
    1STR   C10062436  29.733  14.969  50.887
    1STR   H10162437  29.661  15.050  50.882
    1STR   C10262438  29.660  14.834  50.903
    1STR   H10362439  29.731  14.751  50.904
    1STR   H10462440  29.589  14.817  50.822
    1STR   H10562441  29.604  14.832  50.996
    1STR   C10662442  29.826  14.996  51.007
    1STR   H10762443  29.899  14.916  51.017
    1STR   H10862444  29.882  15.088  50.988
    1STR   O10962445  29.747  15.009  51.126
    1STR   C11062446  29.822  15.031  51.245
    1STR   H11162447  29.909  14.966  51.248
    1STR   C11262448  29.865  15.178  51.254
    1STR   H11362449  29.779  15.245  51.246
    1STR   H11462450  29.935  15.205  51.175
    1STR   H11562451  29.915  15.198  51.349
    1STR   C11662452  29.731  14.992  51.363
    1STR   H11762453  29.643  15.057  51.365
    1STR   H11862454  29.696  14.890  51.349
    1STR   O11962455  29.804  15.004  51.485
    1STR   C12062456  29.730  14.974  51.603
    1STR   H12162457  29.631  15.020  51.598
    1STR   C12262458  29.717  14.822  51.620
    1STR   H12362459  29.815  14.774  51.621
    1STR   H12462460  29.658  14.777  51.541
    1STR   H12562461  29.668  14.798  51.715
    1STR   C12662462  29.805  15.038  51.721
    1STR   H12762463  29.904  14.993  51.731
    1STR   H12862464  29.819  15.144  51.701
    1STR   O12962465  29.730  15.020  51.841
    1STR   C13062466  29.791  15.071  51.959
    1STR   H13162467  29.897  15.046  51.960
    1STR   C13262468  29.772  15.223  51.966
    1STR   H13362469  29.666  15.250  51.959
    1STR   H13462470  29.824  15.275  51.886
    1STR   H13562471  29.810  15.263  52.060
    1STR   C13662472  29.724  15.001  52.078
    1STR   H13762473  29.617  15.025  52.081
    1STR   H13862474  29.732  14.893  52.065
    1STR   O13962475  29.788  15.042  52.199
    1STR   C14062476  29.733  14.987  52.318
    1STR   H14162477  29.624  14.989  52.314
    1STR   C14262478  29.782  14.842  52.337
    1STR   H14362479  29.891  14.837  52.336
    1STR   H14462480  29.745  14.776  52.259
    1STR   H14562481  29.747  14.802  52.432
    1STR   C14662482  29.778  15.076  52.435
    1STR   H14762483  29.886  15.075  52.443
    1STR   H14862484  29.748  15.179  52.414
    1STR   O14962485  29.717  15.031  52.556
    1STR   C15062486  29.754  15.103  52.673
    1STR   H15162487  29.861  15.123  52.673
    1STR   C15262488  29.676  15.236  52.679
    1STR   H15362489  29.568  15.218  52.674
    1STR   H15462490  29.703  15.303  52.598
    1STR   H15562491  29.697  15.288  52.772
    1STR   C15662492  29.722  15.014  52.794
    1STR   H15762493  29.615  14.993  52.798
    1STR   H15862494  29.773  14.918  52.781
    1STR   O15962495  29.766  15.078  52.913
    1STR   C16062496  29.739  15.007  53.033
    1STR   H16162497  29.638  14.966  53.031
    1STR   C16262498  29.842  14.894  53.052
    1STR   H16362499  29.943  14.933  53.050
    1STR   H16462500  29.833  14.818  52.975
    1STR   H16562501  29.827  14.845  53.148
    1STR   C16662502  29.746  15.109  53.149
    1STR   H16762503  29.846  15.151  53.155
    1STR   H16862504  29.677  15.191  53.127
    1STR   O16962505  29.710  15.044  53.271
    1STR   C17062506  29.716  15.127  53.387
    1STR   H17162507  29.806  15.188  53.385
    1STR   C17262508  29.592  15.217  53.393
    1STR   H17362509  29.500  15.158  53.390
    1STR   H17462510  29.588  15.288  53.311
    1STR   H17562511  29.591  15.275  53.486
    1STR   C17662512  29.724  15.033  53.508
    1STR   H17762513  29.634  14.972  53.514
    1STR   H17862514  29.808  14.966  53.496
    1STR   O17962515  29.740  15.111  53.627
    1STR   C18062516  29.745  15.037  53.748
    1STR   H18162517  29.669  14.959  53.747
    1STR   C18262518  29.884  14.975  53.766
    1STR   H18362519  29.962  15.051  53.762
    1STR   H18462520  29.906  14.900  53.689
    1STR   H18562521  29.892  14.924  53.862
    1STR   C18662522  29.712  15.134  53.863
    1STR   H18762523  29.787  15.213  53.867
    1STR   H18862524  29.616  15.182  53.842
    1STR   O18962525  29.706  15.062  53.985
    1STR   C19062526  29.680  15.141  54.101
    1STR   H19162527  29.739  15.233  54.097
    1STR   C19262528  29.530  15.175  54.109
    1STR   H19362529  29.470  15.084  54.108
    1STR   H19462530  29.497  15.238  54.026
    1STR   H19562531  29.507  15.228  54.201
    1STR   C19662532  29.726  15.061  54.223
    1STR   H19762533  29.668  14.968  54.231
    1STR   H19862534  29.831  15.032  54.210
    1STR   O19962535  29.711  15.140  54.341
    1STR   C20062536  29.747  15.075  54.462
    1STR   H20162537  29.708  14.973  54.463
    1STR   C20262538  29.900  15.074  54.478
    1STR   H20362539  29.940  15.175  54.473
    1STR   H20462540  29.949  15.014  54.402
    1STR   H20562541  29.928  15.033  54.575
    1STR   C20662542  29.679  15.152  54.577
    1STR   H20762543  29.716  15.254  54.580
    1STR   H20862544  29.572  15.157  54.557
    1STR   O20962545  29.704  15.085  54.700
    1STR   C21062546  29.650  15.149  54.815
    1STR   H21162547  29.666  15.257  54.811
    1STR   C21262548  29.499  15.119  54.826
    1STR   H21362549  29.480  15.012  54.826
    1STR   H21462550  29.443  15.163  54.743
    1STR   H21562551  29.458  15.160  54.918
    1STR   C21662552  29.726  15.095  54.938
    1STR   H21762553  29.710  14.987  54.947
    1STR   H21862554  29.833  15.110  54.923
    1STR   O21962555  29.681  15.162  55.055
    1STR   C22062556  29.742  15.119  55.176
    1STR   H22162557  29.748  15.010  55.179
    1STR   C22262558  29.882  15.179  55.190
    1STR   H22362559  29.879  15.288  55.183
    1STR   H22462560  29.950  15.143  55.113
    1STR   H22562561  29.926  15.154  55.286
    1STR   C22662562  29.650  15.163  55.291
    1STR   H22762563  29.643  15.272  55.293
    1STR   H22862564  29.550  15.125  55.274
    1STR   O22962565  29.701  15.114  55.415
    1STR   C23062566  29.627  15.152  55.531
    1STR   H23162567  29.600  15.257  55.525
    1STR   C23262568  29.501  15.065  55.543
    1STR   H23362569  29.527  14.959  55.544
    1STR   H23462570  29.431  15.082  55.462
    1STR   H23562571  29.448  15.087  55.636
    1STR   C23662572  29.720  15.134  55.652
    1STR   H23762573  29.749  15.029  55.662
    1STR   H23862574  29.812  15.191  55.635
    1STR   O23962575  29.654  15.180  55.769
    1STR   C24062576  29.728  15.165  55.890
    1STR   H24162577  29.777  15.068  55.893
    1STR   C24262578  29.833  15.277  55.901
    1STR   H24362579  29.786  15.376  55.894
    1STR   H24462580  29.909  15.271  55.823
    1STR   H24562581  29.884  15.273  55.997
    1STR   C24662582  29.628  15.171  56.006
    1STR   H24762583  29.578  15.268  56.008
    1STR   H24862584  29.551  15.096  55.990
    1STR   O24962585  29.696  15.148  56.129
    1STR   C25062586  29.614  15.154  56.246
    1STR   H25162587  29.546  15.240  56.240
    1STR   C25262588  29.534  15.024  56.261
    1STR   H25362589  29.600  14.937  56.262
    1STR   H25462590  29.462  15.010  56.180
    1STR   H25562591  29.478  15.024  56.354
    1STR   C25662592  29.708  15.176  56.366
    1STR   H25762593  29.776  15.092  56.376
    1STR   H25862594  29.769  15.265  56.347
    1STR   O25962595  29.630  15.193  56.484
    1STR   C26062596  29.705  15.211  56.604
    1STR   H26162597  29.789  15.141  56.607
    1STR   C26262598  29.756  15.356  56.612
    1STR   H26362599  29.674  15.427  56.605
    1STR   H26462600  29.828  15.379  56.534
    1STR   H26562601  29.807  15.373  56.708
    1STR   C26662602  29.612  15.178  56.722
    1STR   H26762603  29.528  15.247  56.723
    1STR   H26862604  29.572  15.077  56.708
    1STR   O26962605  29.685  15.185  56.844
    1STR   C27062606  29.609  15.160  56.962
    1STR   H27162607  29.513  15.211  56.956
    1STR   C27262608  29.588  15.008  56.979
    1STR   H27362609  29.683  14.955  56.979
    1STR   H27462610  29.527  14.966  56.899
    1STR   H27562611  29.537  14.987  57.073
    1STR   C27662612  29.688  15.219  57.080
    1STR   H27762613  29.784  15.169  57.090
    1STR   H27862614  29.708  15.324  57.061
    1STR   O27962615  29.611  15.204  57.200
    1STR   C28062616  29.675  15.252  57.318
    1STR   H28162617  29.779  15.221  57.320
    1STR   C28262618  29.664  15.405  57.325
    1STR   H28362619  29.560  15.437  57.318
    1STR   H28462620  29.720  15.454  57.246
    1STR   H28562621  29.704  15.442  57.420
    1STR   C28662622  29.604  15.185  57.438
    1STR   H28762623  29.499  15.214  57.440
    1STR   H28862624  29.607  15.077  57.425
    1STR   O28962625  29.669  15.223  57.559
    1STR   C29062626  29.611  15.171  57.678
    1STR   H29162627  29.502  15.179  57.673
    1STR   C29262628  29.652  15.024  57.696
    1STR   H29362629  29.760  15.013  57.696
    1STR   H29462630  29.611  14.959  57.618
    1STR   H29562631  29.615  14.985  57.791
    1STR   C29662632  29.660  15.257  57.795
    1STR   H29762633  29.768  15.250  57.803
    1STR   H29862634  29.636  15.362  57.774
    1STR   O29962635  29.597  15.215  57.916
    1STR   C30062636  29.638  15.285  58.033
    1STR   H30162637  29.747  15.300  58.031
    1STR   C30262638  29.567  15.421  58.040
    1STR   H30362639  29.458  15.408  58.036
    1STR   H30462640  29.596  15.487  57.959
    1STR   H30562641  29.590  15.472  58.134
    1STR   C30662642  29.604  15.196  58.154
    1STR   H30762643  29.496  15.183  58.161
    1STR   H30862644  29.648  15.098  58.138
    1STR   O30962645  29.657  15.256  58.272
    1STR    H1R62646  29.531  15.150  58.396
    1STR    H1S62647  29.717  15.012  58.496
    1STR    H1T62648  29.834  15.098  58.398
    1STR    H1U62649  29.715  14.992  58.323
    1STR    H1V62650  29.593  15.372  58.492
    1STR    H1W62651  29.759  15.322  58.508
    1STR    H1X62652  29.553  15.146  58.819
    1STR    H1Y62653  29.503  15.038  59.018
    1STR    H1Z62654  29.578  14.930  59.225
    1STR    H2062655  29.921  14.830  59.297
    1STR    H2162656  29.843  14.953  59.397
    1STR    H2262657  29.752  14.813  59.342
    1STR    H2362658  30.083  14.985  59.060
    1STR    H2762659  29.914  15.122  58.914
    1STR    H2862660  29.709  14.794  46.456
    1STR    H2962661  29.660  14.805  46.220
    1STR    H2A62662  29.816  15.030  45.981
    1STR    H2B62663  29.684  14.919  46.012
    1STR    H2C62664  29.841  14.856  45.962
    1STR   BCK162665  30.218  30.146   0.901
    1STR    O0362666  30.317  30.217   0.886
    1STR    N0462667  30.193  30.074   1.011
    1STR    C0562668  30.286  30.044   1.110
    1STR    C0662669  30.258  30.074   1.246
    1STR    C0762670  30.350  30.041   1.349
    1STR    N0862671  30.318  30.068   1.483
    1STR    C0962672  30.397  30.067   1.591
    1STR    O0A62673  30.518  30.049   1.590
    1STR    O0B62674  30.326  30.089   1.704
    1STR    C0C62675  30.394  30.094   1.830
    1STR    C0D62676  30.456  30.234   1.849
    1STR    C0E62677  30.300  30.058   1.946
    1STR    O0F62678  30.376  30.057   2.067
    1STR    C0G62679  30.305  30.023   2.186
    1STR    C0H62680  30.285  29.871   2.193
    1STR    C0I62681  30.388  30.074   2.306
    1STR    O0J62682  30.317  30.050   2.427
    1STR    C0K62683  30.301  29.661  13.276
    1STR    C0M62684  30.318  29.813  13.292
    1STR    C0N62685  30.211  29.601  13.386
    1STR    O0O62686  30.278  29.595  13.512
    1STR    C0P62687  30.257  29.689  13.605
    1STR    O0Q62688  30.179  29.783  13.596
    1STR    N0R62689  30.338  29.667  13.709
    1STR    C0S62690  30.366  29.748  13.819
    1STR    C0T62691  30.495  29.740  13.875
    1STR    C0U62692  30.536  29.833  13.972
    1STR    C0V62693  30.449  29.935  14.016
    1STR    C0W62694  30.511  30.049  14.095
    1STR    C0X62695  30.313  29.935  13.973
    1STR    N0Y62696  30.217  30.029  14.009
    1STR   BCK262697  30.180  30.097  14.118
    1STR    O1062698  30.092  30.181  14.107
    1STR    C1362699  30.275  29.843  13.872
    1STR    C1462700  30.471  29.977   1.311
    1STR    C1562701  30.498  29.945   1.177
    1STR    C1662702  30.405  29.976   1.076
    1STR    C1762703  30.435  29.930   0.934
    1STR    H1B62704  30.102  30.030   1.015
    1STR    H1C62705  30.166  30.123   1.270
    1STR    H1D62706  30.223  30.093   1.505
    1STR    H1E62707  30.474  30.020   1.830
    1STR    H1F62708  30.380  30.312   1.850
    1STR    H1G62709  30.512  30.239   1.942
    1STR    H1H62710  30.526  30.257   1.768
    1STR    H1I62711  30.256  29.960   1.927
    1STR    H1J62712  30.218  30.130   1.953
    1STR    H1K62713  30.209  30.074   2.188
    1STR    H1M62714  30.380  29.818   2.187
    1STR    H1N62715  30.221  29.834   2.113
    1STR    H1O62716  30.238  29.843   2.287
    1STR    H1P62717  30.485  30.024   2.307
    1STR    H1Q62718  30.408  30.180   2.293
    1STR   C01062719  30.386  30.088   2.547
    1STR   H01162720  30.490  30.055   2.543
    1STR   C01262721  30.379  30.240   2.565
    1STR   H01362722  30.276  30.276   2.564
    1STR   H01462723  30.434  30.294   2.487
    1STR   H01562724  30.424  30.270   2.660
    1STR   C01662725  30.317  30.015   2.664
    1STR   H01762726  30.213  30.045   2.671
    1STR   H01862727  30.319  29.908   2.644
    1STR   O01962728  30.386  30.044   2.786
    1STR   C02062729  30.329  29.984   2.903
    1STR   H02162730  30.220  29.994   2.901
    1STR   C02262731  30.368  29.836   2.910
    1STR   H02362732  30.476  29.823   2.908
    1STR   H02462733  30.325  29.778   2.829
    1STR   H02562734  30.332  29.791   3.003
    1STR   C02662735  30.381  30.061   3.026
    1STR   H02762736  30.490  30.053   3.032
    1STR   H02862737  30.358  30.167   3.013
    1STR   O02962738  30.320  30.010   3.144
    1STR   C03062739  30.363  30.071   3.266
    1STR   H03162740  30.471  30.083   3.266
    1STR   C03262741  30.294  30.207   3.284
    1STR   H03362742  30.186  30.197   3.280
    1STR   H03462743  30.324  30.279   3.208
    1STR   H03562744  30.320  30.251   3.380
    1STR   C03662745  30.327  29.975   3.381
    1STR   H03762746  30.219  29.961   3.385
    1STR   H03862747  30.371  29.877   3.361
    1STR   O03962748  30.376  30.027   3.504
    1STR   C04062749  30.346  29.950   3.620
    1STR   H04162750  30.242  29.916   3.616
    1STR   C04262751  30.440  29.829   3.629
    1STR   H04362752  30.545  29.861   3.628
    1STR   H04462753  30.426  29.759   3.546
    1STR   H04562754  30.424  29.773   3.721
    1STR   C04662755  30.361  30.041   3.743
    1STR   H04762756  30.464  30.076   3.751
    1STR   H04862757  30.298  30.129   3.729
    1STR   O04962758  30.322  29.970   3.861
    1STR   C05062759  30.336  30.043   3.982
    1STR   H05162760  30.430  30.098   3.984
    1STR   C05262761  30.218  30.140   3.998
    1STR   H05362762  30.123  30.088   3.993
    1STR   H05462763  30.218  30.218   3.922
    1STR   H05562764  30.222  30.191   4.095
    1STR   C05662765  30.339  29.941   4.097
    1STR   H05762766  30.246  29.885   4.100
    1STR   H05862767  30.419  29.869   4.078
    1STR   O05962768  30.361  30.008   4.221
    1STR   C06062769  30.363  29.925   4.336
    1STR   H06162770  30.282  29.852   4.331
    1STR   C06262771  30.498  29.852   4.347
    1STR   H06362772  30.581  29.923   4.347
    1STR   H06462773  30.514  29.783   4.265
    1STR   H06562774  30.504  29.794   4.439
    1STR   C06662775  30.338  30.015   4.459
    1STR   H06762776  30.418  30.088   4.468
    1STR   H06862777  30.245  30.070   4.443
    1STR   O06962778  30.329  29.934   4.576
    1STR   C07062779  30.310  30.006   4.697
    1STR   H07162780  30.375  30.094   4.700
    1STR   C07262781  30.163  30.048   4.711
    1STR   H07362782  30.096  29.962   4.704
    1STR   H07462783  30.133  30.119   4.634
    1STR   H07562784  30.145  30.096   4.807
    1STR   C07662785  30.352  29.913   4.813
    1STR   H07762786  30.289  29.825   4.815
    1STR   H07862787  30.454  29.879   4.795
    1STR   O07962788  30.344  29.984   4.936
    1STR   C08062789  30.377  29.908   5.052
    1STR   H08162790  30.331  29.809   5.046
    1STR   C08262791  30.529  29.896   5.065
    1STR   H08362792  30.577  29.994   5.066
    1STR   H08462793  30.573  29.838   4.984
    1STR   H08562794  30.556  29.845   5.158
    1STR   C08662795  30.316  29.981   5.173
    1STR   H08762796  30.360  30.080   5.183
    1STR   H08862797  30.209  29.995   5.156
    1STR   O08962798  30.338  29.903   5.291
    1STR   C09062799  30.289  29.962   5.412
    1STR   H09162800  30.314  30.068   5.414
    1STR   C09262801  30.137  29.942   5.422
    1STR   H09362802  30.111  29.836   5.415
    1STR   H09462803  30.083  29.996   5.345
    1STR   H09562804  30.100  29.978   5.518
    1STR   C09662805  30.363  29.893   5.528
    1STR   H09762806  30.340  29.787   5.529
    1STR   H09862807  30.471  29.903   5.512
    1STR   O09962808  30.325  29.955   5.651
    1STR   C10062809  30.384  29.898   5.768
    1STR   H10162810  30.382  29.789   5.762
    1STR   C10262811  30.529  29.948   5.783
    1STR   H10362812  30.533  30.057   5.784
    1STR   H10462813  30.593  29.913   5.702
    1STR   H10562814  30.572  29.912   5.876
    1STR   C10662815  30.297  29.941   5.887
    1STR   H10762816  30.298  30.049   5.897
    1STR   H10862817  30.194  29.911   5.868
    1STR   O10962818  30.346  29.878   6.006
    1STR   C11062819  30.277  29.912   6.125
    1STR   H11162820  30.256  30.020   6.128
    1STR   C11262821  30.145  29.833   6.134
    1STR   H11362822  30.163  29.726   6.127
    1STR   H11462823  30.075  29.861   6.055
    1STR   H11562824  30.095  29.852   6.229
    1STR   C11662825  30.370  29.880   6.243
    1STR   H11762826  30.391  29.773   6.245
    1STR   H11862827  30.465  29.931   6.229
    1STR   O11962828  30.308  29.921   6.365
    1STR   C12062829  30.383  29.892   6.483
    1STR   H12162830  30.425  29.791   6.478
    1STR   C12262831  30.495  29.996   6.500
    1STR   H12362832  30.455  30.097   6.501
    1STR   H12462833  30.569  29.989   6.421
    1STR   H12562834  30.547  29.980   6.595
    1STR   C12662835  30.284  29.896   6.601
    1STR   H12762836  30.241  29.996   6.611
    1STR   H12862837  30.202  29.827   6.581
    1STR   O12962838  30.352  29.859   6.721
    1STR   C13062839  30.273  29.862   6.839
    1STR   H13162840  30.211  29.952   6.840
    1STR   C13262841  30.184  29.737   6.846
    1STR   H13362842  30.243  29.646   6.839
    1STR   H13462843  30.110  29.734   6.766
    1STR   H13562844  30.129  29.734   6.940
    1STR   C13662845  30.369  29.869   6.958
    1STR   H13762846  30.432  29.779   6.961
    1STR   H13862847  30.436  29.954   6.945
    1STR   O13962848  30.294  29.881   7.079
    1STR   C14062849  30.372  29.885   7.198
    1STR   H14162850  30.451  29.809   7.194
    1STR   C14262851  30.433  30.025   7.217
    1STR   H14362852  30.356  30.102   7.217
    1STR   H14462853  30.505  30.049   7.139
    1STR   H14562854  30.486  30.031   7.312
    1STR   C14662855  30.278  29.849   7.315
    1STR   H14762856  30.199  29.923   7.323
    1STR   H14862857  30.231  29.753   7.294
    1STR   O14962858  30.354  29.842   7.436
    1STR   C15062859  30.278  29.813   7.553
    1STR   H15162860  30.185  29.871   7.553
    1STR   C15262861  30.246  29.663   7.559
    1STR   H15362862  30.337  29.603   7.554
    1STR   H15462863  30.181  29.631   7.478
    1STR   H15562864  30.195  29.638   7.652
    1STR   C15662865  30.361  29.858   7.674
    1STR   H15762866  30.454  29.801   7.678
    1STR   H15862867  30.389  29.962   7.661
    1STR   O15962868  30.286  29.840   7.793
    1STR   C16062869  30.354  29.874   7.913
    1STR   H16162870  30.456  29.836   7.911
    1STR   C16262871  30.354  30.026   7.932
    1STR   H16362872  30.252  30.066   7.930
    1STR   H16462873  30.412  30.077   7.855
    1STR   H16562874  30.398  30.053   8.028
    1STR   C16662875  30.280  29.803   8.029
    1STR   H16762876  30.178  29.840   8.035
    1STR   H16862877  30.275  29.697   8.007
    1STR   O16962878  30.350  29.827   8.151
    1STR   C17062879  30.290  29.770   8.267
    1STR   H17162880  30.182  29.786   8.265
    1STR   C17262881  30.321  29.619   8.273
    1STR   H17362882  30.429  29.601   8.270
    1STR   H17462883  30.275  29.564   8.191
    1STR   H17562884  30.283  29.576   8.366
    1STR   C17662885  30.347  29.844   8.388
    1STR   H17762886  30.455  29.829   8.394
    1STR   H17862887  30.330  29.951   8.376
    1STR   O17962888  30.283  29.798   8.507
    1STR   C18062889  30.329  29.856   8.628
    1STR   H18162890  30.438  29.862   8.628
    1STR   C18262891  30.269  29.996   8.646
    1STR   H18362892  30.160  29.992   8.642
    1STR   H18462893  30.303  30.066   8.569
    1STR   H18562894  30.297  30.038   8.742
    1STR   C18662895  30.288  29.762   8.743
    1STR   H18762896  30.179  29.754   8.747
    1STR   H18862897  30.326  29.662   8.722
    1STR   O18962898  30.341  29.811   8.866
    1STR   C19062899  30.306  29.735   8.981
    1STR   H19162900  30.201  29.707   8.977
    1STR   C19262901  30.394  29.609   8.989
    1STR   H19362902  30.500  29.635   8.988
    1STR   H19462903  30.376  29.541   8.907
    1STR   H19562904  30.375  29.555   9.081
    1STR   C19662905  30.327  29.826   9.103
    1STR   H19762906  30.432  29.855   9.111
    1STR   H19862907  30.269  29.917   9.090
    1STR   O19962908  30.285  29.757   9.221
    1STR   C20062909  30.302  29.829   9.342
    1STR   H20162910  30.399  29.879   9.343
    1STR   C20262911  30.190  29.933   9.358
    1STR   H20362912  30.092  29.886   9.353
    1STR   H20462913  30.194  30.010   9.282
    1STR   H20562914  30.197  29.983   9.455
    1STR   C20662915  30.300  29.727   9.457
    1STR   H20762916  30.203  29.676   9.460
    1STR   H20862917  30.375  29.650   9.437
    1STR   O20962918  30.327  29.793   9.580
    1STR   C21062919  30.324  29.709   9.695
    1STR   H21162920  30.238  29.641   9.691
    1STR   C21262921  30.455  29.629   9.705
    1STR   H21362922  30.541  29.695   9.706
    1STR   H21462923  30.466  29.559   9.623
    1STR   H21562924  30.457  29.571   9.798
    1STR   C21662925  30.304  29.800   9.818
    1STR   H21762926  30.389  29.869   9.827
    1STR   H21862927  30.215  29.861   9.803
    1STR   O21962928  30.291  29.720   9.935
    1STR   C22062929  30.276  29.793  10.056
    1STR   H22162930  30.346  29.878  10.059
    1STR   C22262931  30.132  29.843  10.070
    1STR   H22362932  30.061  29.761  10.063
    1STR   H22462933  30.106  29.916   9.993
    1STR   H22562934  30.116  29.892  10.166
    1STR   C22662935  30.314  29.698  10.171
    1STR   H22762936  30.245  29.613  10.173
    1STR   H22862937  30.414  29.659  10.153
    1STR   O22962938  30.309  29.770  10.295
    1STR   C23062939  30.338  29.692  10.410
    1STR   H23162940  30.288  29.595  10.405
    1STR   C23262941  30.490  29.671  10.423
    1STR   H23362942  30.543  29.767  10.424
    1STR   H23462943  30.531  29.611  10.342
    1STR   H23562944  30.514  29.619  10.516
    1STR   C23662945  30.282  29.767  10.532
    1STR   H23762946  30.331  29.864  10.542
    1STR   H23862947  30.176  29.787  10.515
    1STR   O23962948  30.300  29.689  10.649
    1STR   C24062949  30.255  29.750  10.770
    1STR   H24162950  30.284  29.855  10.773
    1STR   C24262951  30.102  29.738  10.781
    1STR   H24362952  30.070  29.634  10.773
    1STR   H24462953  30.050  29.794  10.703
    1STR   H24562954  30.067  29.776  10.877
    1STR   C24662955  30.325  29.678  10.886
    1STR   H24762956  30.296  29.572  10.887
    1STR   H24862957  30.433  29.681  10.870
    1STR   O24962958  30.291  29.741  11.009
    1STR   C25062959  30.346  29.681  11.125
    1STR   H25162960  30.339  29.572  11.119
    1STR   C25262961  30.494  29.723  11.141
    1STR   H25362962  30.504  29.831  11.142
    1STR   H25462963  30.556  29.684  11.060
    1STR   H25562964  30.535  29.685  11.234
    1STR   C25662965  30.262  29.728  11.245
    1STR   H25762966  30.269  29.836  11.256
    1STR   H25862967  30.158  29.704  11.227
    1STR   O25962968  30.308  29.663  11.364
    1STR   C26062969  30.241  29.701  11.483
    1STR   H26162970  30.226  29.809  11.486
    1STR   C26262971  30.105  29.629  11.492
    1STR   H26362972  30.117  29.521  11.485
    1STR   H26462973  30.037  29.661  11.413
    1STR   H26562974  30.056  29.650  11.587
    1STR   C26662975  30.332  29.663  11.601
    1STR   H26762976  30.348  29.555  11.602
    1STR   H26862977  30.430  29.709  11.587
    1STR   O26962978  30.273  29.707  11.723
    1STR   C27062979  30.346  29.674  11.841
    1STR   H27162980  30.383  29.571  11.835
    1STR   C27262981  30.464  29.771  11.858
    1STR   H27362982  30.430  29.875  11.859
    1STR   H27462983  30.538  29.761  11.778
    1STR   H27562984  30.516  29.753  11.952
    1STR   C27662985  30.249  29.683  11.959
    1STR   H27762986  30.211  29.785  11.969
    1STR   H27862987  30.163  29.619  11.939
    1STR   O27962988  30.315  29.642  12.079
    1STR   C28062989  30.237  29.650  12.197
    1STR   H28162990  30.180  29.744  12.199
    1STR   C28262991  30.141  29.530  12.204
    1STR   H28362992  30.195  29.436  12.197
    1STR   H28462993  30.066  29.532  12.125
    1STR   H28562994  30.086  29.530  12.299
    1STR   C28662995  30.334  29.651  12.316
    1STR   H28762996  30.391  29.559  12.319
    1STR   H28862997  30.405  29.733  12.303
    1STR   O28962998  30.260  29.668  12.438
    1STR   C29062999  30.339  29.667  12.557
    1STR   H29163000  30.413  29.588  12.552
    1STR   C29263001  30.408  29.804  12.574
    1STR   H29363002  30.335  29.885  12.574
    1STR   H29463003  30.481  29.823  12.496
    1STR   H29563004  30.461  29.808  12.669
    1STR   C29663005  30.243  29.637  12.674
    1STR   H29763006  30.168  29.715  12.681
    1STR   H29863007  30.191  29.544  12.653
    1STR   O29963008  30.317  29.627  12.796
    1STR   C30063009  30.238  29.602  12.911
    1STR   H30163010  30.147  29.663  12.909
    1STR   C30263011  30.200  29.453  12.917
    1STR   H30363012  30.289  29.390  12.914
    1STR   H30463013  30.135  29.424  12.835
    1STR   H30563014  30.147  29.430  13.010
    1STR   C30663015  30.319  29.644  13.035
    1STR   H30763016  30.409  29.582  13.043
    1STR   H30863017  30.353  29.747  13.022
    1STR   O30963018  30.237  29.632  13.151
    1STR    H1R63019  30.398  29.612  13.280
    1STR    H1S63020  30.362  29.838  13.389
    1STR    H1T63021  30.222  29.865  13.286
    1STR    H1U63022  30.384  29.856  13.216
    1STR    H1V63023  30.185  29.499  13.359
    1STR    H1W63024  30.116  29.655  13.393
    1STR    H1X63025  30.394  29.584  13.695
    1STR    H1Y63026  30.566  29.668  13.839
    1STR    H1Z63027  30.638  29.831  14.007
    1STR    H2063028  30.453  30.140  14.085
    1STR    H2163029  30.521  30.024  14.200
    1STR    H2263030  30.610  30.071  14.057
    1STR    H2363031  30.152  30.054  13.935
    1STR    H2763032  30.175  29.846  13.833
    1STR    H2863033  30.545  29.948   1.384
    1STR    H2963034  30.590  29.895   1.153
    1STR    H2A63035  30.345  29.892   0.886
    1STR    H2B63036  30.509  29.850   0.933
    1STR    H2C63037  30.475  30.013   0.875
    1STR   BCK163038  30.129  30.164  15.925
    1STR    O0363039  30.032  30.113  15.870
    1STR    N0463040  30.132  30.211  16.051
    1STR    C0563041  30.027  30.250  16.135
    1STR    C0663042  30.027  30.213  16.273
    1STR    C0763043  29.934  30.268  16.367
    1STR    N0863044  29.940  30.235  16.504
    1STR    C0963045  29.887  30.298  16.611
    1STR    O0A63046  29.823  30.402  16.604
    1STR    O0B63047  29.913  30.233  16.728
    1STR    C0C63048  29.855  30.281  16.851
    1STR    C0D63049  29.712  30.225  16.865
    1STR    C0E63050  29.941  30.244  16.975
    1STR    O0F63051  29.881  30.297  17.094
    1STR    C0G63052  29.952  30.274  17.217
    1STR    C0H63053  30.069  30.373  17.227
    1STR    C0I63054  29.856  30.292  17.337
    1STR    O0J63055  29.924  30.263  17.460
    1STR    C0K63056  30.186  30.542  28.311
    1STR    C0M63057  30.077  30.434  28.324
    1STR    C0N63058  30.287  30.534  28.427
    1STR    O0O63059  30.226  30.570  28.551
    1STR    C0P63060  30.199  30.476  28.642
    1STR    O0Q63061  30.220  30.356  28.630
    1STR    N0R63062  30.145  30.534  28.749
    1STR    C0S63063  30.099  30.480  28.870
    1STR    C0T63064  30.020  30.563  28.952
    1STR    C0U63065  29.968  30.515  29.074
    1STR    C0V63066  29.996  30.383  29.117
    1STR    C0W63067  29.933  30.332  29.245
    1STR    C0X63068  30.080  30.301  29.038
    1STR    N0Y63069  30.110  30.171  29.076
    1STR   BCK263070  30.179  30.133  29.184
    1STR    O1063071  30.231  30.209  29.264
    1STR    C1363072  30.129  30.349  28.914
    1STR    C1463073  29.838  30.359  16.316
    1STR    C1563074  29.837  30.397  16.181
    1STR    C1663075  29.931  30.345  16.091
    1STR    C1763076  29.932  30.400  15.949
    1STR    H1B63077  30.224  30.231  16.084
    1STR    H1C63078  30.101  30.143  16.307
    1STR    H1D63079  29.992  30.153  16.530
    1STR    H1E63080  29.849  30.390  16.848
    1STR    H1F63081  29.712  30.117  16.869
    1STR    H1G63082  29.664  30.263  16.955
    1STR    H1H63083  29.650  30.256  16.781
    1STR    H1I63084  30.041  30.285  16.961
    1STR    H1J63085  29.951  30.136  16.983
    1STR    H1K63086  29.989  30.172  17.219
    1STR    H1M63087  30.034  30.476  17.220
    1STR    H1N63088  30.143  30.358  17.148
    1STR    H1O63089  30.121  30.362  17.322
    1STR    H1P63090  29.817  30.394  17.339
    1STR    H1Q63091  29.770  30.226  17.325
    1STR   C01063092  29.849  30.282  17.580
    1STR   H01163093  29.794  30.376  17.576
    1STR   C01263094  29.751  30.165  17.599
    1STR   H01363095  29.803  30.069  17.598
    1STR   H01463096  29.674  30.162  17.521
    1STR   H01563097  29.698  30.173  17.694
    1STR   C01663098  29.948  30.289  17.698
    1STR   H01763099  30.005  30.197  17.705
    1STR   H01863100  30.019  30.370  17.679
    1STR   O01963101  29.878  30.313  17.821
    1STR   C02063102  29.960  30.318  17.939
    1STR   H02163103  30.033  30.237  17.937
    1STR   C02263104  30.032  30.454  17.947
    1STR   H02363105  29.961  30.536  17.944
    1STR   H02463106  30.103  30.468  17.865
    1STR   H02563107  30.089  30.462  18.039
    1STR   C02663108  29.870  30.296  18.062
    1STR   H02763109  29.796  30.376  18.068
    1STR   H02863110  29.816  30.203  18.051
    1STR   O02963111  29.950  30.294  18.181
    1STR   C03063112  29.878  30.278  18.303
    1STR   H03163113  29.789  30.342  18.303
    1STR   C03263114  29.836  30.131  18.322
    1STR   H03363115  29.922  30.065  18.318
    1STR   H03463116  29.765  30.099  18.246
    1STR   H03563117  29.788  30.117  18.418
    1STR   C03663118  29.969  30.324  18.419
    1STR   H03763119  30.058  30.262  18.423
    1STR   H03863120  30.002  30.426  18.399
    1STR   O03963121  29.897  30.318  18.543
    1STR   C04063122  29.972  30.355  18.659
    1STR   H04163123  30.072  30.310  18.655
    1STR   C04263124  29.984  30.508  18.667
    1STR   H04363125  29.886  30.555  18.667
    1STR   H04463126  30.042  30.550  18.585
    1STR   H04563127  30.034  30.538  18.760
    1STR   C04663128  29.899  30.298  18.782
    1STR   H04763129  29.800  30.341  18.789
    1STR   H04863130  29.886  30.190  18.768
    1STR   O04963131  29.975  30.325  18.899
    1STR   C05063132  29.917  30.280  19.022
    1STR   H05163133  29.810  30.304  19.023
    1STR   C05263134  29.937  30.129  19.037
    1STR   H05363135  30.043  30.103  19.032
    1STR   H05463136  29.885  30.071  18.961
    1STR   H05563137  29.900  30.095  19.134
    1STR   C05663138  29.983  30.358  19.137
    1STR   H05763139  30.090  30.336  19.139
    1STR   H05863140  29.973  30.465  19.118
    1STR   O05963141  29.921  30.323  19.260
    1STR   C06063142  29.977  30.385  19.376
    1STR   H06163143  30.086  30.384  19.371
    1STR   C06263144  29.926  30.530  19.387
    1STR   H06363145  29.817  30.534  19.387
    1STR   H06463146  29.961  30.592  19.304
    1STR   H06563147  29.960  30.576  19.479
    1STR   C06663148  29.934  30.302  19.498
    1STR   H06763149  29.826  30.302  19.507
    1STR   H06863150  29.965  30.199  19.483
    1STR   O06963151  29.995  30.356  19.616
    1STR   C07063152  29.960  30.290  19.737
    1STR   H07163153  29.853  30.269  19.740
    1STR   C07263154  30.040  30.159  19.750
    1STR   H07363155  30.148  30.178  19.744
    1STR   H07463156  30.014  30.087  19.674
    1STR   H07563157  30.021  30.112  19.847
    1STR   C07663158  29.992  30.387  19.852
    1STR   H07763159  30.099  30.409  19.854
    1STR   H07863160  29.940  30.481  19.835
    1STR   O07963161  29.950  30.329  19.976
    1STR   C08063162  29.978  30.407  20.092
    1STR   H08163163  30.078  30.450  20.086
    1STR   C08263164  29.873  30.519  20.105
    1STR   H08363165  29.772  30.479  20.106
    1STR   H08463166  29.880  30.591  20.024
    1STR   H08563167  29.888  30.574  20.198
    1STR   C08663168  29.974  30.312  20.213
    1STR   H08763169  29.874  30.269  20.223
    1STR   H08863170  30.043  30.230  20.196
    1STR   O08963171  30.009  30.384  20.331
    1STR   C09063172  30.006  30.309  20.451
    1STR   H09163173  29.916  30.246  20.454
    1STR   C09263174  30.131  30.221  20.462
    1STR   H09363175  30.222  30.281  20.455
    1STR   H09463176  30.135  30.145  20.385
    1STR   H09563177  30.134  30.169  20.558
    1STR   C09663178  29.997  30.409  20.568
    1STR   H09763179  30.086  30.472  20.569
    1STR   H09863180  29.912  30.474  20.552
    1STR   O09963181  29.984  30.338  20.691
    1STR   C10063182  29.979  30.419  20.808
    1STR   H10163183  30.054  30.498  20.802
    1STR   C10263184  29.838  30.480  20.823
    1STR   H10363185  29.762  30.403  20.824
    1STR   H10463186  29.815  30.550  20.742
    1STR   H10563187  29.831  30.536  20.916
    1STR   C10663188  30.014  30.330  20.927
    1STR   H10763189  29.940  30.250  20.937
    1STR   H10863190  30.110  30.282  20.909
    1STR   O10963191  30.020  30.409  21.046
    1STR   C11063192  30.048  30.337  21.165
    1STR   H11163193  29.991  30.244  21.168
    1STR   C11263194  30.199  30.307  21.174
    1STR   H11363195  30.258  30.398  21.167
    1STR   H11463196  30.232  30.239  21.095
    1STR   H11563197  30.223  30.259  21.269
    1STR   C11663198  30.002  30.424  21.283
    1STR   H11763199  30.058  30.517  21.285
    1STR   H11863200  29.897  30.450  21.269
    1STR   O11963201  30.019  30.352  21.405
    1STR   C12063202  29.984  30.423  21.523
    1STR   H12163203  30.021  30.526  21.518
    1STR   C12263204  29.831  30.423  21.540
    1STR   H12363205  29.792  30.321  21.541
    1STR   H12463206  29.781  30.478  21.461
    1STR   H12563207  29.803  30.470  21.635
    1STR   C12663208  30.054  30.354  21.641
    1STR   H12763209  30.018  30.251  21.651
    1STR   H12863210  30.161  30.349  21.621
    1STR   O12963211  30.029  30.427  21.761
    1STR   C13063212  30.085  30.371  21.879
    1STR   H13163213  30.070  30.263  21.880
    1STR   C13263214  30.236  30.403  21.886
    1STR   H13363215  30.253  30.511  21.879
    1STR   H13463216  30.292  30.355  21.805
    1STR   H13563217  30.278  30.368  21.980
    1STR   C13663218  30.010  30.431  21.998
    1STR   H13763219  30.024  30.540  22.001
    1STR   H13863220  29.903  30.414  21.985
    1STR   O13963221  30.056  30.371  22.119
    1STR   C14063222  29.997  30.421  22.238
    1STR   H14163223  29.989  30.530  22.234
    1STR   C14263224  29.857  30.360  22.257
    1STR   H14363225  29.862  30.251  22.256
    1STR   H14463226  29.788  30.391  22.179
    1STR   H14563227  29.814  30.390  22.352
    1STR   C14663228  30.090  30.384  22.355
    1STR   H14763229  30.098  30.276  22.363
    1STR   H14863230  30.190  30.423  22.334
    1STR   O14963231  30.039  30.441  22.476
    1STR   C15063232  30.115  30.410  22.593
    1STR   H15163233  30.144  30.305  22.593
    1STR   C15263234  30.240  30.500  22.599
    1STR   H15363235  30.213  30.605  22.594
    1STR   H15463236  30.309  30.479  22.518
    1STR   H15563237  30.294  30.484  22.692
    1STR   C15663238  30.023  30.434  22.714
    1STR   H15763239  29.993  30.539  22.718
    1STR   H15863240  29.932  30.375  22.701
    1STR   O15963241  30.091  30.396  22.833
    1STR   C16063242  30.017  30.417  22.953
    1STR   H16163243  29.967  30.514  22.951
    1STR   C16263244  29.914  30.304  22.972
    1STR   H16363245  29.962  30.206  22.970
    1STR   H16463246  29.837  30.306  22.895
    1STR   H16563247  29.863  30.314  23.068
    1STR   C16663248  30.119  30.419  23.069
    1STR   H16763249  30.170  30.323  23.075
    1STR   H16863250  30.195  30.495  23.047
    1STR   O16963251  30.052  30.449  23.191
    1STR   C17063252  30.134  30.450  23.307
    1STR   H17163253  30.203  30.366  23.305
    1STR   C17263254  30.213  30.582  23.313
    1STR   H17363255  30.146  30.668  23.310
    1STR   H17463256  30.284  30.592  23.231
    1STR   H17563257  30.270  30.588  23.406
    1STR   C17663258  30.042  30.434  23.428
    1STR   H17763259  29.973  30.518  23.434
    1STR   H17863260  29.982  30.344  23.416
    1STR   O17963261  30.121  30.425  23.547
    1STR   C18063262  30.047  30.414  23.668
    1STR   H18163263  29.963  30.482  23.667
    1STR   C18263264  29.998  30.269  23.686
    1STR   H18363265  30.081  30.198  23.682
    1STR   H18463266  29.926  30.241  23.609
    1STR   H18563267  29.949  30.257  23.782
    1STR   C18663268  30.141  30.455  23.783
    1STR   H18763269  30.227  30.387  23.787
    1STR   H18863270  30.181  30.555  23.762
    1STR   O18963271  30.069  30.454  23.905
    1STR   C19063272  30.146  30.487  24.021
    1STR   H19163273  30.243  30.437  24.017
    1STR   C19263274  30.166  30.639  24.029
    1STR   H19363275  30.070  30.692  24.028
    1STR   H19463276  30.226  30.678  23.946
    1STR   H19563277  30.217  30.667  24.121
    1STR   C19663278  30.070  30.434  24.143
    1STR   H19763279  29.973  30.483  24.151
    1STR   H19863280  30.050  30.328  24.130
    1STR   O19963281  30.147  30.456  24.261
    1STR   C20063282  30.086  30.415  24.382
    1STR   H20163283  29.980  30.444  24.383
    1STR   C20263284  30.098  30.262  24.398
    1STR   H20363285  30.203  30.231  24.393
    1STR   H20463286  30.043  30.208  24.322
    1STR   H20563287  30.059  30.230  24.495
    1STR   C20663288  30.156  30.489  24.497
    1STR   H20763289  30.262  30.461  24.500
    1STR   H20863290  30.152  30.597  24.477
    1STR   O20963291  30.092  30.458  24.620
    1STR   C21063292  30.150  30.518  24.735
    1STR   H21163293  30.259  30.511  24.731
    1STR   C21263294  30.108  30.666  24.746
    1STR   H21363295  29.999  30.675  24.746
    1STR   H21463296  30.147  30.725  24.663
    1STR   H21563297  30.145  30.710  24.838
    1STR   C21663298  30.103  30.438  24.858
    1STR   H21763299  29.995  30.444  24.867
    1STR   H21863300  30.128  30.333  24.843
    1STR   O21963301  30.167  30.488  24.975
    1STR   C22063302  30.129  30.424  25.096
    1STR   H22163303  30.021  30.408  25.099
    1STR   C22263304  30.202  30.289  25.110
    1STR   H22363305  30.310  30.302  25.103
    1STR   H22463306  30.172  30.218  25.033
    1STR   H22563307  30.180  30.243  25.206
    1STR   C22663308  30.165  30.519  25.211
    1STR   H22763309  30.273  30.536  25.213
    1STR   H22863310  30.118  30.616  25.194
    1STR   O22963311  30.120  30.464  25.335
    1STR   C23063312  30.152  30.541  25.450
    1STR   H23163313  30.254  30.578  25.445
    1STR   C23263314  30.054  30.658  25.463
    1STR   H23363315  29.951  30.624  25.464
    1STR   H23463316  30.064  30.730  25.382
    1STR   H23563317  30.071  30.713  25.556
    1STR   C23663318  30.142  30.447  25.572
    1STR   H23763319  30.041  30.409  25.582
    1STR   H23863320  30.207  30.360  25.555
    1STR   O23963321  30.182  30.517  25.689
    1STR   C24063322  30.174  30.442  25.810
    1STR   H24163323  30.081  30.384  25.813
    1STR   C24263324  30.295  30.347  25.821
    1STR   H24363325  30.389  30.402  25.813
    1STR   H24463326  30.295  30.271  25.743
    1STR   H24563327  30.295  30.295  25.917
    1STR   C24663328  30.171  30.542  25.926
    1STR   H24763329  30.264  30.600  25.928
    1STR   H24863330  30.089  30.612  25.910
    1STR   O24963331  30.154  30.472  26.049
    1STR   C25063332  30.153  30.554  26.166
    1STR   H25163333  30.232  30.629  26.160
    1STR   C25263334  30.016  30.623  26.181
    1STR   H25363335  29.936  30.549  26.182
    1STR   H25463336  29.996  30.693  26.100
    1STR   H25563337  30.011  30.679  26.274
    1STR   C25663338  30.183  30.463  26.286
    1STR   H25763339  30.105  30.387  26.296
    1STR   H25863340  30.277  30.410  26.267
    1STR   O25963341  30.193  30.542  26.404
    1STR   C26063342  30.218  30.468  26.524
    1STR   H26163343  30.155  30.379  26.526
    1STR   C26263344  30.366  30.430  26.532
    1STR   H26363345  30.430  30.517  26.525
    1STR   H26463346  30.395  30.360  26.453
    1STR   H26563347  30.388  30.381  26.627
    1STR   C26663348  30.176  30.558  26.641
    1STR   H26763349  30.238  30.648  26.643
    1STR   H26863350  30.073  30.590  26.627
    1STR   O26963351  30.190  30.486  26.763
    1STR   C27063352  30.158  30.559  26.881
    1STR   H27163353  30.200  30.660  26.876
    1STR   C27263354  30.005  30.567  26.898
    1STR   H27363355  29.961  30.468  26.899
    1STR   H27463356  29.958  30.625  26.819
    1STR   H27563357  29.980  30.616  26.992
    1STR   C27663358  30.224  30.486  27.000
    1STR   H27763359  30.183  30.386  27.009
    1STR   H27863360  30.330  30.476  26.980
    1STR   O27963361  30.202  30.561  27.119
    1STR   C28063362  30.255  30.502  27.238
    1STR   H28163363  30.234  30.395  27.239
    1STR   C28263364  30.407  30.526  27.245
    1STR   H28363365  30.430  30.633  27.238
    1STR   H28463366  30.461  30.475  27.165
    1STR   H28563367  30.447  30.490  27.339
    1STR   C28663368  30.183  30.567  27.357
    1STR   H28763369  30.203  30.674  27.359
    1STR   H28863370  30.075  30.554  27.344
    1STR   O28963371  30.226  30.505  27.478
    1STR   C29063372  30.169  30.558  27.597
    1STR   H29163373  30.167  30.668  27.592
    1STR   C29263374  30.026  30.504  27.616
    1STR   H29363375  30.025  30.395  27.616
    1STR   H29463376  29.959  30.538  27.538
    1STR   H29563377  29.985  30.538  27.711
    1STR   C29663378  30.260  30.517  27.714
    1STR   H29763379  30.263  30.409  27.722
    1STR   H29863380  30.362  30.551  27.693
    1STR   O29963381  30.212  30.576  27.834
    1STR   C30063382  30.286  30.542  27.951
    1STR   H30163383  30.310  30.435  27.951
    1STR   C30263384  30.415  30.625  27.959
    1STR   H30363385  30.393  30.732  27.954
    1STR   H30463386  30.483  30.602  27.878
    1STR   H30563387  30.468  30.606  28.052
    1STR   C30663388  30.194  30.568  28.072
    1STR   H30763389  30.170  30.674  28.078
    1STR   H30863390  30.100  30.515  28.057
    1STR   O30963391  30.259  30.523  28.191
    1STR    H1R63392  30.140  30.641  28.313
    1STR    H1S63393  30.023  30.443  28.418
    1STR    H1T63394  30.121  30.334  28.322
    1STR    H1U63395  30.003  30.439  28.244
    1STR    H1V63396  30.368  30.605  28.409
    1STR    H1W63397  30.335  30.436  28.430
    1STR    H1X63398  30.135  30.633  28.736
    1STR    H1Y63399  29.995  30.664  28.923
    1STR    H1Z63400  29.906  30.579  29.135
    1STR    H2063401  29.907  30.227  29.236
    1STR    H2163402  30.003  30.343  29.328
    1STR    H2263403  29.842  30.386  29.269
    1STR    H2363404  30.084  30.096  29.013
    1STR    H2763405  30.192  30.285  28.855
    1STR    H2863406  29.763  30.404  16.380
    1STR    H2963407  29.764  30.469  16.148
    1STR    H2A63408  30.034  30.422  15.917
    1STR    H2B63409  29.876  30.493  15.942
    1STR    H2C63410  29.888  30.328  15.880
    1STR   BCK163411  30.170  30.030  30.977
    1STR    O0363412  30.250  29.942  30.948
    1STR    N0463413  30.093  30.029  31.086
    1STR    C0563414  30.077  29.924  31.177
    1STR    C0663415  30.099  29.945  31.316
    1STR    C0763416  30.078  29.842  31.412
    1STR    N0863417  30.096  29.867  31.550
    1STR    C0963418  30.094  29.783  31.655
    1STR    O0A63419  30.079  29.662  31.648
    1STR    O0B63420  30.111  29.849  31.773
    1STR    C0C63421  30.118  29.775  31.896
    1STR    C0D63422  30.260  29.720  31.914
    1STR    C0E63423  30.075  29.861  32.017
    1STR    O0F63424  30.082  29.783  32.137
    1STR    C0G63425  30.044  29.849  32.258
    1STR    C0H63426  29.890  29.856  32.267
    1STR    C0I63427  30.101  29.771  32.379
    1STR    O0J63428  30.071  29.839  32.501
    1STR    C0K63429  29.694  29.821  43.347
    1STR    C0M63430  29.847  29.819  43.359
    1STR    C0N63431  29.629  29.905  43.458
    1STR    O0O63432  29.643  29.842  43.585
    1STR    C0P63433  29.736  29.881  43.672
    1STR    O0Q63434  29.817  29.972  43.656
    1STR    N0R63435  29.725  29.803  43.779
    1STR    C0S63436  29.797  29.797  43.899
    1STR    C0T63437  29.758  29.695  43.988
    1STR    C0U63438  29.827  29.676  44.109
    1STR    C0V63439  29.934  29.759  44.144
    1STR    C0W63440  30.012  29.725  44.270
    1STR    C0X63441  29.971  29.866  44.059
    1STR    N0Y63442  30.079  29.949  44.092
    1STR   BCK263443  30.095  30.017  44.206
    1STR    O1063444  30.007  30.037  44.289
    1STR    C1363445  29.903  29.883  43.936
    1STR    C1463446  30.034  29.716  31.364
    1STR    C1563447  30.010  29.695  31.227
    1STR    C1663448  30.029  29.798  31.134
    1STR    C1763449  29.992  29.772  30.988
    1STR    H1B63450  30.039  30.113  31.101
    1STR    H1C63451  30.133  30.042  31.349
    1STR    H1D63452  30.116  29.962  31.578
    1STR    H1E63453  30.048  29.691  31.891
    1STR    H1F63454  30.334  29.800  31.921
    1STR    H1G63455  30.267  29.660  32.005
    1STR    H1H63456  30.288  29.655  31.831
    1STR    H1I63457  29.974  29.898  32.001
    1STR    H1J63458  30.140  29.949  32.026
    1STR    H1K63459  30.086  29.950  32.261
    1STR    H1M63460  29.846  29.757  32.261
    1STR    H1N63461  29.847  29.917  32.188
    1STR    H1O63462  29.859  29.900  32.362
    1STR    H1P63463  30.061  29.670  32.381
    1STR    H1Q63464  30.209  29.762  32.367
    1STR   C01063465  30.114  29.775  32.621
    1STR   H01163466  30.091  29.669  32.618
    1STR   C01263467  30.266  29.795  32.640
    1STR   H01363468  30.292  29.901  32.639
    1STR   H01463469  30.323  29.745  32.562
    1STR   H01563470  30.298  29.753  32.735
    1STR   C01663471  30.036  29.837  32.739
    1STR   H01763472  30.056  29.944  32.746
    1STR   H01863473  29.929  29.826  32.720
    1STR   O01963474  30.071  29.772  32.862
    1STR   C02063475  30.007  29.823  32.979
    1STR   H02163476  30.008  29.933  32.977
    1STR   C02263477  29.863  29.772  32.987
    1STR   H02363478  29.860  29.663  32.985
    1STR   H02463479  29.801  29.809  32.905
    1STR   H02563480  29.815  29.804  33.080
    1STR   C02663481  30.088  29.779  33.103
    1STR   H02763482  30.090  29.670  33.109
    1STR   H02863483  30.192  29.811  33.091
    1STR   O02963484  30.032  29.835  33.221
    1STR   C03063485  30.095  29.797  33.344
    1STR   H03163486  30.117  29.690  33.343
    1STR   C03263487  30.225  29.877  33.362
    1STR   H03363488  30.206  29.985  33.358
    1STR   H03463489  30.299  29.854  33.286
    1STR   H03563490  30.271  29.856  33.458
    1STR   C03663491  29.997  29.825  33.459
    1STR   H03763492  29.973  29.931  33.463
    1STR   H03863493  29.904  29.772  33.439
    1STR   O03963494  30.053  29.781  33.583
    1STR   C04063495  29.974  29.804  33.699
    1STR   H04163496  29.931  29.905  33.695
    1STR   C04263497  29.862  29.699  33.707
    1STR   H04363498  29.902  29.598  33.707
    1STR   H04463499  29.791  29.708  33.625
    1STR   H04563500  29.805  29.711  33.800
    1STR   C04663501  30.066  29.797  33.822
    1STR   H04763502  30.110  29.698  33.829
    1STR   H04863503  30.148  29.868  33.808
    1STR   O04963504  29.992  29.829  33.940
    1STR   C05063505  30.065  29.822  34.062
    1STR   H05163506  30.128  29.733  34.063
    1STR   C05263507  30.152  29.948  34.077
    1STR   H05363508  30.092  30.038  34.072
    1STR   H05463509  30.230  29.954  34.001
    1STR   H05563510  30.203  29.948  34.174
    1STR   C05663511  29.964  29.810  34.177
    1STR   H05763512  29.900  29.898  34.179
    1STR   H05863513  29.899  29.724  34.158
    1STR   O05963514  30.033  29.793  34.300
    1STR   C06063515  29.950  29.785  34.416
    1STR   H06163516  29.870  29.859  34.411
    1STR   C06263517  29.890  29.644  34.426
    1STR   H06363518  29.968  29.568  34.427
    1STR   H06463519  29.822  29.622  34.344
    1STR   H06563520  29.833  29.633  34.519
    1STR   C06663521  30.037  29.818  34.538
    1STR   H06763522  30.118  29.744  34.547
    1STR   H06863523  30.084  29.915  34.523
    1STR   O06963524  29.956  29.819  34.656
    1STR   C07063525  30.026  29.844  34.777
    1STR   H07163526  30.120  29.787  34.780
    1STR   C07263527  30.056  29.994  34.790
    1STR   H07363528  29.964  30.053  34.784
    1STR   H07463529  30.125  30.030  34.714
    1STR   H07563530  30.102  30.016  34.887
    1STR   C07663531  29.938  29.794  34.892
    1STR   H07763532  29.844  29.850  34.894
    1STR   H07863533  29.913  29.690  34.875
    1STR   O07963534  30.008  29.809  35.016
    1STR   C08063535  29.935  29.770  35.132
    1STR   H08163536  29.832  29.806  35.126
    1STR   C08263537  29.935  29.617  35.145
    1STR   H08363538  30.037  29.578  35.146
    1STR   H08463539  29.882  29.568  35.064
    1STR   H08563540  29.887  29.586  35.238
    1STR   C08663541  30.002  29.837  35.253
    1STR   H08763542  30.104  29.801  35.263
    1STR   H08863543  30.006  29.944  35.236
    1STR   O08963544  29.927  29.808  35.371
    1STR   C09063545  29.981  29.861  35.491
    1STR   H09163546  30.089  29.846  35.494
    1STR   C09263547  29.947  30.011  35.502
    1STR   H09363548  29.840  30.028  35.495
    1STR   H09463549  29.996  30.069  35.424
    1STR   H09563550  29.981  30.051  35.598
    1STR   C09663551  29.919  29.782  35.608
    1STR   H09763552  29.811  29.795  35.609
    1STR   H09863553  29.938  29.675  35.592
    1STR   O09963554  29.977  29.825  35.731
    1STR   C10063555  29.926  29.762  35.847
    1STR   H10163556  29.817  29.754  35.842
    1STR   C10263557  29.988  29.622  35.863
    1STR   H10363558  30.096  29.627  35.864
    1STR   H10463559  29.958  29.555  35.782
    1STR   H10563560  29.956  29.576  35.956
    1STR   C10663561  29.960  29.852  35.967
    1STR   H10763562  30.068  29.860  35.977
    1STR   H10863563  29.921  29.952  35.948
    1STR   O10963564  29.902  29.797  36.086
    1STR   C11063565  29.930  29.870  36.205
    1STR   H11163566  30.035  29.899  36.208
    1STR   C11263567  29.840  29.994  36.214
    1STR   H11363568  29.735  29.966  36.207
    1STR   H11463569  29.861  30.066  36.135
    1STR   H11563570  29.854  30.045  36.309
    1STR   C11663571  29.906  29.774  36.323
    1STR   H11763572  29.801  29.743  36.325
    1STR   H11863573  29.965  29.684  36.309
    1STR   O11963574  29.941  29.839  36.445
    1STR   C12063575  29.919  29.762  36.563
    1STR   H12163576  29.822  29.712  36.558
    1STR   C12263577  30.032  29.659  36.580
    1STR   H12363578  30.130  29.708  36.581
    1STR   H12463579  30.032  29.585  36.501
    1STR   H12563580  30.021  29.606  36.675
    1STR   C12663581  29.914  29.861  36.681
    1STR   H12763582  30.010  29.912  36.691
    1STR   H12863583  29.839  29.937  36.661
    1STR   O12963584  29.883  29.790  36.801
    1STR   C13063585  29.879  29.869  36.919
    1STR   H13163586  29.964  29.938  36.920
    1STR   C13263587  29.747  29.947  36.926
    1STR   H13363588  29.661  29.879  36.919
    1STR   H13463589  29.738  30.020  36.845
    1STR   H13563590  29.739  30.001  37.020
    1STR   C13663591  29.894  29.773  37.038
    1STR   H13763592  29.811  29.703  37.041
    1STR   H13863593  29.985  29.714  37.025
    1STR   O13963594  29.901  29.849  37.159
    1STR   C14063595  29.911  29.772  37.278
    1STR   H14163596  29.843  29.687  37.274
    1STR   C14263597  30.056  29.723  37.297
    1STR   H14363598  30.126  29.807  37.296
    1STR   H14463599  30.086  29.654  37.219
    1STR   H14563600  30.067  29.671  37.392
    1STR   C14663601  29.867  29.862  37.395
    1STR   H14763602  29.934  29.948  37.403
    1STR   H14863603  29.767  29.901  37.374
    1STR   O14963604  29.866  29.786  37.516
    1STR   C15063605  29.831  29.860  37.633
    1STR   H15163606  29.881  29.957  37.633
    1STR   C15263607  29.679  29.878  37.639
    1STR   H15363608  29.627  29.782  37.634
    1STR   H15463609  29.641  29.940  37.558
    1STR   H15563610  29.650  29.927  37.732
    1STR   C15663611  29.883  29.780  37.753
    1STR   H15763612  29.834  29.683  37.758
    1STR   H15863613  29.990  29.762  37.741
    1STR   O15963614  29.859  29.854  37.873
    1STR   C16063615  29.899  29.789  37.993
    1STR   H16163616  29.870  29.684  37.991
    1STR   C16263617  30.051  29.802  38.012
    1STR   H16363618  30.082  29.907  38.010
    1STR   H16463619  30.106  29.749  37.935
    1STR   H16563620  30.081  29.761  38.108
    1STR   C16663621  29.822  29.856  38.109
    1STR   H16763622  29.849  29.962  38.115
    1STR   H16863623  29.715  29.852  38.087
    1STR   O16963624  29.851  29.789  38.231
    1STR   C17063625  29.789  29.844  38.347
    1STR   H17163626  29.796  29.953  38.345
    1STR   C17263627  29.642  29.800  38.353
    1STR   H17363628  29.634  29.691  38.350
    1STR   H17463629  29.583  29.841  38.271
    1STR   H17563630  29.596  29.834  38.446
    1STR   C17663631  29.869  29.793  38.468
    1STR   H17763632  29.863  29.685  38.474
    1STR   H17863633  29.974  29.819  38.456
    1STR   O17963634  29.816  29.853  38.587
    1STR   C18063635  29.879  29.812  38.708
    1STR   H18163636  29.894  29.704  38.707
    1STR   C18263637  30.013  29.885  38.726
    1STR   H18363638  29.999  29.993  38.722
    1STR   H18463639  30.085  29.857  38.649
    1STR   H18563640  30.057  29.861  38.822
    1STR   C18663641  29.781  29.845  38.822
    1STR   H18763642  29.764  29.953  38.827
    1STR   H18863643  29.685  29.798  38.802
    1STR   O18963644  29.835  29.797  38.945
    1STR   C19063645  29.756  29.824  39.061
    1STR   H19163646  29.719  29.927  39.057
    1STR   C19263647  29.639  29.725  39.069
    1STR   H19363648  29.674  29.622  39.068
    1STR   H19463649  29.569  29.738  38.986
    1STR   H19563650  29.582  29.740  39.161
    1STR   C19663651  29.848  29.812  39.183
    1STR   H19763652  29.886  29.710  39.191
    1STR   H19863653  29.934  29.877  39.170
    1STR   O19963654  29.776  29.848  39.301
    1STR   C20063655  29.850  29.837  39.422
    1STR   H20163656  29.907  29.744  39.423
    1STR   C20263657  29.943  29.958  39.438
    1STR   H20363658  29.887  30.052  39.433
    1STR   H20463659  30.020  29.961  39.362
    1STR   H20563660  29.993  29.955  39.535
    1STR   C20663661  29.747  29.830  39.537
    1STR   H20763662  29.688  29.922  39.540
    1STR   H20863663  29.678  29.748  39.517
    1STR   O20963664  29.815  29.809  39.660
    1STR   C21063665  29.732  29.805  39.776
    1STR   H21163666  29.656  29.884  39.771
    1STR   C21263667  29.664  29.667  39.786
    1STR   H21363668  29.738  29.587  39.786
    1STR   H21463669  29.595  29.649  39.703
    1STR   H21563670  29.606  29.659  39.878
    1STR   C21663671  29.821  29.832  39.898
    1STR   H21763672  29.897  29.754  39.907
    1STR   H21863673  29.874  29.927  39.883
    1STR   O21963674  29.740  29.838  40.015
    1STR   C22063675  29.812  29.860  40.136
    1STR   H22163676  29.902  29.798  40.139
    1STR   C22263677  29.849  30.008  40.150
    1STR   H22363678  29.760  30.072  40.143
    1STR   H22463679  29.919  30.040  40.073
    1STR   H22563680  29.896  30.027  40.246
    1STR   C22663681  29.720  29.814  40.251
    1STR   H22763682  29.630  29.875  40.253
    1STR   H22863683  29.690  29.711  40.233
    1STR   O22963684  29.791  29.824  40.375
    1STR   C23063685  29.716  29.789  40.490
    1STR   H23163686  29.615  29.831  40.485
    1STR   C23263687  29.708  29.636  40.503
    1STR   H23363688  29.808  29.592  40.504
    1STR   H23463689  29.652  29.590  40.421
    1STR   H23563690  29.658  29.607  40.596
    1STR   C23663691  29.786  29.852  40.612
    1STR   H23763692  29.887  29.811  40.622
    1STR   H23863693  29.797  29.959  40.595
    1STR   O23963694  29.710  29.827  40.729
    1STR   C24063695  29.766  29.877  40.850
    1STR   H24163696  29.873  29.857  40.853
    1STR   C24263697  29.741  30.028  40.861
    1STR   H24363698  29.635  30.051  40.854
    1STR   H24463699  29.793  30.084  40.783
    1STR   H24563700  29.776  30.066  40.957
    1STR   C24663701  29.700  29.801  40.966
    1STR   H24763702  29.593  29.820  40.968
    1STR   H24863703  29.713  29.694  40.950
    1STR   O24963704  29.761  29.840  41.089
    1STR   C25063705  29.706  29.780  41.206
    1STR   H25163706  29.597  29.778  41.200
    1STR   C25263707  29.760  29.637  41.221
    1STR   H25363708  29.869  29.636  41.222
    1STR   H25463709  29.727  29.571  41.140
    1STR   H25563710  29.726  29.592  41.314
    1STR   C25663711  29.745  29.868  41.325
    1STR   H25763712  29.854  29.870  41.336
    1STR   H25863713  29.712  29.970  41.307
    1STR   O25963714  29.685  29.816  41.444
    1STR   C26063715  29.716  29.887  41.563
    1STR   H26163716  29.823  29.911  41.566
    1STR   C26263717  29.633  30.016  41.572
    1STR   H26363718  29.526  29.994  41.565
    1STR   H26463719  29.658  30.086  41.493
    1STR   H26563720  29.650  30.066  41.667
    1STR   C26663721  29.686  29.792  41.681
    1STR   H26763722  29.580  29.768  41.682
    1STR   H26863723  29.741  29.699  41.667
    1STR   O26963724  29.725  29.855  41.803
    1STR   C27063725  29.699  29.779  41.921
    1STR   H27163726  29.600  29.734  41.915
    1STR   C27263727  29.806  29.670  41.938
    1STR   H27363728  29.906  29.713  41.939
    1STR   H27463729  29.802  29.596  41.858
    1STR   H27563730  29.792  29.617  42.032
    1STR   C27663731  29.699  29.878  42.039
    1STR   H27763732  29.798  29.924  42.048
    1STR   H27863733  29.628  29.958  42.019
    1STR   O27963734  29.664  29.808  42.158
    1STR   C28063735  29.665  29.887  42.276
    1STR   H28163736  29.753  29.952  42.278
    1STR   C28263737  29.537  29.972  42.284
    1STR   H28363738  29.448  29.909  42.277
    1STR   H28463739  29.532  30.046  42.204
    1STR   H28563740  29.532  30.026  42.378
    1STR   C28663741  29.675  29.790  42.395
    1STR   H28763742  29.588  29.725  42.398
    1STR   H28863743  29.763  29.726  42.382
    1STR   O28963744  29.686  29.865  42.516
    1STR   C29063745  29.691  29.787  42.635
    1STR   H29163746  29.618  29.705  42.630
    1STR   C29263747  29.833  29.730  42.654
    1STR   H29363748  29.907  29.810  42.654
    1STR   H29463749  29.860  29.659  42.575
    1STR   H29563750  29.841  29.677  42.749
    1STR   C29663751  29.652  29.879  42.751
    1STR   H29763752  29.723  29.961  42.759
    1STR   H29863753  29.554  29.923  42.730
    1STR   O29963754  29.647  29.803  42.872
    1STR   C30063755  29.617  29.880  42.988
    1STR   H30163756  29.671  29.975  42.986
    1STR   C30263757  29.466  29.905  42.997
    1STR   H30363758  29.410  29.811  42.993
    1STR   H30463759  29.430  29.968  42.916
    1STR   H30563760  29.440  29.955  43.090
    1STR   C30663761  29.668  29.800  43.109
    1STR   H30763762  29.612  29.707  43.119
    1STR   H30863763  29.772  29.774  43.093
    1STR   O30963764  29.654  29.881  43.225
    1STR    H1R63765  29.654  29.719  43.354
    1STR    H1S63766  29.878  29.775  43.454
    1STR    H1T63767  29.888  29.920  43.355
    1STR    H1U63768  29.894  29.760  43.280
    1STR    H1V63769  29.522  29.915  43.439
    1STR    H1W63770  29.669  30.007  43.459
    1STR    H1X63771  29.650  29.738  43.767
    1STR    H1Y63772  29.677  29.628  43.965
    1STR    H1Z63773  29.797  29.595  44.175
    1STR    H2063774  30.119  29.724  44.248
    1STR    H2163775  29.992  29.798  44.349
    1STR    H2263776  29.986  29.627  44.309
    1STR    H2363777  30.153  29.959  44.025
    1STR    H2763778  29.933  29.963  43.870
    1STR    H2863779  30.015  29.632  31.429
    1STR    H2963780  29.975  29.598  31.194
    1STR    H2A63781  29.946  29.859  30.943
    1STR    H2B63782  29.922  29.689  30.980
    1STR    H2C63783  30.081  29.746  30.931
    1STR   BCK163784  30.160  30.153  46.017
    1STR    O0363785  30.137  30.270  45.989
    1STR    N0463786  30.206  30.111  46.135
    1STR    C0563787  30.264  30.193  46.231
    1STR    C0663788  30.219  30.189  46.366
    1STR    C0763789  30.281  30.268  46.467
    1STR    N0863790  30.238  30.258  46.600
    1STR    C0963791  30.291  30.311  46.712
    1STR    O0A63792  30.389  30.385  46.715
    1STR    O0B63793  30.222  30.275  46.822
    1STR    C0C63794  30.258  30.332  46.949
    1STR    C0D63795  30.187  30.467  46.964
    1STR    C0E63796  30.227  30.237  47.066
    1STR    O0F63797  30.275  30.298  47.186
    1STR    C0G63798  30.260  30.222  47.306
    1STR    C0H63799  30.370  30.115  47.313
    1STR    C0I63800  30.271  30.320  47.425
    1STR    O0J63801  30.247  30.250  47.547
    1STR    C0K63802  30.553  30.012  58.388
    1STR    C0M63803  30.436  30.111  58.404
    1STR    C0N63804  30.556  29.908  58.501
    1STR    O0O63805  30.593  29.968  58.625
    1STR    C0P63806  30.500  29.998  58.716
    1STR    O0Q63807  30.379  29.978  58.705
    1STR    N0R63808  30.559  30.055  58.821
    1STR    C0S63809  30.505  30.108  58.938
    1STR    C0T63810  30.583  30.201  59.010
    1STR    C0U63811  30.534  30.261  59.127
    1STR    C0V63812  30.406  30.229  59.175
    1STR    C0W63813  30.354  30.298  59.300
    1STR    C0X63814  30.328  30.133  59.107
    1STR    N0Y63815  30.204  30.098  59.158
    1STR   BCK263816  30.181  30.007  59.253
    1STR    O1063817  30.073  30.002  59.310
    1STR    C1363818  30.377  30.074  58.989
    1STR    C1463819  30.385  30.355  46.427
    1STR    C1563820  30.432  30.357  46.295
    1STR    C1663821  30.375  30.274  46.197
    1STR    C1763822  30.438  30.273  46.059
    1STR    H1B63823  30.208  30.011  46.148
    1STR    H1C63824  30.137  30.124  46.391
    1STR    H1D63825  30.158  30.201  46.620
    1STR    H1E63826  30.366  30.349  46.951
    1STR    H1F63827  30.079  30.456  46.965
    1STR    H1G63828  30.216  30.516  47.057
    1STR    H1H63829  30.213  30.535  46.883
    1STR    H1I63830  30.277  30.142  47.049
    1STR    H1J63831  30.120  30.218  47.072
    1STR    H1K63832  30.162  30.176  47.309
    1STR    H1M63833  30.469  30.160  47.306
    1STR    H1N63834  30.361  30.041  47.233
    1STR    H1O63835  30.365  30.061  47.408
    1STR    H1P63836  30.369  30.367  47.426
    1STR    H1Q63837  30.198  30.400  47.412
    1STR   C01063838  30.260  30.327  47.666
    1STR   H01163839  30.349  30.390  47.662
    1STR   C01263840  30.135  30.415  47.684
    1STR   H01363841  30.044  30.355  47.684
    1STR   H01463842  30.126  30.491  47.606
    1STR   H01563843  30.139  30.468  47.779
    1STR   C01663844  30.276  30.229  47.784
    1STR   H01763845  30.189  30.164  47.790
    1STR   H01863846  30.362  30.165  47.764
    1STR   O01963847  30.295  30.301  47.906
    1STR   C02063848  30.307  30.220  48.023
    1STR   H02163849  30.233  30.139  48.021
    1STR   C02263850  30.449  30.160  48.030
    1STR   H02363851  30.525  30.238  48.027
    1STR   H02463852  30.469  30.091  47.948
    1STR   H02563853  30.463  30.104  48.123
    1STR   C02663854  30.278  30.308  48.145
    1STR   H02763855  30.351  30.389  48.151
    1STR   H02863856  30.180  30.354  48.133
    1STR   O02963857  30.281  30.228  48.264
    1STR   C03063858  30.259  30.299  48.386
    1STR   H03163859  30.316  30.393  48.385
    1STR   C03263860  30.109  30.328  48.404
    1STR   H03363861  30.051  30.236  48.400
    1STR   H03463862  30.071  30.395  48.327
    1STR   H03563863  30.090  30.374  48.500
    1STR   C03663864  30.314  30.212  48.501
    1STR   H03763865  30.259  30.118  48.505
    1STR   H03863866  30.418  30.188  48.481
    1STR   O03963867  30.302  30.283  48.624
    1STR   C04063868  30.345  30.211  48.740
    1STR   H04163869  30.309  30.108  48.736
    1STR   C04263870  30.498  30.213  48.748
    1STR   H04363871  30.537  30.315  48.748
    1STR   H04463872  30.545  30.159  48.666
    1STR   H04563873  30.532  30.166  48.841
    1STR   C04663874  30.281  30.279  48.863
    1STR   H04763875  30.316  30.382  48.871
    1STR   H04863876  30.173  30.283  48.849
    1STR   O04963877  30.315  30.206  48.980
    1STR   C05063878  30.265  30.260  49.102
    1STR   H05163879  30.279  30.369  49.104
    1STR   C05263880  30.116  30.226  49.118
    1STR   H05363881  30.099  30.119  49.113
    1STR   H05463882  30.054  30.274  49.042
    1STR   H05563883  30.079  30.260  49.215
    1STR   C05663884  30.348  30.201  49.217
    1STR   H05763885  30.336  30.092  49.220
    1STR   H05863886  30.454  30.220  49.198
    1STR   O05963887  30.308  30.260  49.341
    1STR   C06063888  30.375  30.210  49.456
    1STR   H06163889  30.384  30.101  49.451
    1STR   C06263890  30.515  30.273  49.467
    1STR   H06363891  30.509  30.382  49.467
    1STR   H06463892  30.580  30.243  49.385
    1STR   H06563893  30.564  30.242  49.559
    1STR   C06663894  30.289  30.245  49.579
    1STR   H06763895  30.279  30.353  49.588
    1STR   H06863896  30.188  30.205  49.563
    1STR   O06963897  30.347  30.189  49.696
    1STR   C07063898  30.279  30.218  49.817
    1STR   H07163899  30.248  30.323  49.820
    1STR   C07263900  30.156  30.127  49.831
    1STR   H07363901  30.183  30.021  49.824
    1STR   H07463902  30.081  30.147  49.754
    1STR   H07563903  30.107  30.142  49.927
    1STR   C07663904  30.378  30.195  49.933
    1STR   H07763905  30.409  30.090  49.935
    1STR   H07863906  30.467  30.255  49.915
    1STR   O07963907  30.316  30.231  50.056
    1STR   C08063908  30.397  30.211  50.172
    1STR   H08163909  30.448  30.114  50.166
    1STR   C08263910  30.499  30.324  50.185
    1STR   H08363911  30.450  30.422  50.187
    1STR   H08463912  30.572  30.324  50.104
    1STR   H08563913  30.556  30.315  50.278
    1STR   C08663914  30.302  30.206  50.293
    1STR   H08763915  30.250  30.302  50.303
    1STR   H08863916  30.226  30.130  50.276
    1STR   O08963917  30.377  30.177  50.411
    1STR   C09063918  30.301  30.174  50.532
    1STR   H09163919  30.232  30.258  50.534
    1STR   C09263920  30.225  30.041  50.542
    1STR   H09363921  30.292  29.956  50.535
    1STR   H09463922  30.149  30.031  50.465
    1STR   H09563923  30.173  30.034  50.638
    1STR   C09663924  30.400  30.191  50.648
    1STR   H09763925  30.471  30.108  50.649
    1STR   H09863926  30.458  30.282  50.632
    1STR   O09963927  30.328  30.199  50.771
    1STR   C10063928  30.409  30.211  50.888
    1STR   H10163929  30.495  30.143  50.882
    1STR   C10263930  30.458  30.356  50.903
    1STR   H10363931  30.374  30.425  50.904
    1STR   H10463932  30.525  30.385  50.822
    1STR   H10563933  30.513  30.368  50.996
    1STR   C10663934  30.323  30.167  51.007
    1STR   H10763935  30.237  30.234  51.017
    1STR   H10863936  30.284  30.067  50.989
    1STR   O10963937  30.402  30.169  51.126
    1STR   C11063938  30.333  30.134  51.245
    1STR   H11163939  30.235  30.183  51.248
    1STR   C11263940  30.316  29.982  51.254
    1STR   H11363941  30.412  29.931  51.247
    1STR   H11463942  30.251  29.943  51.175
    1STR   H11563943  30.270  29.953  51.349
    1STR   C11663944  30.415  30.188  51.363
    1STR   H11763945  30.513  30.140  51.365
    1STR   H11863946  30.432  30.295  51.349
    1STR   O11963947  30.345  30.164  51.485
    1STR   C12063948  30.413  30.206  51.603
    1STR   H12163949  30.519  30.178  51.598
    1STR   C12263950  30.400  30.358  51.620
    1STR   H12363951  30.295  30.388  51.621
    1STR   H12463952  30.450  30.413  51.541
    1STR   H12563953  30.444  30.390  51.715
    1STR   C12663954  30.350  30.130  51.721
    1STR   H12763955  30.245  30.157  51.731
    1STR   H12863956  30.355  30.023  51.701
    1STR   O12963957  30.421  30.161  51.841
    1STR   C13063958  30.370  30.100  51.959
    1STR   H13163959  30.261  30.106  51.960
    1STR   C13263960  30.416  29.953  51.966
    1STR   H13363961  30.524  29.945  51.959
    1STR   H13463962  30.373  29.893  51.885
    1STR   H13563963  30.385  29.908  52.060
    1STR   C13663964  30.424  30.181  52.078
    1STR   H13763965  30.533  30.176  52.081
    1STR   H13863966  30.397  30.285  52.065
    1STR   O13963967  30.368  30.129  52.199
    1STR   C14063968  30.412  30.193  52.318
    1STR   H14163969  30.520  30.210  52.314
    1STR   C14263970  30.339  30.327  52.337
    1STR   H14363971  30.231  30.312  52.336
    1STR   H14463972  30.364  30.398  52.259
    1STR   H14563973  30.366  30.373  52.432
    1STR   C14663974  30.384  30.097  52.435
    1STR   H14763975  30.277  30.079  52.443
    1STR   H14863976  30.431  30.001  52.414
    1STR   O14963977  30.435  30.152  52.556
    1STR   C15063978  30.412  30.074  52.673
    1STR   H15163979  30.310  30.036  52.673
    1STR   C15263980  30.512  29.958  52.679
    1STR   H15363981  30.615  29.994  52.674
    1STR   H15463982  30.498  29.887  52.598
    1STR   H15563983  30.501  29.903  52.772
    1STR   C15663984  30.428  30.168  52.793
    1STR   H15763985  30.529  30.207  52.798
    1STR   H15863986  30.361  30.253  52.781
    1STR   O15963987  30.396  30.097  52.913
    1STR   C16063988  30.410  30.172  53.033
    1STR   H16163989  30.503  30.230  53.031
    1STR   C16263990  30.289  30.265  53.052
    1STR   H16363991  30.196  30.209  53.050
    1STR   H16463992  30.284  30.342  52.975
    1STR   H16563993  30.295  30.316  53.148
    1STR   C16663994  30.421  30.071  53.149
    1STR   H16763995  30.330  30.011  53.155
    1STR   H16863996  30.503  30.001  53.127
    1STR   O16963997  30.445  30.140  53.271
    1STR   C17063998  30.454  30.058  53.387
    1STR   H17163999  30.375  29.982  53.385
    1STR   C17264000  30.592  29.991  53.393
    1STR   H17364001  30.672  30.065  53.390
    1STR   H17464002  30.608  29.921  53.311
    1STR   H17564003  30.603  29.935  53.486
    1STR   C17664004  30.430  30.148  53.508
    1STR   H17764005  30.507  30.225  53.514
    1STR   H17864006  30.335  30.200  53.496
    1STR   O17964007  30.427  30.069  53.627
    1STR   C18064008  30.409  30.142  53.748
    1STR   H18164009  30.471  30.232  53.747
    1STR   C18264010  30.261  30.178  53.765
    1STR   H18364011  30.198  30.089  53.762
    1STR   H18464012  30.227  30.248  53.689
    1STR   H18564013  30.245  30.226  53.862
    1STR   C18664014  30.459  30.052  53.862
    1STR   H18764015  30.399  29.961  53.867
    1STR   H18864016  30.562  30.021  53.842
    1STR   O18964017  30.452  30.124  53.985
    1STR   C19064018  30.491  30.050  54.101
    1STR   H19164019  30.450  29.949  54.097
    1STR   C19264020  30.645  30.044  54.109
    1STR   H19364021  30.688  30.143  54.108
    1STR   H19464022  30.688  29.987  54.026
    1STR   H19564023  30.677  29.995  54.201
    1STR   C19664024  30.432  30.121  54.223
    1STR   H19764025  30.472  30.222  54.231
    1STR   H19864026  30.324  30.131  54.210
    1STR   O19964027  30.461  30.046  54.341
    1STR   C20064028  30.414  30.104  54.462
    1STR   H20164029  30.434  30.211  54.463
    1STR   C20264030  30.263  30.077  54.478
    1STR   H20364031  30.241  29.971  54.473
    1STR   H20464032  30.205  30.128  54.402
    1STR   H20564033  30.228  30.114  54.575
    1STR   C20664034  30.494  30.040  54.577
    1STR   H20764035  30.476  29.932  54.580
    1STR   H20864036  30.601  30.053  54.557
    1STR   O20964037  30.458  30.101  54.700
    1STR   C21064038  30.523  30.048  54.815
    1STR   H21164039  30.525  29.939  54.811
    1STR   C21264040  30.666  30.103  54.826
    1STR   H21364041  30.666  30.212  54.826
    1STR   H21464042  30.729  30.070  54.743
    1STR   H21564043  30.713  30.070  54.918
    1STR   C21664044  30.438  30.088  54.938
    1STR   H21764045  30.435  30.196  54.947
    1STR   H21864046  30.336  30.054  54.922
    1STR   O21964047  30.494  30.029  55.055
    1STR   C22064048  30.427  30.061  55.176
    1STR   H22164049  30.402  30.168  55.179
    1STR   C22264050  30.299  29.977  55.190
    1STR   H22364051  30.321  29.870  55.183
    1STR   H22464052  30.226  30.001  55.113
    1STR   H22564053  30.251  29.994  55.286
    1STR   C22664054  30.525  30.033  55.291
    1STR   H22764055  30.551  29.927  55.293
    1STR   H22864056  30.617  30.088  55.274
    1STR   O22964057  30.466  30.073  55.415
    1STR   C23064058  30.545  30.049  55.530
    1STR   H23164059  30.591  29.950  55.525
    1STR   C23264060  30.654  30.157  55.543
    1STR   H23364061  30.610  30.256  55.544
    1STR   H23464062  30.726  30.152  55.462
    1STR   H23564063  30.710  30.144  55.636
    1STR   C23664064  30.451  30.050  55.652
    1STR   H23764065  30.404  30.148  55.662
    1STR   H23864066  30.370  29.978  55.635
    1STR   O23964067  30.524  30.016  55.769
    1STR   C24064068  30.448  30.018  55.890
    1STR   H24164069  30.383  30.105  55.893
    1STR   C24264070  30.365  29.889  55.901
    1STR   H24364071  30.428  29.800  55.894
    1STR   H24464072  30.289  29.882  55.823
    1STR   H24564073  30.313  29.885  55.997
    1STR   C24664074  30.548  30.030  56.006
    1STR   H24764075  30.614  29.943  56.007
    1STR   H24864076  30.611  30.117  55.990
    1STR   O24964077  30.477  30.041  56.129
    1STR   C25064078  30.558  30.049  56.245
    1STR   H25164079  30.640  29.976  56.239
    1STR   C25264080  30.615  30.191  56.260
    1STR   H25364081  30.535  30.265  56.262
    1STR   H25464082  30.683  30.217  56.180
    1STR   H25564083  30.670  30.201  56.354
    1STR   C25664084  30.470  30.010  56.365
    1STR   H25764085  30.388  30.082  56.375
    1STR   H25864086  30.425  29.913  56.346
    1STR   O25964087  30.550  30.007  56.483
    1STR   C26064088  30.479  29.977  56.603
    1STR   H26164089  30.384  30.031  56.606
    1STR   C26264090  30.453  29.826  56.612
    1STR   H26364091  30.546  29.769  56.605
    1STR   H26464092  30.387  29.790  56.533
    1STR   H26564093  30.406  29.800  56.707
    1STR   C26664094  30.565  30.026  56.720
    1STR   H26764095  30.660  29.973  56.722
    1STR   H26864096  30.587  30.132  56.706
    1STR   O26964097  30.493  30.007  56.842
    1STR   C27064098  30.564  30.045  56.960
    1STR   H27164099  30.668  30.011  56.955
    1STR   C27264100  30.559  30.197  56.977
    1STR   H27364101  30.456  30.233  56.979
    1STR   H27464102  30.612  30.250  56.898
    1STR   H27564103  30.605  30.227  57.072
    1STR   C27664104  30.497  29.972  57.078
    1STR   H27764105  30.393  30.005  57.088
    1STR   H27864106  30.495  29.865  57.058
    1STR   O27964107  30.570  30.000  57.197
    1STR   C28064108  30.516  29.942  57.316
    1STR   H28164109  30.408  29.954  57.318
    1STR   C28264110  30.553  29.793  57.323
    1STR   H28364111  30.661  29.779  57.317
    1STR   H28464112  30.507  29.735  57.243
    1STR   H28564113  30.520  29.750  57.418
    1STR   C28664114  30.574  30.020  57.435
    1STR   H28764115  30.682  30.010  57.437
    1STR   H28864116  30.552  30.126  57.422
    1STR   O28964117  30.516  29.972  57.556
    1STR   C29064118  30.564  30.034  57.674
    1STR   H29164119  30.673  30.044  57.670
    1STR   C29264120  30.498  30.171  57.693
    1STR   H29364121  30.390  30.163  57.694
    1STR   H29464122  30.526  30.241  57.615
    1STR   H29564123  30.528  30.215  57.788
    1STR   C29664124  30.531  29.939  57.791
    1STR   H29764125  30.423  29.927  57.799
    1STR   H29864126  30.573  29.840  57.769
    1STR   O29964127  30.586  29.991  57.911
    1STR   C30064128  30.558  29.915  58.028
    1STR   H30164129  30.454  29.882  58.027
    1STR   C30264130  30.652  29.794  58.035
    1STR   H30364131  30.757  29.825  58.031
    1STR   H30464132  30.635  29.723  57.954
    1STR   H30564133  30.637  29.739  58.129
    1STR   C30664134  30.577  30.008  58.149
    1STR   H30764135  30.680  30.042  58.154
    1STR   H30864136  30.515  30.097  58.134
    1STR   O30964137  30.539  29.939  58.267
    1STR    H1R64138  30.648  30.066  58.388
    1STR    H1S64139  30.443  30.166  58.498
    1STR    H1T64140  30.340  30.059  58.404
    1STR    H1U64141  30.434  30.185  58.324
    1STR    H1V64142  30.631  29.833  58.479
    1STR    H1W64143  30.461  29.855  58.508
    1STR    H1X64144  30.658  30.063  58.807
    1STR    H1Y64145  30.681  30.229  58.975
    1STR    H1Z64146  30.595  30.333  59.179
    1STR    H2064147  30.248  30.323  59.290
    1STR    H2164148  30.365  30.234  59.387
    1STR    H2264149  30.407  30.391  59.320
    1STR    H2364150  30.123  30.151  59.130
    1STR    H2764151  30.315  30.001  58.938
    1STR    H2864152  30.435  30.421  46.495
    1STR    H2964153  30.514  30.422  46.269
    1STR    H2A64154  30.436  30.173  46.015
    1STR    H2B64155  30.542  30.305  46.062
    1STR    H2C64156  30.384  30.341  45.992
    1STR   BCK164157  30.081  45.145   0.890
    1STR    O0364158  30.039  45.041   0.842
    1STR    N0464159  30.046  45.195   1.010
    1STR    C0564160  29.940  45.158   1.095
    1STR    C0664161  29.962  45.137   1.234
    1STR    C0764162  29.855  45.114   1.325
    1STR    N0864163  29.881  45.098   1.463
    1STR    C0964164  29.796  45.094   1.568
    1STR    O0A64165  29.674  45.105   1.560
    1STR    O0B64166  29.861  45.078   1.687
    1STR    C0C64167  29.785  45.063   1.809
    1STR    C0D64168  29.741  44.916   1.823
    1STR    C0E64169  29.866  45.109   1.933
    1STR    O0F64170  29.787  45.093   2.053
    1STR    C0G64171  29.848  45.137   2.175
    1STR    C0H64172  29.841  45.290   2.185
    1STR    C0I64173  29.775  45.071   2.295
    1STR    O0J64174  29.839  45.108   2.418
    1STR    C0K64175  29.781  45.482  13.273
    1STR    C0M64176  29.799  45.330  13.284
    1STR    C0N64177  29.853  45.555  13.388
    1STR    O0O64178  29.791  45.527  13.514
    1STR    C0P64179  29.849  45.446  13.603
    1STR    O0Q64180  29.956  45.388  13.587
    1STR    N0R64181  29.772  45.438  13.711
    1STR    C0S64182  29.786  45.367  13.831
    1STR    C0T64183  29.677  45.370  13.920
    1STR    C0U64184  29.680  45.298  14.040
    1STR    C0V64185  29.793  45.221  14.075
    1STR    C0W64186  29.786  45.137  14.202
    1STR    C0X64187  29.907  45.222  13.990
    1STR    N0Y64188  30.020  45.147  14.019
    1STR   BCK264189  30.094  45.145  14.131
    1STR    O1064190  30.075  45.219  14.227
    1STR    C1364191  29.901  45.293  13.868
    1STR    C1464192  29.724  45.109   1.271
    1STR    C1564193  29.701  45.131   1.135
    1STR    C1664194  29.807  45.157   1.046
    1STR    C1764195  29.773  45.191   0.902
    1STR    H1B64196  30.101  45.273   1.039
    1STR    H1C64197  30.063  45.140   1.271
    1STR    H1D64198  29.976  45.089   1.493
    1STR    H1E64199  29.696  45.126   1.804
    1STR    H1F64200  29.827  44.849   1.829
    1STR    H1G64201  29.681  44.902   1.913
    1STR    H1H64202  29.680  44.885   1.738
    1STR    H1I64203  29.894  45.213   1.920
    1STR    H1J64204  29.958  45.051   1.942
    1STR    H1K64205  29.952  45.104   2.178
    1STR    H1M64206  29.738  45.325   2.178
    1STR    H1N64207  29.898  45.339   2.106
    1STR    H1O64208  29.881  45.324   2.280
    1STR    H1P64209  29.670  45.103   2.297
    1STR    H1Q64210  29.775  44.963   2.283
    1STR   C01064211  29.779  45.059   2.539
    1STR   H01164212  29.671  45.074   2.534
    1STR   C01264213  29.812  44.910   2.557
    1STR   H01364214  29.919  44.893   2.557
    1STR   H01464215  29.768  44.848   2.479
    1STR   H01564216  29.773  44.874   2.652
    1STR   C01664217  29.833  45.143   2.657
    1STR   H01764218  29.942  45.132   2.663
    1STR   H01864219  29.813  45.248   2.638
    1STR   O01964220  29.772  45.102   2.780
    1STR   C02064221  29.818  45.170   2.898
    1STR   H02164222  29.927  45.179   2.895
    1STR   C02264223  29.754  45.309   2.905
    1STR   H02364224  29.645  45.303   2.903
    1STR   H02464225  29.786  45.374   2.824
    1STR   H02564226  29.782  45.359   2.998
    1STR   C02664227  29.781  45.085   3.021
    1STR   H02764228  29.672  45.074   3.027
    1STR   H02864229  29.822  44.985   3.010
    1STR   O02964230  29.831  45.146   3.140
    1STR   C03064231  29.799  45.080   3.263
    1STR   H03164232  29.695  45.049   3.262
    1STR   C03264233  29.891  44.958   3.281
    1STR   H03364234  29.996  44.986   3.277
    1STR   H03464235  29.873  44.882   3.205
    1STR   H03564236  29.873  44.910   3.377
    1STR   C03664237  29.818  45.180   3.378
    1STR   H03764238  29.922  45.213   3.382
    1STR   H03864239  29.757  45.269   3.358
    1STR   O03964240  29.780  45.120   3.502
    1STR   C04064241  29.796  45.202   3.618
    1STR   H04164242  29.892  45.253   3.614
    1STR   C04264243  29.682  45.304   3.627
    1STR   H04364244  29.585  45.255   3.626
    1STR   H04464245  29.684  45.376   3.544
    1STR   H04564246  29.689  45.362   3.719
    1STR   C04664247  29.797  45.109   3.741
    1STR   H04764248  29.702  45.057   3.749
    1STR   H04864249  29.875  45.034   3.728
    1STR   O04964250  29.822  45.186   3.859
    1STR   C05064251  29.822  45.112   3.981
    1STR   H05164252  29.738  45.042   3.982
    1STR   C05264253  29.954  45.037   3.997
    1STR   H05364254  30.039  45.105   3.991
    1STR   H05464255  29.968  44.960   3.921
    1STR   H05564256  29.959  44.986   4.094
    1STR   C05664257  29.800  45.212   4.096
    1STR   H05764258  29.883  45.284   4.099
    1STR   H05864259  29.709  45.269   4.077
    1STR   O05964260  29.791  45.142   4.220
    1STR   C06064261  29.775  45.224   4.336
    1STR   H06164262  29.842  45.310   4.330
    1STR   C06264263  29.629  45.271   4.346
    1STR   H06364264  29.560  45.187   4.347
    1STR   H06464265  29.601  45.337   4.264
    1STR   H06564266  29.613  45.327   4.439
    1STR   C06664267  29.815  45.140   4.458
    1STR   H06764268  29.749  45.053   4.467
    1STR   H06864269  29.916  45.101   4.443
    1STR   O06964270  29.809  45.220   4.575
    1STR   C07064271  29.841  45.153   4.697
    1STR   H07164272  29.792  45.055   4.699
    1STR   C07264273  29.993  45.137   4.710
    1STR   H07364274  30.043  45.233   4.703
    1STR   H07464275  30.034  45.072   4.634
    1STR   H07564276  30.019  45.093   4.807
    1STR   C07664277  29.783  45.237   4.812
    1STR   H07764278  29.830  45.335   4.814
    1STR   H07864279  29.677  45.253   4.795
    1STR   O07964280  29.804  45.168   4.936
    1STR   C08064281  29.758  45.238   5.052
    1STR   H08164282  29.786  45.343   5.046
    1STR   C08264283  29.606  45.223   5.065
    1STR   H08364284  29.576  45.118   5.066
    1STR   H08464285  29.553  45.272   4.983
    1STR   H08564286  29.571  45.268   5.158
    1STR   C08664287  29.831  45.177   5.173
    1STR   H08764288  29.805  45.071   5.183
    1STR   H08864289  29.938  45.182   5.156
    1STR   O08964290  29.796  45.249   5.291
    1STR   C09064291  29.853  45.200   5.411
    1STR   H09164292  29.848  45.091   5.414
    1STR   C09264293  29.999  45.246   5.422
    1STR   H09364294  30.007  45.355   5.415
    1STR   H09464295  30.062  45.203   5.344
    1STR   H09564296  30.042  45.217   5.518
    1STR   C09664297  29.769  45.254   5.528
    1STR   H09764298  29.773  45.363   5.529
    1STR   H09864299  29.665  45.226   5.512
    1STR   O09964300  29.817  45.200   5.651
    1STR   C10064301  29.749  45.246   5.767
    1STR   H10164302  29.732  45.354   5.762
    1STR   C10264303  29.615  45.172   5.783
    1STR   H10364304  29.630  45.064   5.784
    1STR   H10464305  29.546  45.195   5.702
    1STR   H10564306  29.567  45.199   5.876
    1STR   C10664307  29.842  45.220   5.887
    1STR   H10764308  29.860  45.112   5.897
    1STR   H10864309  29.938  45.267   5.868
    1STR   O10964310  29.783  45.272   6.006
    1STR   C11064311  29.857  45.251   6.125
    1STR   H11164312  29.896  45.149   6.128
    1STR   C11264313  29.973  45.352   6.134
    1STR   H11364314  29.936  45.454   6.126
    1STR   H11464315  30.046  45.337   6.055
    1STR   H11564316  30.025  45.342   6.229
    1STR   C11664317  29.760  45.267   6.243
    1STR   H11764318  29.720  45.369   6.245
    1STR   H11864319  29.675  45.200   6.229
    1STR   O11964320  29.828  45.237   6.365
    1STR   C12064321  29.749  45.253   6.483
    1STR   H12164322  29.691  45.345   6.478
    1STR   C12264323  29.657  45.131   6.500
    1STR   H12364324  29.713  45.038   6.501
    1STR   H12464325  29.582  45.125   6.421
    1STR   H12564326  29.602  45.138   6.595
    1STR   C12664327  29.847  45.266   6.601
    1STR   H12764328  29.907  45.175   6.611
    1STR   H12864329  29.916  45.348   6.581
    1STR   O12964330  29.774  45.291   6.721
    1STR   C13064331  29.852  45.302   6.839
    1STR   H13164332  29.929  45.224   6.840
    1STR   C13264333  29.918  45.441   6.846
    1STR   H13364334  29.843  45.520   6.839
    1STR   H13464335  29.990  45.456   6.766
    1STR   H13564336  29.972  45.453   6.940
    1STR   C13664337  29.759  45.278   6.958
    1STR   H13764338  29.682  45.355   6.961
    1STR   H13864339  29.708  45.183   6.945
    1STR   O13964340  29.835  45.278   7.079
    1STR   C14064341  29.759  45.261   7.198
    1STR   H14164342  29.668  45.322   7.194
    1STR   C14264343  29.723  45.113   7.217
    1STR   H14364344  29.812  45.050   7.216
    1STR   H14464345  29.656  45.077   7.139
    1STR   H14564346  29.672  45.097   7.312
    1STR   C14664347  29.845  45.313   7.315
    1STR   H14764348  29.936  45.254   7.323
    1STR   H14864349  29.875  45.415   7.294
    1STR   O14964350  29.769  45.307   7.436
    1STR   C15064351  29.839  45.348   7.553
    1STR   H15164352  29.940  45.307   7.553
    1STR   C15264353  29.844  45.502   7.559
    1STR   H15364354  29.744  45.545   7.554
    1STR   H15464355  29.903  45.545   7.478
    1STR   H15564356  29.890  45.535   7.652
    1STR   C15664357  29.764  45.290   7.674
    1STR   H15764358  29.663  45.330   7.678
    1STR   H15864359  29.756  45.182   7.661
    1STR   O15964360  29.836  45.321   7.793
    1STR   C16064361  29.775  45.275   7.913
    1STR   H16164362  29.667  45.295   7.911
    1STR   C16264363  29.801  45.125   7.932
    1STR   H16364364  29.908  45.103   7.930
    1STR   H16464365  29.753  45.065   7.855
    1STR   H16564366  29.762  45.091   8.028
    1STR   C16664367  29.835  45.357   8.029
    1STR   H16764368  29.942  45.339   8.035
    1STR   H16864369  29.821  45.463   8.007
    1STR   O16964370  29.770  45.322   8.151
    1STR   C17064371  29.819  45.389   8.267
    1STR   H17164372  29.928  45.392   8.265
    1STR   C17264373  29.762  45.532   8.273
    1STR   H17364374  29.653  45.531   8.270
    1STR   H17464375  29.798  45.594   8.191
    1STR   H17564376  29.792  45.581   8.366
    1STR   C17664377  29.776  45.306   8.388
    1STR   H17764378  29.667  45.302   8.394
    1STR   H17864379  29.811  45.203   8.376
    1STR   O17964380  29.831  45.363   8.507
    1STR   C18064381  29.795  45.297   8.628
    1STR   H18164382  29.689  45.272   8.627
    1STR   C18264383  29.880  45.170   8.646
    1STR   H18364384  29.986  45.193   8.642
    1STR   H18464385  29.858  45.096   8.569
    1STR   H18564386  29.860  45.123   8.742
    1STR   C18664387  29.819  45.397   8.743
    1STR   H18764388  29.925  45.423   8.747
    1STR   H18864389  29.764  45.489   8.722
    1STR   O18964390  29.776  45.339   8.865
    1STR   C19064391  29.797  45.420   8.981
    1STR   H19164392  29.896  45.467   8.977
    1STR   C19264393  29.688  45.528   8.989
    1STR   H19364394  29.588  45.484   8.988
    1STR   H19464395  29.694  45.599   8.906
    1STR   H19564396  29.698  45.586   9.081
    1STR   C19664397  29.793  45.327   9.103
    1STR   H19764398  29.694  45.280   9.111
    1STR   H19864399  29.865  45.247   9.090
    1STR   O19964400  29.822  45.402   9.221
    1STR   C20064401  29.818  45.328   9.342
    1STR   H20164402  29.730  45.263   9.343
    1STR   C20264403  29.946  45.246   9.358
    1STR   H20364404  30.035  45.310   9.353
    1STR   H20464405  29.956  45.169   9.282
    1STR   H20564406  29.948  45.195   9.455
    1STR   C20664407  29.802  45.430   9.457
    1STR   H20764408  29.888  45.497   9.460
    1STR   H20864409  29.714  45.492   9.437
    1STR   O20964410  29.787  45.360   9.580
    1STR   C21064411  29.775  45.443   9.696
    1STR   H21164412  29.847  45.525   9.691
    1STR   C21264413  29.632  45.499   9.706
    1STR   H21364414  29.559  45.418   9.706
    1STR   H21464415  29.608  45.566   9.623
    1STR   H21564416  29.620  45.555   9.798
    1STR   C21664417  29.811  45.356   9.818
    1STR   H21764418  29.740  45.274   9.827
    1STR   H21864419  29.909  45.312   9.802
    1STR   O21964420  29.810  45.437   9.935
    1STR   C22064421  29.837  45.368  10.056
    1STR   H22164422  29.783  45.273  10.059
    1STR   C22264423  29.988  45.344  10.070
    1STR   H22364424  30.044  45.437  10.063
    1STR   H22464425  30.026  45.277   9.993
    1STR   H22564426  30.012  45.299  10.166
    1STR   C22664427  29.784  45.455  10.171
    1STR   H22764428  29.836  45.551  10.173
    1STR   H22864429  29.678  45.477  10.154
    1STR   O22964430  29.800  45.386  10.295
    1STR   C23064431  29.758  45.457  10.411
    1STR   H23164432  29.792  45.561  10.405
    1STR   C23264433  29.605  45.451  10.423
    1STR   H23364434  29.570  45.348  10.424
    1STR   H23464435  29.555  45.503  10.342
    1STR   H23564436  29.572  45.499  10.516
    1STR   C23664437  29.827  45.393  10.532
    1STR   H23764438  29.795  45.289  10.542
    1STR   H23864439  29.935  45.391  10.515
    1STR   O23964440  29.796  45.467  10.649
    1STR   C24064441  29.851  45.415  10.770
    1STR   H24164442  29.840  45.306  10.773
    1STR   C24264443  29.999  45.453  10.781
    1STR   H24364444  30.012  45.561  10.774
    1STR   H24464445  30.059  45.407  10.703
    1STR   H24564446  30.040  45.421  10.877
    1STR   C24664447  29.769  45.474  10.886
    1STR   H24764448  29.779  45.582  10.888
    1STR   H24864449  29.663  45.451  10.870
    1STR   O24964450  29.814  45.417  11.009
    1STR   C25064451  29.748  45.466  11.126
    1STR   H25164452  29.737  45.575  11.120
    1STR   C25264453  29.611  45.400  11.141
    1STR   H25364454  29.619  45.291  11.142
    1STR   H25464455  29.543  45.427  11.060
    1STR   H25564456  29.563  45.430  11.234
    1STR   C25664457  29.839  45.435  11.246
    1STR   H25764458  29.851  45.327  11.256
    1STR   H25864459  29.938  45.477  11.227
    1STR   O25964460  29.783  45.491  11.364
    1STR   C26064461  29.856  45.465  11.484
    1STR   H26164462  29.889  45.361  11.487
    1STR   C26264463  29.977  45.560  11.493
    1STR   H26364464  29.946  45.664  11.485
    1STR   H26464465  30.049  45.541  11.414
    1STR   H26564466  30.029  45.547  11.588
    1STR   C26664467  29.759  45.487  11.602
    1STR   H26764468  29.725  45.591  11.603
    1STR   H26864469  29.671  45.425  11.588
    1STR   O26964470  29.825  45.454  11.724
    1STR   C27064471  29.747  45.473  11.842
    1STR   H27164472  29.694  45.568  11.836
    1STR   C27264473  29.648  45.357  11.859
    1STR   H27364474  29.699  45.261  11.860
    1STR   H27464475  29.574  45.355  11.779
    1STR   H27564476  29.594  45.367  11.953
    1STR   C27664477  29.845  45.481  11.960
    1STR   H27764478  29.900  45.387  11.970
    1STR   H27864479  29.919  45.559  11.941
    1STR   O27964480  29.773  45.510  12.080
    1STR   C28064481  29.851  45.516  12.198
    1STR   H28164482  29.924  45.434  12.200
    1STR   C28264483  29.925  45.651  12.206
    1STR   H28364484  29.855  45.734  12.199
    1STR   H28464485  29.998  45.662  12.126
    1STR   H28564486  29.978  45.661  12.300
    1STR   C28664487  29.756  45.498  12.318
    1STR   H28764488  29.683  45.579  12.320
    1STR   H28864489  29.701  45.405  12.305
    1STR   O28964490  29.831  45.495  12.439
    1STR   C29064491  29.754  45.482  12.558
    1STR   H29164492  29.667  45.547  12.553
    1STR   C29264493  29.710  45.336  12.576
    1STR   H29364494  29.795  45.268  12.576
    1STR   H29464495  29.641  45.303  12.498
    1STR   H29564496  29.658  45.323  12.671
    1STR   C29664497  29.842  45.529  12.675
    1STR   H29764498  29.930  45.464  12.683
    1STR   H29864499  29.878  45.629  12.654
    1STR   O29964500  29.766  45.526  12.796
    1STR   C30064501  29.838  45.563  12.913
    1STR   H30164502  29.938  45.518  12.912
    1STR   C30264503  29.851  45.717  12.920
    1STR   H30364504  29.753  45.764  12.916
    1STR   H30464505  29.911  45.757  12.839
    1STR   H30564506  29.898  45.747  13.014
    1STR   C30664507  29.763  45.507  13.034
    1STR   H30764508  29.664  45.553  13.042
    1STR   H30864509  29.747  45.400  13.019
    1STR   O30964510  29.839  45.530  13.152
    1STR    H1R64511  29.675  45.507  13.277
    1STR    H1S64512  29.760  45.292  13.378
    1STR    H1T64513  29.905  45.302  13.279
    1STR    H1U64514  29.748  45.276  13.204
    1STR    H1V64515  29.846  45.663  13.373
    1STR    H1W64516  29.959  45.532  13.389
    1STR    H1X64517  29.690  45.494  13.700
    1STR    H1Y64518  29.587  45.426  13.896
    1STR    H1Z64519  29.594  45.299  14.105
    1STR    H2064520  29.844  45.045  14.191
    1STR    H2164521  29.827  45.193  14.286
    1STR    H2264522  29.684  45.108  14.225
    1STR    H2364523  30.057  45.088  13.946
    1STR    H2764524  29.987  45.291  13.803
    1STR    H2864525  29.638  45.090   1.333
    1STR    H2964526  29.599  45.130   1.099
    1STR    H2A64527  29.835  45.273   0.865
    1STR    H2B64528  29.669  45.223   0.892
    1STR    H2C64529  29.788  45.104   0.838
    1STR   BCK164530  30.229  45.133  15.943
    1STR    O0364531  30.350  45.139  15.927
    1STR    N0464532  30.168  45.081  16.050
    1STR    C0564533  30.229  45.002  16.147
    1STR    C0664534  30.223  45.037  16.284
    1STR    C0764535  30.282  44.955  16.384
    1STR    N0864536  30.271  44.991  16.519
    1STR    C0964537  30.335  44.943  16.626
    1STR    O0A64538  30.425  44.859  16.622
    1STR    O0B64539  30.290  44.998  16.741
    1STR    C0C64540  30.351  44.963  16.866
    1STR    C0D64541  30.480  45.045  16.884
    1STR    C0E64542  30.254  44.982  16.984
    1STR    O0F64543  30.318  44.940  17.104
    1STR    C0G64544  30.241  44.950  17.224
    1STR    C0H64545  30.142  44.833  17.232
    1STR    C0I64546  30.338  44.948  17.344
    1STR    O0J64547  30.265  44.967  17.465
    1STR    C0K64548  30.039  44.662  28.302
    1STR    C0M64549  30.140  44.778  28.315
    1STR    C0N64550  29.930  44.668  28.410
    1STR    O0O64551  29.985  44.627  28.534
    1STR    C0P64552  30.020  44.716  28.627
    1STR    O0Q64553  29.996  44.837  28.626
    1STR    N0R64554  30.088  44.650  28.720
    1STR    C0S64555  30.152  44.690  28.837
    1STR    C0T64556  30.238  44.595  28.893
    1STR    C0U64557  30.303  44.622  29.013
    1STR    C0V64558  30.283  44.743  29.082
    1STR    C0W64559  30.349  44.753  29.216
    1STR    C0X64560  30.195  44.842  29.028
    1STR    N0Y64561  30.148  44.956  29.096
    1STR   BCK264562  30.186  45.048  29.186
    1STR    O1064563  30.102  45.126  29.229
    1STR    C1364564  30.132  44.814  28.903
    1STR    C1464565  30.347  44.836  16.342
    1STR    C1564566  30.351  44.799  16.207
    1STR    C1664567  30.291  44.880  16.109
    1STR    C1764568  30.291  44.830  15.965
    1STR    H1B64569  30.068  45.093  16.053
    1STR    H1C64570  30.174  45.129  16.311
    1STR    H1D64571  30.207  45.065  16.543
    1STR    H1E64572  30.377  44.856  16.864
    1STR    H1F64573  30.459  45.152  16.888
    1STR    H1G64574  30.531  45.017  16.977
    1STR    H1H64575  30.550  45.027  16.803
    1STR    H1I64576  30.164  44.924  16.965
    1STR    H1J64577  30.224  45.087  16.991
    1STR    H1K64578  30.187  45.045  17.226
    1STR    H1M64579  30.194  44.737  17.226
    1STR    H1N64580  30.068  44.836  17.152
    1STR    H1O64581  30.087  44.835  17.326
    1STR    H1P64582  30.393  44.854  17.346
    1STR    H1Q64583  30.411  45.028  17.331
    1STR   C01064584  30.342  44.962  17.585
    1STR   H01164585  30.413  44.879  17.581
    1STR   C01264586  30.419  45.094  17.603
    1STR   H01364587  30.351  45.179  17.603
    1STR   H01464588  30.494  45.110  17.526
    1STR   H01564589  30.472  45.095  17.699
    1STR   C01664590  30.246  44.937  17.703
    1STR   H01764591  30.174  45.019  17.709
    1STR   H01864592  30.189  44.846  17.683
    1STR   O01964593  30.319  44.925  17.825
    1STR   C02064594  30.239  44.905  17.942
    1STR   H02164595  30.153  44.972  17.940
    1STR   C02264596  30.192  44.759  17.949
    1STR   H02364597  30.277  44.691  17.947
    1STR   H02464598  30.125  44.733  17.868
    1STR   H02564599  30.138  44.741  18.042
    1STR   C02664600  30.324  44.943  18.065
    1STR   H02764601  30.411  44.877  18.071
    1STR   H02864602  30.361  45.044  18.053
    1STR   O02964603  30.245  44.932  18.183
    1STR   C03064604  30.314  44.960  18.305
    1STR   H03164605  30.412  44.912  18.305
    1STR   C03264606  30.329  45.112  18.323
    1STR   H03364607  30.233  45.162  18.319
    1STR   H03464608  30.393  45.156  18.247
    1STR   H03564609  30.374  45.135  18.420
    1STR   C03664610  30.232  44.899  18.421
    1STR   H03764611  30.133  44.945  18.425
    1STR   H03864612  30.217  44.793  18.400
    1STR   O03964613  30.301  44.917  18.544
    1STR   C04064614  30.234  44.868  18.660
    1STR   H04164615  30.128  44.894  18.656
    1STR   C04264616  30.249  44.715  18.668
    1STR   H04364617  30.354  44.686  18.667
    1STR   H04464618  30.200  44.664  18.586
    1STR   H04564619  30.205  44.677  18.760
    1STR   C04664620  30.296  44.937  18.783
    1STR   H04764621  30.402  44.911  18.790
    1STR   H04864622  30.290  45.045  18.769
    1STR   O04964623  30.226  44.897  18.900
    1STR   C05064624  30.276  44.951  19.022
    1STR   H05164625  30.385  44.947  19.023
    1STR   C05264626  30.229  45.097  19.038
    1STR   H05364627  30.120  45.104  19.032
    1STR   H05464628  30.271  45.162  18.962
    1STR   H05564629  30.259  45.137  19.135
    1STR   C05664630  30.224  44.863  19.137
    1STR   H05764631  30.115  44.866  19.140
    1STR   H05864632  30.252  44.760  19.118
    1STR   O05964633  30.279  44.908  19.261
    1STR   C06064634  30.235  44.837  19.376
    1STR   H06164635  30.128  44.819  19.371
    1STR   C06264636  30.311  44.703  19.387
    1STR   H06364637  30.418  44.719  19.387
    1STR   H06464638  30.287  44.636  19.305
    1STR   H06564639  30.284  44.652  19.479
    1STR   C06664640  30.262  44.926  19.498
    1STR   H06764641  30.369  44.945  19.508
    1STR   H06864642  30.214  45.023  19.483
    1STR   O06964643  30.212  44.863  19.616
    1STR   C07064644  30.234  44.934  19.737
    1STR   H07164645  30.336  44.974  19.740
    1STR   C07264646  30.133  45.049  19.751
    1STR   H07364647  30.031  45.012  19.744
    1STR   H07464648  30.147  45.125  19.674
    1STR   H07564649  30.144  45.099  19.847
    1STR   C07664650  30.220  44.833  19.853
    1STR   H07764651  30.119  44.793  19.854
    1STR   H07864652  30.288  44.750  19.835
    1STR   O07964653  30.251  44.898  19.976
    1STR   C08064654  30.238  44.816  20.092
    1STR   H08164655  30.146  44.756  20.086
    1STR   C08264656  30.360  44.724  20.105
    1STR   H08364657  30.453  44.781  20.106
    1STR   H08464658  30.366  44.652  20.024
    1STR   H08564659  30.355  44.666  20.198
    1STR   C08664660  30.225  44.910  20.213
    1STR   H08764661  30.316  44.970  20.223
    1STR   H08864662  30.143  44.979  20.196
    1STR   O08964663  30.202  44.832  20.331
    1STR   C09064664  30.193  44.908  20.451
    1STR   H09164665  30.270  44.985  20.454
    1STR   C09264666  30.054  44.972  20.462
    1STR   H09364667  29.975  44.897  20.455
    1STR   H09464668  30.037  45.046  20.384
    1STR   H09564669  30.042  45.023  20.558
    1STR   C09664670  30.219  44.810  20.568
    1STR   H09764671  30.142  44.733  20.569
    1STR   H09864672  30.315  44.761  20.552
    1STR   O09964673  30.220  44.883  20.691
    1STR   C10064674  30.239  44.804  20.807
    1STR   H10164675  30.179  44.713  20.802
    1STR   C10264676  30.388  44.768  20.823
    1STR   H10364677  30.449  44.858  20.824
    1STR   H10464678  30.423  44.704  20.742
    1STR   H10564679  30.405  44.714  20.916
    1STR   C10664680  30.188  44.886  20.927
    1STR   H10764681  30.247  44.977  20.937
    1STR   H10864682  30.085  44.916  20.908
    1STR   O10964683  30.196  44.807  21.046
    1STR   C11064684  30.156  44.873  21.165
    1STR   H11164685  30.196  44.974  21.168
    1STR   C11264686  30.002  44.877  21.174
    1STR   H11364687  29.960  44.776  21.166
    1STR   H11464688  29.958  44.937  21.095
    1STR   H11564689  29.970  44.919  21.269
    1STR   C11664690  30.216  44.795  21.283
    1STR   H11764691  30.177  44.693  21.285
    1STR   H11864692  30.324  44.788  21.269
    1STR   O11964693  30.187  44.863  21.405
    1STR   C12064694  30.234  44.799  21.523
    1STR   H12164695  30.216  44.691  21.518
    1STR   C12264696  30.385  44.826  21.540
    1STR   H12364697  30.406  44.933  21.541
    1STR   H12464698  30.444  44.780  21.461
    1STR   H12564699  30.420  44.784  21.635
    1STR   C12664700  30.153  44.855  21.641
    1STR   H12764701  30.171  44.962  21.651
    1STR   H12864702  30.047  44.841  21.621
    1STR   O12964703  30.191  44.787  21.761
    1STR   C13064704  30.125  44.832  21.879
    1STR   H13164705  30.122  44.941  21.880
    1STR   C13264706  29.983  44.774  21.886
    1STR   H13364707  29.985  44.666  21.880
    1STR   H13464708  29.920  44.812  21.806
    1STR   H13564709  29.935  44.801  21.980
    1STR   C13664710  30.210  44.786  21.998
    1STR   H13764711  30.215  44.677  22.001
    1STR   H13864712  30.312  44.823  21.985
    1STR   O13964713  30.154  44.838  22.119
    1STR   C14064714  30.222  44.799  22.238
    1STR   H14164715  30.248  44.693  22.234
    1STR   C14264716  30.348  44.884  22.257
    1STR   H14364717  30.325  44.990  22.256
    1STR   H14464718  30.422  44.865  22.179
    1STR   H14564719  30.397  44.861  22.352
    1STR   C14664720  30.123  44.819  22.355
    1STR   H14764721  30.096  44.924  22.363
    1STR   H14864722  30.032  44.763  22.334
    1STR   O14964723  30.183  44.772  22.476
    1STR   C15064724  30.103  44.789  22.593
    1STR   H15164725  30.056  44.887  22.593
    1STR   C15264726  29.996  44.679  22.599
    1STR   H15364727  30.041  44.580  22.594
    1STR   H15464728  29.924  44.687  22.518
    1STR   H15564729  29.940  44.685  22.692
    1STR   C15664730  30.198  44.781  22.714
    1STR   H15764731  30.246  44.683  22.718
    1STR   H15864732  30.277  44.855  22.701
    1STR   O15964733  30.125  44.807  22.833
    1STR   C16064734  30.200  44.799  22.953
    1STR   H16164735  30.266  44.713  22.951
    1STR   C16264736  30.282  44.928  22.972
    1STR   H16364737  30.218  45.016  22.970
    1STR   H16464738  30.358  44.940  22.895
    1STR   H16564739  30.334  44.927  23.068
    1STR   C16664740  30.100  44.779  23.069
    1STR   H16764741  30.033  44.865  23.075
    1STR   H16864742  30.039  44.692  23.047
    1STR   O16964743  30.172  44.761  23.191
    1STR   C17064744  30.091  44.746  23.307
    1STR   H17164745  30.008  44.817  23.305
    1STR   C17264746  30.036  44.602  23.313
    1STR   H17364747  30.117  44.529  23.310
    1STR   H17464748  29.968  44.580  23.231
    1STR   H17564749  29.981  44.586  23.406
    1STR   C17664750  30.179  44.778  23.429
    1STR   H17764751  30.262  44.707  23.434
    1STR   H17864752  30.222  44.877  23.416
    1STR   O17964753  30.099  44.773  23.547
    1STR   C18064754  30.170  44.797  23.668
    1STR   H18164755  30.265  44.744  23.667
    1STR   C18264756  30.194  44.948  23.686
    1STR   H18364757  30.100  45.003  23.682
    1STR   H18464758  30.260  44.989  23.609
    1STR   H18564759  30.240  44.969  23.782
    1STR   C18664760  30.085  44.740  23.783
    1STR   H18764761  29.989  44.792  23.787
    1STR   H18864762  30.063  44.635  23.762
    1STR   O18964763  30.156  44.753  23.905
    1STR   C19064764  30.086  44.707  24.021
    1STR   H19164765  29.982  44.740  24.017
    1STR   C19264766  30.093  44.554  24.029
    1STR   H19364767  30.196  44.519  24.028
    1STR   H19464768  30.040  44.506  23.946
    1STR   H19564769  30.047  44.518  24.121
    1STR   C19664770  30.152  44.773  24.143
    1STR   H19764771  30.256  44.741  24.151
    1STR   H19864772  30.152  44.881  24.130
    1STR   O19964773  30.079  44.738  24.261
    1STR   C20064774  30.133  44.789  24.382
    1STR   H20164775  30.241  44.779  24.383
    1STR   C20264776  30.093  44.937  24.398
    1STR   H20364777  29.985  44.950  24.393
    1STR   H20464778  30.139  45.000  24.322
    1STR   H20564779  30.126  44.975  24.495
    1STR   C20664780  30.076  44.704  24.497
    1STR   H20764781  29.967  44.713  24.500
    1STR   H20864782  30.099  44.599  24.477
    1STR   O20964783  30.134  44.745  24.620
    1STR   C21064784  30.087  44.676  24.735
    1STR   H21164785  29.978  44.664  24.731
    1STR   C21264786  30.154  44.539  24.745
    1STR   H21364787  30.263  44.548  24.746
    1STR   H21464788  30.127  44.473  24.663
    1STR   H21564789  30.126  44.488  24.838
    1STR   C21664790  30.119  44.764  24.857
    1STR   H21764791  30.227  44.776  24.867
    1STR   H21864792  30.076  44.863  24.842
    1STR   O21964793  30.065  44.703  24.975
    1STR   C22064794  30.092  44.773  25.096
    1STR   H22164795  30.196  44.807  25.098
    1STR   C22264796  29.996  44.893  25.110
    1STR   H22364797  29.892  44.861  25.103
    1STR   H22464798  30.014  44.968  25.033
    1STR   H22564799  30.010  44.942  25.206
    1STR   C22664800  30.073  44.673  25.211
    1STR   H22764801  29.969  44.638  25.213
    1STR   H22864802  30.136  44.586  25.193
    1STR   O22964803  30.107  44.735  25.334
    1STR   C23064804  30.090  44.654  25.450
    1STR   H23164805  29.995  44.600  25.444
    1STR   C23264806  30.207  44.555  25.463
    1STR   H23364807  30.302  44.607  25.464
    1STR   H23464808  30.209  44.483  25.381
    1STR   H23564809  30.199  44.498  25.556
    1STR   C23664810  30.082  44.748  25.571
    1STR   H23764811  30.176  44.803  25.581
    1STR   H23864812  30.004  44.822  25.554
    1STR   O23964813  30.055  44.672  25.689
    1STR   C24064814  30.050  44.748  25.809
    1STR   H24164815  30.132  44.820  25.812
    1STR   C24264816  29.915  44.820  25.820
    1STR   H24364817  29.832  44.749  25.813
    1STR   H24464818  29.902  44.895  25.743
    1STR   H24564819  29.906  44.871  25.916
    1STR   C24664820  30.071  44.649  25.925
    1STR   H24764821  29.990  44.576  25.927
    1STR   H24864822  30.164  44.594  25.909
    1STR   O24964823  30.076  44.721  26.048
    1STR   C25064824  30.091  44.640  26.165
    1STR   H25164825  30.026  44.553  26.159
    1STR   C25264826  30.237  44.597  26.180
    1STR   H25364827  30.304  44.683  26.182
    1STR   H25464828  30.269  44.531  26.100
    1STR   H25564829  30.252  44.542  26.273
    1STR   C25664830  30.045  44.725  26.284
    1STR   H25764831  30.109  44.813  26.295
    1STR   H25864832  29.944  44.761  26.265
    1STR   O25964833  30.048  44.646  26.402
    1STR   C26064834  30.012  44.714  26.522
    1STR   H26164835  30.058  44.813  26.524
    1STR   C26264836  29.859  44.726  26.531
    1STR   H26364837  29.811  44.628  26.524
    1STR   H26464838  29.818  44.789  26.452
    1STR   H26564839  29.829  44.770  26.626
    1STR   C26664840  30.069  44.633  26.639
    1STR   H26764841  30.024  44.533  26.641
    1STR   H26864842  30.176  44.619  26.625
    1STR   O26964843  30.043  44.702  26.761
    1STR   C27064844  30.087  44.635  26.879
    1STR   H27164845  30.062  44.529  26.873
    1STR   C27264846  30.239  44.653  26.896
    1STR   H27364847  30.265  44.759  26.898
    1STR   H27464848  30.295  44.605  26.817
    1STR   H27564849  30.272  44.610  26.990
    1STR   C27664850  30.009  44.695  26.996
    1STR   H27764851  30.032  44.801  27.006
    1STR   H27864852  29.902  44.687  26.976
    1STR   O27964853  30.043  44.624  27.115
    1STR   C28064854  29.981  44.673  27.234
    1STR   H28164855  29.984  44.783  27.235
    1STR   C28264856  29.836  44.623  27.242
    1STR   H28364857  29.831  44.515  27.235
    1STR   H28464858  29.774  44.664  27.162
    1STR   H28564859  29.790  44.653  27.337
    1STR   C28664860  30.065  44.622  27.352
    1STR   H28764861  30.063  44.513  27.354
    1STR   H28864862  30.169  44.653  27.338
    1STR   O28964863  30.013  44.677  27.472
    1STR   C29064864  30.078  44.633  27.591
    1STR   H29164865  30.098  44.526  27.586
    1STR   C29264866  30.208  44.711  27.611
    1STR   H29364867  30.190  44.819  27.612
    1STR   H29464868  30.281  44.691  27.533
    1STR   H29564869  30.255  44.685  27.706
    1STR   C29664870  29.979  44.658  27.706
    1STR   H29764871  29.958  44.765  27.714
    1STR   H29864872  29.885  44.608  27.684
    1STR   O29964873  30.035  44.608  27.827
    1STR   C30064874  29.954  44.631  27.942
    1STR   H30164875  29.910  44.731  27.938
    1STR   C30264876  29.843  44.525  27.951
    1STR   H30364877  29.885  44.425  27.949
    1STR   H30464878  29.773  44.533  27.868
    1STR   H30564879  29.786  44.536  28.043
    1STR   C30664880  30.046  44.627  28.064
    1STR   H30764881  30.086  44.526  28.078
    1STR   H30864882  30.132  44.693  28.048
    1STR   O30964883  29.971  44.670  28.177
    1STR    H1R64884  30.091  44.566  28.310
    1STR    H1S64885  30.191  44.774  28.412
    1STR    H1T64886  30.090  44.874  28.308
    1STR    H1U64887  30.218  44.775  28.239
    1STR    H1V64888  29.851  44.597  28.385
    1STR    H1W64889  29.883  44.766  28.415
    1STR    H1X64890  30.093  44.553  28.696
    1STR    H1Y64891  30.253  44.499  28.846
    1STR    H1Z64892  30.367  44.546  29.055
    1STR    H2064893  30.424  44.831  29.215
    1STR    H2164894  30.272  44.768  29.291
    1STR    H2264895  30.403  44.662  29.242
    1STR    H2364896  30.053  44.980  29.071
    1STR    H2764897  30.065  44.886  28.860
    1STR    H2864898  30.393  44.769  16.412
    1STR    H2964899  30.400  44.707  16.179
    1STR    H2A64900  30.195  44.850  15.917
    1STR    H2B64901  30.310  44.723  15.959
    1STR    H2C64902  30.369  44.881  15.908
    1STR   BCK164903  30.131  45.193  30.961
    1STR    O0364904  30.039  45.248  30.901
    1STR    N0464905  30.163  45.212  31.090
    1STR    C0564906  30.118  45.311  31.179
    1STR    C0664907  30.095  45.276  31.315
    1STR    C0764908  30.058  45.373  31.413
    1STR    N0864909  30.043  45.337  31.548
    1STR    C0964910  30.035  45.415  31.658
    1STR    O0A64911  30.041  45.538  31.656
    1STR    O0B64912  30.020  45.343  31.772
    1STR    C0C64913  29.996  45.412  31.897
    1STR    C0D64914  29.845  45.440  31.910
    1STR    C0E64915  30.049  45.333  32.018
    1STR    O0F64916  30.027  45.408  32.138
    1STR    C0G64917  30.076  45.351  32.260
    1STR    C0H64918  30.228  45.372  32.268
    1STR    C0I64919  30.005  45.419  32.379
    1STR    O0J64920  30.047  45.358  32.502
    1STR    C0K64921  30.421  45.460  43.346
    1STR    C0M64922  30.272  45.423  43.362
    1STR    C0N64923  30.508  45.405  43.459
    1STR    O0O64924  30.479  45.468  43.583
    1STR    C0P64925  30.402  45.407  43.673
    1STR    O0Q64926  30.349  45.297  43.657
    1STR    N0R64927  30.390  45.484  43.782
    1STR    C0S64928  30.321  45.462  43.901
    1STR    C0T64929  30.309  45.570  43.991
    1STR    C0U64930  30.238  45.555  44.112
    1STR    C0V64931  30.178  45.432  44.146
    1STR    C0W64932  30.097  45.422  44.274
    1STR    C0X64933  30.193  45.322  44.059
    1STR    N0Y64934  30.132  45.199  44.083
    1STR   BCK264935  30.159  45.107  44.175
    1STR    O1064936  30.098  45.001  44.174
    1STR    C1364937  30.263  45.338  43.938
    1STR    C1464938  30.038  45.506  31.368
    1STR    C1564939  30.063  45.542  31.235
    1STR    C1664940  30.107  45.447  31.141
    1STR    C1764941  30.148  45.499  31.004
    1STR    H1B64942  30.232  45.147  31.124
    1STR    H1C64943  30.107  45.173  31.346
    1STR    H1D64944  30.039  45.239  31.572
    1STR    H1E64945  30.049  45.507  31.896
    1STR    H1F64946  29.787  45.348  31.913
    1STR    H1G64947  29.824  45.496  32.001
    1STR    H1H64948  29.809  45.500  31.826
    1STR    H1I64949  30.155  45.314  32.004
    1STR    H1J64950  29.999  45.236  32.025
    1STR    H1K64951  30.053  45.245  32.262
    1STR    H1M64952  30.254  45.478  32.262
    1STR    H1N64953  30.282  45.320  32.190
    1STR    H1O64954  30.267  45.336  32.364
    1STR    H1P64955  30.027  45.525  32.380
    1STR    H1Q64956  29.897  45.409  32.367
    1STR   C01064957  29.993  45.414  32.622
    1STR   H01164958  29.998  45.523  32.617
    1STR   C01264959  29.847  45.368  32.640
    1STR   H01364960  29.840  45.260  32.640
    1STR   H01464961  29.782  45.407  32.562
    1STR   H01564962  29.808  45.404  32.735
    1STR   C01664963  30.081  45.367  32.740
    1STR   H01764964  30.079  45.258  32.746
    1STR   H01864965  30.184  45.397  32.721
    1STR   O01964966  30.035  45.425  32.863
    1STR   C02064967  30.107  45.386  32.980
    1STR   H02164968  30.125  45.278  32.978
    1STR   C02264969  30.240  45.462  32.987
    1STR   H02364970  30.224  45.569  32.985
    1STR   H02464971  30.307  45.436  32.906
    1STR   H02564972  30.293  45.438  33.080
    1STR   C02664973  30.019  45.416  33.103
    1STR   H02764974  29.999  45.523  33.109
    1STR   H02864975  29.923  45.365  33.091
    1STR   O02964976  30.085  45.370  33.222
    1STR   C03064977  30.015  45.396  33.344
    1STR   H03164978  29.975  45.497  33.344
    1STR   C03264979  29.902  45.294  33.362
    1STR   H03364980  29.939  45.192  33.358
    1STR   H03464981  29.824  45.305  33.286
    1STR   H03564982  29.853  45.307  33.459
    1STR   C03664983  30.117  45.386  33.459
    1STR   H03764984  30.159  45.285  33.464
    1STR   H03864985  30.200  45.454  33.440
    1STR   O03964986  30.054  45.419  33.583
    1STR   C04064987  30.137  45.410  33.699
    1STR   H04164988  30.197  45.319  33.695
    1STR   C04264989  30.229  45.533  33.707
    1STR   H04364990  30.171  45.625  33.707
    1STR   H04464991  30.300  45.537  33.625
    1STR   H04564992  30.287  45.531  33.800
    1STR   C04664993  30.045  45.401  33.822
    1STR   H04764994  29.984  45.491  33.830
    1STR   H04864995  29.976  45.317  33.809
    1STR   O04964996  30.123  45.383  33.940
    1STR   C05064997  30.050  45.377  34.062
    1STR   H05164998  29.972  45.454  34.063
    1STR   C05264999  29.986  45.238  34.078
    1STR   H05365000  30.061  45.159  34.072
    1STR   H05465001  29.911  45.218  34.001
    1STR   H05565002  29.936  45.229  34.174
    1STR   C05665003  30.147  45.407  34.177
    1STR   H05765004  30.226  45.331  34.180
    1STR   H05865005  30.196  45.502  34.158
    1STR   O05965006  30.076  45.410  34.300
    1STR   C06065007  30.157  45.433  34.416
    1STR   H06165008  30.248  45.374  34.411
    1STR   C06265009  30.191  45.583  34.427
    1STR   H06365010  30.101  45.644  34.427
    1STR   H06465011  30.254  45.617  34.345
    1STR   H06565012  30.245  45.603  34.519
    1STR   C06665013  30.076  45.386  34.538
    1STR   H06765014  29.985  45.444  34.548
    1STR   H06865015  30.047  45.282  34.523
    1STR   O06965016  30.156  45.398  34.656
    1STR   C07065017  30.092  45.361  34.777
    1STR   H07165018  29.990  45.401  34.780
    1STR   C07265019  30.089  45.208  34.791
    1STR   H07365020  30.190  45.166  34.784
    1STR   H07465021  30.028  45.161  34.714
    1STR   H07565022  30.048  45.179  34.887
    1STR   C07665023  30.170  45.426  34.893
    1STR   H07765024  30.272  45.388  34.895
    1STR   H07865025  30.177  45.534  34.875
    1STR   O07965026  30.104  45.400  35.016
    1STR   C08065027  30.169  45.451  35.132
    1STR   H08165028  30.276  45.433  35.126
    1STR   C08265029  30.141  45.602  35.145
    1STR   H08365030  30.034  45.622  35.146
    1STR   H08465031  30.185  45.659  35.064
    1STR   H08565032  30.183  45.641  35.238
    1STR   C08665033  30.115  45.373  35.253
    1STR   H08765034  30.007  45.390  35.263
    1STR   H08865035  30.129  45.267  35.236
    1STR   O08965036  30.184  45.415  35.371
    1STR   C09065037  30.140  45.353  35.492
    1STR   H09165038  30.031  45.349  35.494
    1STR   C09265039  30.199  45.211  35.502
    1STR   H09365040  30.307  45.213  35.495
    1STR   H09465041  30.161  45.145  35.424
    1STR   H09565042  30.173  45.166  35.598
    1STR   C09665043  30.187  45.442  35.608
    1STR   H09765044  30.296  45.447  35.609
    1STR   H09865045  30.150  45.543  35.592
    1STR   O09965046  30.137  45.389  35.731
    1STR   C10065047  30.176  45.461  35.848
    1STR   H10165048  30.282  45.487  35.842
    1STR   C10265049  30.091  45.588  35.863
    1STR   H10365050  29.985  45.563  35.864
    1STR   H10465051  30.108  45.659  35.782
    1STR   H10565052  30.114  45.639  35.956
    1STR   C10665053  30.158  45.366  35.967
    1STR   H10765054  30.053  45.338  35.977
    1STR   H10865055  30.214  45.274  35.948
    1STR   O10965056  30.206  45.429  36.086
    1STR   C11065057  30.191  45.353  36.205
    1STR   H11165058  30.093  45.306  36.208
    1STR   C11265059  30.301  45.247  36.214
    1STR   H11365060  30.400  45.292  36.206
    1STR   H11465061  30.293  45.172  36.135
    1STR   H11565062  30.296  45.194  36.308
    1STR   C11665063  30.199  45.452  36.323
    1STR   H11765064  30.296  45.500  36.325
    1STR   H11865065  30.124  45.530  36.309
    1STR   O11965066  30.175  45.382  36.445
    1STR   C12065067  30.183  45.461  36.563
    1STR   H12165068  30.270  45.527  36.558
    1STR   C12265069  30.054  45.543  36.580
    1STR   H12365070  29.967  45.478  36.581
    1STR   H12465071  30.041  45.616  36.501
    1STR   H12565072  30.056  45.598  36.675
    1STR   C12665073  30.205  45.365  36.681
    1STR   H12765074  30.119  45.298  36.691
    1STR   H12865075  30.292  45.303  36.661
    1STR   O12965076  30.223  45.440  36.801
    1STR   C13065077  30.241  45.363  36.919
    1STR   H13165078  30.170  45.280  36.920
    1STR   C13265079  30.385  45.309  36.926
    1STR   H13365080  30.457  45.390  36.920
    1STR   H13465081  30.406  45.239  36.846
    1STR   H13565082  30.402  45.257  37.020
    1STR   C13665083  30.209  45.454  37.038
    1STR   H13765084  30.279  45.538  37.041
    1STR   H13865085  30.110  45.496  37.025
    1STR   O13965086  30.216  45.378  37.159
    1STR   C14065087  30.193  45.452  37.278
    1STR   H14165088  30.245  45.548  37.274
    1STR   C14265089  30.042  45.476  37.297
    1STR   H14365090  29.987  45.381  37.297
    1STR   H14465091  30.000  45.539  37.219
    1STR   H14565092  30.022  45.525  37.392
    1STR   C14665093  30.252  45.371  37.395
    1STR   H14765094  30.201  45.275  37.403
    1STR   H14865095  30.357  45.350  37.374
    1STR   O14965096  30.239  45.446  37.516
    1STR   C15065097  30.287  45.380  37.633
    1STR   H15165098  30.255  45.276  37.633
    1STR   C15265099  30.440  45.388  37.639
    1STR   H15365100  30.474  45.492  37.634
    1STR   H15465101  30.488  45.334  37.558
    1STR   H15565102  30.477  45.346  37.732
    1STR   C15665103  30.222  45.450  37.754
    1STR   H15765104  30.253  45.554  37.758
    1STR   H15865105  30.114  45.449  37.741
    1STR   O15965106  30.259  45.381  37.873
    1STR   C16065107  30.208  45.438  37.993
    1STR   H16165108  30.218  45.547  37.991
    1STR   C16265109  30.061  45.398  38.012
    1STR   H16365110  30.048  45.290  38.010
    1STR   H16465111  29.997  45.441  37.935
    1STR   H16565112  30.023  45.434  38.108
    1STR   C16665113  30.295  45.385  38.109
    1STR   H16765114  30.286  45.277  38.115
    1STR   H16865115  30.400  45.408  38.087
    1STR   O16965116  30.254  45.447  38.231
    1STR   C17065117  30.325  45.403  38.347
    1STR   H17165118  30.337  45.295  38.345
    1STR   C17265119  30.462  45.472  38.353
    1STR   H17365120  30.452  45.581  38.350
    1STR   H17465121  30.527  45.443  38.271
    1STR   H17565122  30.514  45.447  38.446
    1STR   C17665123  30.238  45.439  38.469
    1STR   H17765124  30.225  45.547  38.475
    1STR   H17865125  30.139  45.395  38.456
    1STR   O17965126  30.300  45.389  38.587
    1STR   C18065127  30.232  45.419  38.708
    1STR   H18165128  30.197  45.523  38.708
    1STR   C18265129  30.112  45.324  38.726
    1STR   H18365130  30.144  45.220  38.722
    1STR   H18465131  30.036  45.338  38.649
    1STR   H18565132  30.064  45.340  38.822
    1STR   C18665133  30.333  45.404  38.823
    1STR   H18765134  30.368  45.300  38.827
    1STR   H18865135  30.420  45.466  38.802
    1STR   O18965136  30.272  45.442  38.945
    1STR   C19065137  30.354  45.428  39.061
    1STR   H19165138  30.409  45.334  39.057
    1STR   C19265139  30.453  45.546  39.069
    1STR   H19365140  30.400  45.641  39.068
    1STR   H19465141  30.524  45.546  38.986
    1STR   H19565142  30.511  45.541  39.161
    1STR   C19665143  30.261  45.425  39.183
    1STR   H19765144  30.206  45.518  39.191
    1STR   H19865145  30.188  45.345  39.170
    1STR   O19965146  30.339  45.402  39.301
    1STR   C20065147  30.265  45.400  39.422
    1STR   H20165148  30.191  45.481  39.423
    1STR   C20265149  30.194  45.264  39.438
    1STR   H20365150  30.265  45.182  39.433
    1STR   H20465151  30.118  45.248  39.362
    1STR   H20565152  30.144  45.258  39.535
    1STR   C20665153  30.364  45.424  39.537
    1STR   H20765154  30.438  45.344  39.540
    1STR   H20865155  30.418  45.517  39.517
    1STR   O20965156  30.293  45.433  39.660
    1STR   C21065157  30.375  45.452  39.775
    1STR   H21165158  30.463  45.387  39.771
    1STR   C21265159  30.418  45.599  39.786
    1STR   H21365160  30.331  45.665  39.786
    1STR   H21465161  30.483  45.629  39.703
    1STR   H21565162  30.473  45.617  39.878
    1STR   C21665163  30.292  45.409  39.898
    1STR   H21765164  30.204  45.473  39.907
    1STR   H21865165  30.257  45.307  39.882
    1STR   O21965166  30.372  45.417  40.015
    1STR   C22065167  30.306  45.384  40.136
    1STR   H22165168  30.206  45.429  40.139
    1STR   C22265169  30.295  45.231  40.150
    1STR   H22365170  30.393  45.184  40.143
    1STR   H22465171  30.232  45.187  40.073
    1STR   H22565172  30.252  45.204  40.246
    1STR   C22665173  30.388  45.445  40.251
    1STR   H22765174  30.488  45.401  40.253
    1STR   H22865175  30.400  45.552  40.233
    1STR   O22965176  30.320  45.422  40.375
    1STR   C23065177  30.388  45.470  40.490
    1STR   H23165178  30.494  45.446  40.485
    1STR   C23265179  30.368  45.622  40.503
    1STR   H23365180  30.263  45.648  40.504
    1STR   H23465181  30.415  45.677  40.422
    1STR   H23565182  30.413  45.659  40.596
    1STR   C23665183  30.329  45.396  40.612
    1STR   H23765184  30.223  45.419  40.622
    1STR   H23865185  30.338  45.288  40.595
    1STR   O23965186  30.401  45.434  40.729
    1STR   C24065187  30.354  45.374  40.850
    1STR   H24165188  30.244  45.376  40.853
    1STR   C24265189  30.405  45.230  40.861
    1STR   H24365190  30.513  45.226  40.853
    1STR   H24465191  30.363  45.166  40.783
    1STR   H24565192  30.376  45.186  40.957
    1STR   C24665193  30.405  45.461  40.966
    1STR   H24765194  30.514  45.460  40.967
    1STR   H24865195  30.374  45.564  40.950
    1STR   O24965196  30.352  45.412  41.089
    1STR   C25065197  30.396  45.481  41.205
    1STR   H25165198  30.503  45.501  41.199
    1STR   C25265199  30.317  45.612  41.220
    1STR   H25365200  30.210  45.594  41.222
    1STR   H25465201  30.338  45.682  41.140
    1STR   H25565202  30.344  45.662  41.314
    1STR   C25665203  30.372  45.387  41.325
    1STR   H25765204  30.266  45.366  41.335
    1STR   H25865205  30.423  45.292  41.306
    1STR   O25965206  30.423  45.448  41.443
    1STR   C26065207  30.404  45.374  41.563
    1STR   H26165208  30.304  45.331  41.565
    1STR   C26265209  30.509  45.261  41.572
    1STR   H26365210  30.610  45.301  41.565
    1STR   H26465211  30.497  45.187  41.493
    1STR   H26565212  30.501  45.209  41.667
    1STR   C26665213  30.417  45.472  41.680
    1STR   H26765214  30.518  45.515  41.682
    1STR   H26865215  30.347  45.554  41.666
    1STR   O26965216  30.390  45.404  41.802
    1STR   C27065217  30.403  45.483  41.920
    1STR   H27165218  30.493  45.544  41.914
    1STR   C27265219  30.278  45.571  41.937
    1STR   H27365220  30.187  45.512  41.939
    1STR   H27465221  30.269  45.645  41.858
    1STR   H27565222  30.283  45.626  42.031
    1STR   C27665223  30.419  45.385  42.038
    1STR   H27765224  30.330  45.323  42.048
    1STR   H27865225  30.503  45.319  42.018
    1STR   O27965226  30.442  45.460  42.157
    1STR   C28065227  30.455  45.382  42.275
    1STR   H28165228  30.379  45.303  42.277
    1STR   C28265229  30.596  45.321  42.283
    1STR   H28365230  30.672  45.398  42.277
    1STR   H28465231  30.614  45.249  42.203
    1STR   H28565232  30.610  45.268  42.377
    1STR   C28665233  30.428  45.475  42.394
    1STR   H28765234  30.502  45.555  42.397
    1STR   H28865235  30.331  45.523  42.381
    1STR   O28965236  30.431  45.400  42.515
    1STR   C29065237  30.412  45.476  42.634
    1STR   H29165238  30.469  45.569  42.629
    1STR   C29265239  30.262  45.507  42.653
    1STR   H29365240  30.203  45.416  42.653
    1STR   H29465241  30.224  45.572  42.574
    1STR   H29565242  30.246  45.558  42.748
    1STR   C29665243  30.467  45.392  42.750
    1STR   H29765244  30.410  45.299  42.759
    1STR   H29865245  30.570  45.365  42.729
    1STR   O29965246  30.459  45.468  42.870
    1STR   C30065247  30.502  45.400  42.987
    1STR   H30165248  30.464  45.298  42.987
    1STR   C30265249  30.655  45.400  42.995
    1STR   H30365250  30.695  45.502  42.991
    1STR   H30465251  30.701  45.343  42.914
    1STR   H30565252  30.689  45.355  43.088
    1STR   C30665253  30.439  45.473  43.106
    1STR   H30765254  30.475  45.576  43.111
    1STR   H30865255  30.331  45.478  43.093
    1STR   O30965256  30.471  45.403  43.226
    1STR    H1R65257  30.432  45.569  43.344
    1STR    H1S65258  30.232  45.462  43.456
    1STR    H1T65259  30.259  45.314  43.365
    1STR    H1U65260  30.210  45.462  43.282
    1STR    H1V65261  30.613  45.424  43.437
    1STR    H1W65262  30.499  45.296  43.466
    1STR    H1X65263  30.440  45.570  43.771
    1STR    H1Y65264  30.352  45.666  43.968
    1STR    H1Z65265  30.229  45.640  44.179
    1STR    H2065266  30.013  45.354  44.262
    1STR    H2165267  30.159  45.385  44.356
    1STR    H2265268  30.057  45.519  44.303
    1STR    H2365269  30.065  45.166  44.014
    1STR    H2765270  30.272  45.252  43.873
    1STR    H2865271  30.005  45.584  31.434
    1STR    H2965272  30.052  45.645  31.206
    1STR    H2A65273  30.230  45.441  30.963
    1STR    H2B65274  30.182  45.603  31.010
    1STR    H2C65275  30.064  45.496  30.936
    1STR   BCK165276  30.118  45.081  46.017
    1STR    O0365277  30.148  44.969  45.975
    1STR    N0465278  30.051  45.104  46.131
    1STR    C0565279  29.990  45.012  46.217
    1STR    C0665280  30.018  45.016  46.357
    1STR    C0765281  29.952  44.930  46.449
    1STR    N0865282  29.979  44.941  46.587
    1STR    C0965283  29.932  44.870  46.692
    1STR    O0A65284  29.855  44.775  46.683
    1STR    O0B65285  29.981  44.915  46.811
    1STR    C0C65286  29.947  44.847  46.933
    1STR    C0D65287  30.038  44.723  46.949
    1STR    C0E65288  29.958  44.940  47.056
    1STR    O0F65289  29.922  44.870  47.175
    1STR    C0G65290  29.925  44.945  47.297
    1STR    C0H65291  29.799  45.033  47.306
    1STR    C0I65292  29.932  44.848  47.417
    1STR    O0J65293  29.943  44.922  47.539
    1STR    C0K65294  29.612  45.104  58.393
    1STR    C0M65295  29.744  45.024  58.403
    1STR    C0N65296  29.599  45.205  58.507
    1STR    O0O65297  29.583  45.139  58.632
    1STR    C0P65298  29.684  45.132  58.720
    1STR    O0Q65299  29.796  45.178  58.704
    1STR    N0R65300  29.641  45.066  58.827
    1STR    C0S65301  29.704  45.030  58.947
    1STR    C0T65302  29.627  44.955  59.038
    1STR    C0U65303  29.684  44.909  59.158
    1STR    C0V65304  29.818  44.937  59.190
    1STR    C0W65305  29.878  44.873  59.314
    1STR    C0X65306  29.895  45.019  59.103
    1STR    N0Y65307  30.027  45.050  59.133
    1STR   BCK265308  30.072  45.107  59.245
    1STR    O1065309  30.002  45.158  59.331
    1STR    C1365310  29.838  45.062  58.981
    1STR    C1465311  29.858  44.838  46.397
    1STR    C1565312  29.829  44.834  46.260
    1STR    C1665313  29.892  44.921  46.169
    1STR    C1765314  29.848  44.918  46.024
    1STR    H1B65315  30.044  45.202  46.154
    1STR    H1C65316  30.091  45.087  46.393
    1STR    H1D65317  30.044  45.011  46.617
    1STR    H1E65318  29.843  44.813  46.927
    1STR    H1F65319  30.143  44.751  46.956
    1STR    H1G65320  30.012  44.668  47.040
    1STR    H1H65321  30.026  44.654  46.865
    1STR    H1I65322  29.892  45.026  47.040
    1STR    H1J65323  30.060  44.979  47.064
    1STR    H1K65324  30.015  45.008  47.299
    1STR    H1M65325  29.709  44.973  47.300
    1STR    H1N65326  29.795  45.108  47.227
    1STR    H1O65327  29.797  45.087  47.401
    1STR    H1P65328  29.844  44.784  47.419
    1STR    H1Q65329  30.018  44.782  47.405
    1STR   C01065330  29.945  44.844  47.660
    1STR   H01165331  29.868  44.767  47.656
    1STR   C01265332  30.083  44.780  47.678
    1STR   H01365333  30.162  44.855  47.677
    1STR   H01465334  30.106  44.707  47.600
    1STR   H01565335  30.089  44.727  47.773
    1STR   C01665336  29.912  44.938  47.778
    1STR   H01765337  29.986  45.018  47.784
    1STR   H01865338  29.816  44.986  47.759
    1STR   O01965339  29.907  44.865  47.901
    1STR   C02065340  29.881  44.943  48.018
    1STR   H02165341  29.940  45.034  48.016
    1STR   C02265342  29.731  44.977  48.026
    1STR   H02365343  29.670  44.887  48.024
    1STR   H02465344  29.699  45.041  47.944
    1STR   H02565345  29.709  45.029  48.119
    1STR   C02665346  29.925  44.861  48.142
    1STR   H02765347  29.868  44.769  48.148
    1STR   H02865348  30.030  44.833  48.130
    1STR   O02965349  29.907  44.939  48.261
    1STR   C03065350  29.941  44.873  48.383
    1STR   H03165351  29.902  44.771  48.383
    1STR   C03265352  30.094  44.871  48.401
    1STR   H03365353  30.135  44.972  48.397
    1STR   H03465354  30.144  44.811  48.325
    1STR   H03565355  30.120  44.828  48.498
    1STR   C03665356  29.872  44.949  48.498
    1STR   H03765357  29.909  45.051  48.503
    1STR   H03865358  29.765  44.954  48.479
    1STR   O03965359  29.897  44.882  48.622
    1STR   C04065360  29.842  44.944  48.738
    1STR   H04165361  29.860  45.052  48.734
    1STR   C04265362  29.691  44.916  48.747
    1STR   H04365363  29.672  44.809  48.746
    1STR   H04465364  29.636  44.961  48.665
    1STR   H04565365  29.650  44.957  48.839
    1STR   C04665366  29.916  44.889  48.861
    1STR   H04765367  29.900  44.781  48.869
    1STR   H04865368  30.024  44.904  48.848
    1STR   O04965369  29.871  44.955  48.979
    1STR   C05065370  29.929  44.910  49.101
    1STR   H05165371  29.934  44.801  49.102
    1STR   C05265372  30.070  44.969  49.117
    1STR   H05365373  30.068  45.078  49.112
    1STR   H05465374  30.139  44.933  49.041
    1STR   H05565375  30.113  44.942  49.214
    1STR   C05665376  29.837  44.954  49.216
    1STR   H05765377  29.830  45.063  49.219
    1STR   H05865378  29.736  44.917  49.197
    1STR   O05965379  29.887  44.903  49.340
    1STR   C06065380  29.812  44.940  49.456
    1STR   H06165381  29.785  45.046  49.451
    1STR   C06265382  29.685  44.854  49.466
    1STR   H06365383  29.710  44.748  49.467
    1STR   H06465384  29.616  44.872  49.384
    1STR   H06565385  29.632  44.876  49.559
    1STR   C06665386  29.903  44.921  49.578
    1STR   H06765387  29.932  44.816  49.587
    1STR   H06865388  29.995  44.978  49.563
    1STR   O06965389  29.836  44.966  49.695
    1STR   C07065390  29.908  44.950  49.817
    1STR   H07165391  29.957  44.852  49.819
    1STR   C07265392  30.014  45.061  49.830
    1STR   H07365393  29.968  45.160  49.823
    1STR   H07465394  30.091  45.055  49.754
    1STR   H07565395  30.064  45.055  49.927
    1STR   C07665396  29.807  44.955  49.932
    1STR   H07765397  29.757  45.052  49.934
    1STR   H07865398  29.730  44.880  49.915
    1STR   O07965399  29.874  44.930  50.056
    1STR   C08065400  29.791  44.936  50.172
    1STR   H08165401  29.724  45.022  50.166
    1STR   C08265402  29.710  44.806  50.185
    1STR   H08365403  29.775  44.719  50.186
    1STR   H08465404  29.639  44.794  50.103
    1STR   H08565405  29.652  44.806  50.278
    1STR   C08665406  29.883  44.957  50.293
    1STR   H08765407  29.951  44.872  50.303
    1STR   H08865408  29.945  45.045  50.276
    1STR   O08965409  29.804  44.973  50.411
    1STR   C09065410  29.878  44.989  50.531
    1STR   H09165411  29.962  44.918  50.534
    1STR   C09265412  29.931  45.133  50.542
    1STR   H09365413  29.849  45.205  50.535
    1STR   H09465414  30.003  45.156  50.464
    1STR   H09565415  29.980  45.149  50.638
    1STR   C09665416  29.784  44.955  50.648
    1STR   H09765417  29.700  45.025  50.649
    1STR   H09865418  29.743  44.855  50.632
    1STR   O09965419  29.856  44.960  50.771
    1STR   C10065420  29.779  44.934  50.887
    1STR   H10165421  29.683  44.986  50.882
    1STR   C10265422  29.756  44.783  50.903
    1STR   H10365423  29.851  44.729  50.904
    1STR   H10465424  29.695  44.742  50.822
    1STR   H10565425  29.704  44.761  50.996
    1STR   C10665426  29.856  44.992  51.007
    1STR   H10765427  29.952  44.941  51.017
    1STR   H10865428  29.877  45.097  50.988
    1STR   O10965429  29.778  44.977  51.126
    1STR   C11065430  29.841  45.023  51.245
    1STR   H11165431  29.945  44.992  51.248
    1STR   C11265432  29.831  45.176  51.254
    1STR   H11365433  29.727  45.209  51.247
    1STR   H11465434  29.888  45.225  51.175
    1STR   H11565435  29.871  45.212  51.349
    1STR   C11665436  29.768  44.956  51.363
    1STR   H11765437  29.664  44.986  51.365
    1STR   H11865438  29.770  44.848  51.349
    1STR   O11965439  29.833  44.991  51.485
    1STR   C12065440  29.774  44.938  51.603
    1STR   H12165441  29.665  44.948  51.598
    1STR   C12265442  29.813  44.791  51.620
    1STR   H12365443  29.922  44.779  51.621
    1STR   H12465444  29.773  44.728  51.541
    1STR   H12565445  29.775  44.752  51.715
    1STR   C12665446  29.822  45.024  51.721
    1STR   H12765447  29.931  45.016  51.731
    1STR   H12865448  29.800  45.129  51.701
    1STR   O12965449  29.758  44.981  51.841
    1STR   C13065450  29.797  45.050  51.959
    1STR   H13165451  29.906  45.063  51.960
    1STR   C13265452  29.727  45.187  51.965
    1STR   H13365453  29.619  45.176  51.959
    1STR   H13465454  29.759  45.253  51.885
    1STR   H13565455  29.750  45.237  52.060
    1STR   C13665456  29.759  44.961  52.078
    1STR   H13765457  29.651  44.947  52.081
    1STR   H13865458  29.804  44.863  52.065
    1STR   O13965459  29.805  45.022  52.199
    1STR   C14065460  29.772  44.951  52.318
    1STR   H14165461  29.669  44.916  52.314
    1STR   C14265462  29.868  44.832  52.337
    1STR   H14365463  29.972  44.865  52.336
    1STR   H14465464  29.856  44.757  52.259
    1STR   H14565465  29.849  44.782  52.432
    1STR   C14665466  29.783  45.051  52.435
    1STR   H14765467  29.886  45.087  52.443
    1STR   H14865468  29.720  45.137  52.414
    1STR   O14965469  29.742  44.987  52.556
    1STR   C15065470  29.752  45.068  52.673
    1STR   H15165471  29.846  45.123  52.673
    1STR   C15265472  29.633  45.165  52.679
    1STR   H15365473  29.538  45.112  52.674
    1STR   H15465474  29.635  45.238  52.598
    1STR   H15565475  29.635  45.222  52.772
    1STR   C15665476  29.753  44.973  52.793
    1STR   H15765477  29.659  44.917  52.798
    1STR   H15865478  29.833  44.900  52.781
    1STR   O15965479  29.772  45.048  52.913
    1STR   C16065480  29.771  44.972  53.033
    1STR   H16165481  29.690  44.899  53.031
    1STR   C16265482  29.906  44.902  53.052
    1STR   H16365483  29.988  44.973  53.050
    1STR   H16465484  29.925  44.827  52.975
    1STR   H16565485  29.910  44.850  53.148
    1STR   C16665486  29.742  45.070  53.149
    1STR   H16765487  29.822  45.144  53.155
    1STR   H16865488  29.650  45.124  53.127
    1STR   O16965489  29.731  44.997  53.271
    1STR   C17065490  29.708  45.076  53.387
    1STR   H17165491  29.772  45.165  53.385
    1STR   C17265492  29.560  45.118  53.393
    1STR   H17365493  29.495  45.031  53.390
    1STR   H17465494  29.532  45.184  53.311
    1STR   H17565495  29.540  45.172  53.486
    1STR   C17665496  29.748  44.992  53.508
    1STR   H17765497  29.685  44.903  53.514
    1STR   H17865498  29.850  44.957  53.496
    1STR   O17965499  29.736  45.070  53.627
    1STR   C18065500  29.766  45.002  53.748
    1STR   H18165501  29.722  44.902  53.747
    1STR   C18265502  29.919  44.992  53.766
    1STR   H18365503  29.965  45.090  53.762
    1STR   H18465504  29.965  44.929  53.689
    1STR   H18565505  29.943  44.947  53.862
    1STR   C18665506  29.702  45.082  53.863
    1STR   H18765507  29.745  45.182  53.867
    1STR   H18865508  29.596  45.094  53.842
    1STR   O18965509  29.721  45.012  53.985
    1STR   C19065510  29.669  45.078  54.101
    1STR   H19165511  29.693  45.185  54.097
    1STR   C19265512  29.517  45.058  54.109
    1STR   H19365513  29.492  44.952  54.108
    1STR   H19465514  29.465  45.106  54.026
    1STR   H19565515  29.478  45.100  54.201
    1STR   C19665516  29.741  45.018  54.223
    1STR   H19765517  29.718  44.912  54.231
    1STR   H19865518  29.848  45.027  54.210
    1STR   O19965519  29.699  45.087  54.341
    1STR   C20065520  29.755  45.039  54.462
    1STR   H20165521  29.754  44.929  54.463
    1STR   C20265522  29.899  45.091  54.478
    1STR   H20365523  29.902  45.199  54.473
    1STR   H20465524  29.966  45.051  54.402
    1STR   H20565525  29.940  45.061  54.575
    1STR   C20665526  29.665  45.088  54.577
    1STR   H20765527  29.664  45.197  54.580
    1STR   H20865528  29.562  45.056  54.557
    1STR   O20965529  29.711  45.033  54.700
    1STR   C21065530  29.638  45.075  54.815
    1STR   H21165531  29.617  45.182  54.811
    1STR   C21265532  29.507  44.995  54.826
    1STR   H21365533  29.526  44.888  54.826
    1STR   H21465534  29.439  45.017  54.743
    1STR   H21565535  29.454  45.019  54.918
    1STR   C21665536  29.728  45.050  54.938
    1STR   H21765537  29.751  44.943  54.947
    1STR   H21865538  29.823  45.101  54.922
    1STR   O21965539  29.664  45.098  55.055
    1STR   C22065540  29.735  45.078  55.176
    1STR   H22165541  29.778  44.978  55.179
    1STR   C22265542  29.846  45.183  55.190
    1STR   H22365543  29.806  45.284  55.183
    1STR   H22465544  29.923  45.172  55.113
    1STR   H22565545  29.897  45.174  55.286
    1STR   C22665546  29.634  45.089  55.291
    1STR   H22765547  29.590  45.189  55.293
    1STR   H22865548  29.552  45.018  55.274
    1STR   O22965549  29.699  45.060  55.415
    1STR   C23065550  29.616  45.070  55.531
    1STR   H23165551  29.554  45.159  55.525
    1STR   C23265552  29.528  44.945  55.543
    1STR   H23365553  29.588  44.854  55.544
    1STR   H23465554  29.456  44.937  55.462
    1STR   H23565555  29.470  44.948  55.636
    1STR   C23665556  29.710  45.085  55.652
    1STR   H23765557  29.773  44.996  55.662
    1STR   H23865558  29.776  45.170  55.635
    1STR   O23965559  29.632  45.105  55.769
    1STR   C24065560  29.706  45.117  55.890
    1STR   H24165561  29.786  45.043  55.893
    1STR   C24265562  29.766  45.258  55.901
    1STR   H24365563  29.688  45.335  55.894
    1STR   H24465564  29.840  45.278  55.823
    1STR   H24565565  29.816  45.272  55.997
    1STR   C24665566  29.610  45.088  56.006
    1STR   H24765567  29.530  45.162  56.008
    1STR   H24865568  29.564  44.991  55.990
    1STR   O24965569  29.682  45.089  56.129
    1STR   C25065570  29.603  45.067  56.246
    1STR   H25165571  29.510  45.124  56.240
    1STR   C25265572  29.573  44.918  56.261
    1STR   H25365573  29.664  44.859  56.262
    1STR   H25465574  29.510  44.880  56.180
    1STR   H25565575  29.520  44.898  56.354
    1STR   C25665576  29.684  45.120  56.366
    1STR   H25765577  29.777  45.065  56.376
    1STR   H25865578  29.711  45.224  56.347
    1STR   O25965579  29.605  45.110  56.484
    1STR   C26065580  29.669  45.152  56.604
    1STR   H26165581  29.772  45.115  56.607
    1STR   C26265582  29.668  45.306  56.612
    1STR   H26365583  29.567  45.344  56.605
    1STR   H26465584  29.728  45.352  56.534
    1STR   H26565585  29.710  45.339  56.708
    1STR   C26665586  29.594  45.089  56.722
    1STR   H26765587  29.490  45.125  56.723
    1STR   H26865588  29.590  44.981  56.708
    1STR   O26965589  29.660  45.121  56.844
    1STR   C27065590  29.597  45.071  56.962
    1STR   H27165591  29.489  45.086  56.956
    1STR   C27265592  29.629  44.921  56.979
    1STR   H27365593  29.737  44.904  56.980
    1STR   H27465594  29.586  44.861  56.899
    1STR   H27565595  29.589  44.884  57.073
    1STR   C27665596  29.650  45.153  57.080
    1STR   H27765597  29.758  45.140  57.090
    1STR   H27865598  29.633  45.259  57.061
    1STR   O27965599  29.584  45.113  57.200
    1STR   C28065600  29.626  45.180  57.318
    1STR   H28165601  29.735  45.187  57.320
    1STR   C28265602  29.564  45.320  57.325
    1STR   H28365603  29.455  45.315  57.318
    1STR   H28465604  29.600  45.385  57.246
    1STR   H28565605  29.589  45.369  57.420
    1STR   C28665606  29.583  45.093  57.438
    1STR   H28765607  29.474  45.084  57.440
    1STR   H28865608  29.623  44.992  57.425
    1STR   O28965609  29.631  45.151  57.559
    1STR   C29065610  29.594  45.082  57.678
    1STR   H29165611  29.489  45.052  57.673
    1STR   C29265612  29.684  44.958  57.696
    1STR   H29365613  29.789  44.985  57.696
    1STR   H29465614  29.668  44.884  57.618
    1STR   H29565615  29.662  44.909  57.791
    1STR   C29665616  29.611  45.180  57.795
    1STR   H29765617  29.715  45.211  57.803
    1STR   H29865618  29.553  45.270  57.774
    1STR   O29965619  29.567  45.119  57.916
    1STR   C30065620  29.581  45.199  58.033
    1STR   H30165621  29.678  45.250  58.031
    1STR   C30265622  29.467  45.301  58.040
    1STR   H30365623  29.370  45.253  58.036
    1STR   H30465624  29.472  45.374  57.959
    1STR   H30565625  29.472  45.357  58.134
    1STR   C30665626  29.580  45.104  58.154
    1STR   H30765627  29.484  45.054  58.162
    1STR   H30865628  29.655  45.026  58.138
    1STR   O30965629  29.610  45.179  58.271
    1STR    H1R65630  29.527  45.036  58.397
    1STR    H1S65631  29.749  44.970  58.497
    1STR    H1T65632  29.830  45.090  58.398
    1STR    H1U65633  29.754  44.950  58.323
    1STR    H1V65634  29.510  45.267  58.492
    1STR    H1W65635  29.683  45.275  58.508
    1STR    H1X65636  29.545  45.039  58.816
    1STR    H1Y65637  29.524  44.930  59.018
    1STR    H1Z65638  29.624  44.849  59.226
    1STR    H2065639  29.975  44.831  59.290
    1STR    H2165640  29.889  44.946  59.394
    1STR    H2265641  29.816  44.792  59.352
    1STR    H2365642  30.097  45.029  59.063
    1STR    H2765643  29.898  45.121  58.913
    1STR    H2865644  29.804  44.769  46.460
    1STR    H2965645  29.755  44.764  46.224
    1STR    H2A65646  29.847  45.019  45.981
    1STR    H2B65647  29.748  44.877  46.014
    1STR    H2C65648  29.916  44.856  45.965
    1STR   BCK165649  45.235   0.079   0.900
    1STR    O0365650  45.298   0.182   0.884
    1STR    N0465651  45.238   0.004   1.011
    1STR    C0565652  45.334   0.018   1.111
    1STR    C0665653  45.295   0.039   1.246
    1STR    C0765654  45.392   0.051   1.349
    1STR    N0865655  45.351   0.067   1.483
    1STR    C0965656  45.423   0.094   1.592
    1STR    O0A65657  45.543   0.120   1.593
    1STR    O0B65658  45.347   0.092   1.704
    1STR    C0C65659  45.409   0.121   1.831
    1STR    C0D65660  45.419   0.273   1.849
    1STR    C0E65661  45.332   0.054   1.947
    1STR    O0F65662  45.405   0.079   2.067
    1STR    C0G65663  45.350   0.024   2.186
    1STR    C0H65664  45.384  60.034   2.193
    1STR    C0I65665  45.411   0.100   2.306
    1STR    O0J65666  45.353   0.053   2.428
    1STR    C0K65667  45.480  59.845  13.271
    1STR    C0M65668  45.438  59.992  13.287
    1STR    C0N65669  45.424  59.755  13.382
    1STR    O0O65670  45.488  59.781  13.507
    1STR    C0P65671  45.429  59.858  13.599
    1STR    O0Q65672  45.317  59.908  13.589
    1STR    N0R65673  45.513  59.876  13.700
    1STR    C0S65674  45.500  59.961  13.810
    1STR    C0T65675  45.618  60.016  13.865
    1STR    C0U65676  45.611  60.112  13.967
    1STR    C0V65677  45.487  60.153  14.019
    1STR    C0W65678  45.481   0.106  14.120
    1STR    C0X65679  45.369  60.090  13.973
    1STR    N0Y65680  45.247  60.122  14.032
    1STR   BCK265681  45.197  60.065  14.142
    1STR    O1065682  45.100  60.114  14.198
    1STR    C1365683  45.375  59.997  13.867
    1STR    C1465684  45.529   0.042   1.313
    1STR    C1565685  45.567   0.019   1.180
    1STR    C1665686  45.471   0.004   1.079
    1STR    C1765687  45.519  60.129   0.939
    1STR    H1B65688  45.173  60.088   1.016
    1STR    H1C65689  45.190   0.047   1.269
    1STR    H1D65690  45.253   0.057   1.503
    1STR    H1E65691  45.509   0.078   1.831
    1STR    H1F65692  45.321   0.320   1.849
    1STR    H1G65693  45.469   0.298   1.942
    1STR    H1H65694  45.477   0.318   1.768
    1STR    H1I65695  45.324  60.107   1.928
    1STR    H1J65696  45.231   0.094   1.953
    1STR    H1K65697  45.242   0.038   2.189
    1STR    H1M65698  45.492  60.018   2.187
    1STR    H1N65699  45.337  59.977   2.114
    1STR    H1O65700  45.350  59.991   2.288
    1STR    H1P65701  45.519   0.086   2.307
    1STR    H1Q65702  45.393   0.206   2.293
    1STR   C01065703  45.404   0.112   2.547
    1STR   H01165704  45.513   0.117   2.543
    1STR   C01265705  45.346   0.253   2.565
    1STR   H01365706  45.237   0.251   2.564
    1STR   H01465707  45.379   0.322   2.487
    1STR   H01565708  45.378   0.296   2.660
    1STR   C01665709  45.365   0.020   2.664
    1STR   H01765710  45.257   0.013   2.671
    1STR   H01865711  45.403  60.080   2.644
    1STR   O01965712  45.420   0.071   2.786
    1STR   C02065713  45.387  60.156   2.903
    1STR   H02165714  45.281  60.128   2.901
    1STR   C02265715  45.474  60.029   2.910
    1STR   H02365716  45.580  60.055   2.908
    1STR   H02465717  45.454  59.960   2.829
    1STR   H02565718  45.456  59.975   3.003
    1STR   C02665719  45.409   0.086   3.026
    1STR   H02765720  45.514   0.115   3.032
    1STR   H02865721  45.352   0.178   3.014
    1STR   O02965722  45.369   0.017   3.144
    1STR   C03065723  45.389   0.089   3.266
    1STR   H03165724  45.487   0.138   3.266
    1STR   C03265725  45.278   0.193   3.284
    1STR   H03365726  45.179   0.147   3.280
    1STR   H03465727  45.281   0.271   3.208
    1STR   H03565728  45.287   0.243   3.381
    1STR   C03665729  45.388  60.146   3.381
    1STR   H03765730  45.291  60.096   3.386
    1STR   H03865731  45.463  60.070   3.361
    1STR   O03965732  45.416   0.052   3.505
    1STR   C04065733  45.414  60.129   3.620
    1STR   H04165734  45.328  60.061   3.616
    1STR   C04265735  45.545  60.048   3.629
    1STR   H04365736  45.632  60.114   3.628
    1STR   H04465737  45.555  59.977   3.546
    1STR   H04565738  45.548  59.990   3.721
    1STR   C04665739  45.397   0.060   3.743
    1STR   H04765740  45.482   0.128   3.751
    1STR   H04865741  45.308   0.121   3.729
    1STR   O04965742  45.385  60.140   3.861
    1STR   C05065743  45.373   0.053   3.983
    1STR   H05165744  45.443   0.137   3.984
    1STR   C05265745  45.229   0.104   3.998
    1STR   H05365746  45.157   0.022   3.993
    1STR   H05465747  45.202   0.177   3.922
    1STR   H05565748  45.216   0.153   4.095
    1STR   C05665749  45.411  60.118   4.097
    1STR   H05765750  45.342  60.033   4.100
    1STR   H05865751  45.511  60.077   4.078
    1STR   O05965752  45.409   0.029   4.221
    1STR   C06065753  45.439  60.111   4.336
    1STR   H06165754  45.388  60.015   4.331
    1STR   C06265755  45.591  60.090   4.347
    1STR   H06365756  45.644   0.025   4.347
    1STR   H06465757  45.630  60.030   4.265
    1STR   H06565758  45.616  60.037   4.439
    1STR   C06665759  45.385   0.027   4.459
    1STR   H06765760  45.435   0.123   4.468
    1STR   H06865761  45.279   0.047   4.443
    1STR   O06965762  45.404  60.108   4.576
    1STR   C07065763  45.362   0.009   4.697
    1STR   H07165764  45.392   0.114   4.700
    1STR   C07265765  45.209  60.158   4.711
    1STR   H07365766  45.176  60.055   4.704
    1STR   H07465767  45.157   0.055   4.634
    1STR   H07565768  45.176   0.037   4.807
    1STR   C07665769  45.433  60.097   4.813
    1STR   H07765770  45.404  59.992   4.815
    1STR   H07865771  45.541  60.100   4.795
    1STR   O07965772  45.401   0.000   4.936
    1STR   C08065773  45.458  60.100   5.052
    1STR   H08165774  45.449  59.991   5.046
    1STR   C08265775  45.605  60.141   5.065
    1STR   H08365776  45.616   0.089   5.066
    1STR   H08465777  45.666  60.102   4.984
    1STR   H08565778  45.648  60.102   5.158
    1STR   C08665779  45.375  60.147   5.173
    1STR   H08765780  45.383   0.096   5.183
    1STR   H08865781  45.270  60.124   5.156
    1STR   O08965782  45.423  60.082   5.291
    1STR   C09065783  45.357  60.121   5.412
    1STR   H09165784  45.344   0.069   5.414
    1STR   C09265785  45.221  60.050   5.422
    1STR   H09365786  45.233  59.942   5.415
    1STR   H09465787  45.152  60.082   5.344
    1STR   H09565788  45.174  60.072   5.518
    1STR   C09665789  45.450  60.082   5.528
    1STR   H09765790  45.465  59.974   5.529
    1STR   H09865791  45.548  60.127   5.512
    1STR   O09965792  45.393  60.127   5.651
    1STR   C10065793  45.468  60.094   5.767
    1STR   H10165794  45.503  59.991   5.762
    1STR   C10265795  45.587   0.030   5.783
    1STR   H10365796  45.553   0.134   5.784
    1STR   H10465797  45.659   0.019   5.702
    1STR   H10565798  45.640   0.011   5.876
    1STR   C10665799  45.372  60.103   5.887
    1STR   H10765800  45.335   0.046   5.897
    1STR   H10865801  45.285  60.040   5.868
    1STR   O10965802  45.439  60.062   6.006
    1STR   C11065803  45.362  60.070   6.125
    1STR   H11165804  45.306   0.004   6.128
    1STR   C11265805  45.266  59.950   6.134
    1STR   H11365806  45.320  59.856   6.126
    1STR   H11465807  45.191  59.952   6.055
    1STR   H11565808  45.212  59.951   6.228
    1STR   C11665809  45.461  60.071   6.243
    1STR   H11765810  45.518  59.978   6.245
    1STR   H11865811  45.532  60.152   6.229
    1STR   O11965812  45.389  60.088   6.365
    1STR   C12065813  45.469  60.087   6.483
    1STR   H12165814  45.543  60.007   6.478
    1STR   C12265815  45.539   0.063   6.500
    1STR   H12365816  45.467   0.144   6.501
    1STR   H12465817  45.611   0.082   6.421
    1STR   H12565818  45.593   0.066   6.595
    1STR   C12665819  45.375  60.057   6.601
    1STR   H12765820  45.300  60.136   6.611
    1STR   H12865821  45.321  59.964   6.581
    1STR   O12965822  45.451  60.045   6.721
    1STR   C13065823  45.376  60.021   6.839
    1STR   H13165824  45.287  60.084   6.840
    1STR   C13265825  45.335  59.873   6.846
    1STR   H13365826  45.422  59.808   6.839
    1STR   H13465827  45.267  59.845   6.765
    1STR   H13565828  45.284  59.851   6.940
    1STR   C13665829  45.464  60.060   6.958
    1STR   H13765830  45.553  59.998   6.961
    1STR   H13865831  45.497   0.003   6.945
    1STR   O13965832  45.389  60.047   7.079
    1STR   C14065833  45.461  60.077   7.198
    1STR   H14165834  45.561  60.033   7.194
    1STR   C14265835  45.471   0.069   7.217
    1STR   H14365836  45.372   0.115   7.216
    1STR   H14465837  45.530   0.116   7.139
    1STR   H14565838  45.518   0.093   7.312
    1STR   C14665839  45.386  60.011   7.315
    1STR   H14765840  45.285  60.054   7.323
    1STR   H14865841  45.373  59.905   7.294
    1STR   O14965842  45.459  60.030   7.436
    1STR   C15065843  45.397  59.977   7.553
    1STR   H15165844  45.291  59.999   7.553
    1STR   C15265845  45.419  59.825   7.559
    1STR   H15365846  45.526  59.800   7.554
    1STR   H15465847  45.369  59.772   7.477
    1STR   H15565848  45.380  59.784   7.652
    1STR   C15665849  45.461  60.048   7.673
    1STR   H15765850  45.568  60.026   7.678
    1STR   H15865851  45.450  60.155   7.661
    1STR   O15965852  45.396  60.005   7.793
    1STR   C16065853  45.448  60.060   7.913
    1STR   H16165854  45.557  60.060   7.911
    1STR   C16265855  45.395   0.043   7.932
    1STR   H16365856  45.286   0.046   7.930
    1STR   H16465857  45.432   0.111   7.855
    1STR   H16565858  45.427   0.084   8.028
    1STR   C16665859  45.403  59.969   8.029
    1STR   H16765860  45.294  59.967   8.035
    1STR   H16865861  45.435  59.867   8.007
    1STR   O16965862  45.461  60.015   8.151
    1STR   C17065863  45.424  59.941   8.267
    1STR   H17165864  45.317  59.919   8.265
    1STR   C17265865  45.504  59.810   8.273
    1STR   H17365866  45.612  59.830   8.270
    1STR   H17465867  45.480  59.743   8.191
    1STR   H17565868  45.483  59.757   8.366
    1STR   C17665869  45.451  60.030   8.389
    1STR   H17765870  45.558  60.053   8.394
    1STR   H17865871  45.399  60.125   8.376
    1STR   O17965872  45.407  59.964   8.507
    1STR   C18065873  45.431  60.035   8.628
    1STR   H18165874  45.531  60.078   8.627
    1STR   C18265875  45.326  60.146   8.646
    1STR   H18365876  45.225  60.105   8.642
    1STR   H18465877  45.334   0.063   8.569
    1STR   H18565878  45.338   0.035   8.742
    1STR   C18665879  45.425  59.933   8.743
    1STR   H18765880  45.325  59.888   8.747
    1STR   H18865881  45.495  59.852   8.722
    1STR   O18965882  45.457  59.997   8.865
    1STR   C19065883  45.451  59.914   8.981
    1STR   H19165884  45.362  59.851   8.977
    1STR   C19265885  45.577  59.826   8.989
    1STR   H19365886  45.668  59.887   8.988
    1STR   H19465887  45.583  59.755   8.906
    1STR   H19565888  45.578  59.768   9.081
    1STR   C19665889  45.439  60.006   9.103
    1STR   H19765890  45.528  60.069   9.111
    1STR   H19865891  45.353  60.072   9.090
    1STR   O19965892  45.423  59.927   9.221
    1STR   C20065893  45.415  60.000   9.342
    1STR   H20165894  45.489  60.080   9.343
    1STR   C20265895  45.274  60.059   9.358
    1STR   H20365896  45.198  59.981   9.353
    1STR   H20465897  45.251  60.133   9.282
    1STR   H20565898  45.263  60.109   9.455
    1STR   C20665899  45.448  59.903   9.457
    1STR   H20765900  45.375  59.823   9.460
    1STR   H20865901  45.545  59.858   9.437
    1STR   O20965902  45.450  59.975   9.580
    1STR   C21065903  45.476  59.895   9.695
    1STR   H21165904  45.420  59.802   9.691
    1STR   C21265905  45.627  59.865   9.705
    1STR   H21365906  45.685  59.957   9.706
    1STR   H21465907  45.662  59.803   9.623
    1STR   H21565908  45.649  59.811   9.798
    1STR   C21665909  45.427  59.974   9.818
    1STR   H21765910  45.482  60.068   9.827
    1STR   H21865911  45.322  60.001   9.802
    1STR   O21965912  45.442  59.895   9.935
    1STR   C22065913  45.403  59.958  10.056
    1STR   H22165914  45.439  60.061  10.058
    1STR   C22265915  45.250  59.955  10.070
    1STR   H22365916  45.211  59.853  10.063
    1STR   H22465917  45.200  60.015   9.993
    1STR   H22565918  45.219  59.996  10.166
    1STR   C22665919  45.470  59.882  10.171
    1STR   H22765920  45.435  59.778  10.173
    1STR   H22865921  45.578  59.879  10.153
    1STR   O22965922  45.442  59.947  10.295
    1STR   C23065923  45.496  59.884  10.410
    1STR   H23165924  45.481  59.776  10.405
    1STR   C23265925  45.645  59.917  10.423
    1STR   H23365926  45.662  60.025  10.424
    1STR   H23465927  45.704  59.875  10.342
    1STR   H23565928  45.686  59.876  10.516
    1STR   C23665929  45.416  59.936  10.532
    1STR   H23765930  45.430  60.043  10.542
    1STR   H23865931  45.310  59.918  10.515
    1STR   O23965932  45.460  59.868  10.649
    1STR   C24065933  45.397  59.910  10.770
    1STR   H24165934  45.389  60.019  10.773
    1STR   C24265935  45.258  59.846  10.781
    1STR   H24365936  45.263  59.737  10.773
    1STR   H24465937  45.190  59.881  10.703
    1STR   H24565938  45.212  59.870  10.877
    1STR   C24665939  45.488  59.866  10.886
    1STR   H24765940  45.497  59.757  10.887
    1STR   H24865941  45.588  59.906  10.870
    1STR   O24965942  45.434  59.914  11.009
    1STR   C25065943  45.507  59.877  11.125
    1STR   H25165944  45.537  59.772  11.119
    1STR   C25265945  45.631  59.966  11.141
    1STR   H25365946  45.603  60.072  11.142
    1STR   H25465947  45.703  59.951  11.060
    1STR   H25565948  45.683  59.945  11.234
    1STR   C25665949  45.412  59.892  11.245
    1STR   H25765950  45.381  59.996  11.255
    1STR   H25865951  45.322  59.833  11.227
    1STR   O25965952  45.477  59.847  11.363
    1STR   C26065953  45.401  59.859  11.483
    1STR   H26165954  45.350  59.955  11.486
    1STR   C26265955  45.298  59.745  11.492
    1STR   H26365956  45.347  59.647  11.485
    1STR   H26465957  45.223  59.751  11.413
    1STR   H26565958  45.245  59.748  11.587
    1STR   C26665959  45.500  59.854  11.601
    1STR   H26765960  45.551  59.758  11.602
    1STR   H26865961  45.576  59.931  11.586
    1STR   O26965962  45.429  59.876  11.723
    1STR   C27065963  45.509  59.870  11.840
    1STR   H27165964  45.579  59.786  11.835
    1STR   C27265965  45.587  60.002  11.858
    1STR   H27365966  45.519  60.087  11.859
    1STR   H27465967  45.659  60.018  11.778
    1STR   H27565968  45.642  60.002  11.952
    1STR   C27665969  45.414  59.845  11.959
    1STR   H27765970  45.344  59.928  11.968
    1STR   H27865971  45.355  59.756  11.939
    1STR   O27965972  45.490  59.829  12.078
    1STR   C28065973  45.414  59.809  12.196
    1STR   H28165974  45.329  59.877  12.198
    1STR   C28265975  45.366  59.664  12.204
    1STR   H28365976  45.449  59.594  12.197
    1STR   H28465977  45.295  59.640  12.124
    1STR   H28565978  45.314  59.645  12.298
    1STR   C28665979  45.505  59.844  12.315
    1STR   H28765980  45.591  59.777  12.318
    1STR   H28865981  45.543  59.945  12.302
    1STR   O28965982  45.430  59.835  12.436
    1STR   C29065983  45.504  59.861  12.555
    1STR   H29165984  45.601  59.812  12.551
    1STR   C29265985  45.522  60.012  12.574
    1STR   H29365986  45.426  60.064  12.574
    1STR   H29465987  45.583  60.057  12.496
    1STR   H29565988  45.571  60.034  12.669
    1STR   C29665989  45.425  59.799  12.672
    1STR   H29765990  45.327  59.847  12.680
    1STR   H29865991  45.407  59.694  12.651
    1STR   O29965992  45.499  59.814  12.793
    1STR   C30065993  45.434  59.764  12.909
    1STR   H30165994  45.329  59.792  12.908
    1STR   C30265995  45.449  59.611  12.916
    1STR   H30365996  45.554  59.582  12.912
    1STR   H30465997  45.397  59.561  12.834
    1STR   H30565998  45.407  59.572  13.009
    1STR   C30665999  45.499  59.832  13.031
    1STR   H30766000  45.605  59.805  13.037
    1STR   H30866001  45.495  59.940  13.017
    1STR   O30966002  45.429  59.793  13.148
    1STR    H1R66003  45.589  59.837  13.272
    1STR    H1S66004  45.472  60.032  13.382
    1STR    H1T66005  45.329  60.001  13.286
    1STR    H1U66006  45.478  60.056  13.209
    1STR    H1V66007  45.443  59.650  13.358
    1STR    H1W66008  45.315  59.764  13.389
    1STR    H1X66009  45.600  59.828  13.686
    1STR    H1Y66010  45.714  59.988  13.825
    1STR    H1Z66011  45.702  60.156  14.004
    1STR    H2066012  45.433   0.193  14.074
    1STR    H2166013  45.421   0.079  14.206
    1STR    H2266014  45.580   0.136  14.154
    1STR    H2366015  45.193   0.038  13.995
    1STR    H2766016  45.284  59.953  13.830
    1STR    H2866017  45.608   0.050   1.385
    1STR    H2966018  45.672   0.011   1.156
    1STR    H2A66019  45.451  60.059   0.890
    1STR    H2B66020  45.618  60.084   0.940
    1STR    H2C66021  45.525   0.060   0.878
    1STR   BCK166022  45.118   0.041  15.919
    1STR    O0366023  45.023   0.037  15.841
    1STR    N0466024  45.113   0.075  16.049
    1STR    C0566025  45.009   0.118  16.133
    1STR    C0666026  45.016   0.083  16.271
    1STR    C0766027  44.919   0.127  16.366
    1STR    N0866028  44.934   0.095  16.503
    1STR    C0966029  44.863   0.136  16.610
    1STR    O0A66030  44.766   0.211  16.605
    1STR    O0B66031  44.911   0.085  16.727
    1STR    C0C66032  44.840   0.110  16.851
    1STR    C0D66033  44.725   0.009  16.864
    1STR    C0E66034  44.934   0.105  16.974
    1STR    O0F66035  44.859   0.134  17.094
    1STR    C0G66036  44.934   0.138  17.216
    1STR    C0H66037  45.009   0.271  17.225
    1STR    C0I66038  44.837   0.122  17.336
    1STR    O0J66039  44.911   0.119  17.459
    1STR    C0K66040  45.061   0.468  28.313
    1STR    C0M66041  44.996   0.329  28.324
    1STR    C0N66042  45.160   0.493  28.428
    1STR    O0O66043  45.091   0.503  28.553
    1STR    C0P66044  45.100   0.405  28.644
    1STR    O0Q66045  45.162   0.301  28.630
    1STR    N0R66046  45.030   0.440  28.751
    1STR    C0S66047  45.006   0.374  28.872
    1STR    C0T66048  44.908   0.428  28.958
    1STR    C0U66049  44.877   0.366  29.080
    1STR    C0V66050  44.943   0.248  29.120
    1STR    C0W66051  44.899   0.179  29.248
    1STR    C0X66052  45.044   0.194  29.037
    1STR    N0Y66053  45.108   0.075  29.071
    1STR   BCK266054  45.182   0.049  29.180
    1STR    O1066055  45.215   0.132  29.265
    1STR    C1366056  45.074   0.256  28.914
    1STR    C1466057  44.811   0.203  16.317
    1STR    C1566058  44.805   0.242  16.183
    1STR    C1666059  44.904   0.204  16.091
    1STR    C1766060  44.895   0.265  15.952
    1STR    H1B66061  45.203   0.063  16.093
    1STR    H1C66062  45.098   0.022  16.305
    1STR    H1D66063  45.009   0.034  16.530
    1STR    H1E66064  44.798   0.211  16.848
    1STR    H1F66065  44.762  60.067  16.869
    1STR    H1G66066  44.667   0.028  16.954
    1STR    H1H66067  44.656   0.017  16.780
    1STR    H1I66068  45.014   0.178  16.961
    1STR    H1J66069  44.980   0.007  16.982
    1STR    H1K66070  45.004   0.055  17.219
    1STR    H1M66071  44.941   0.356  17.219
    1STR    H1N66072  45.084   0.282  17.147
    1STR    H1O66073  45.062   0.279  17.321
    1STR    H1P66074  44.765   0.204  17.337
    1STR    H1Q66075  44.780   0.030  17.324
    1STR   C01066076  44.834   0.110  17.579
    1STR   H01166077  44.750   0.180  17.575
    1STR   C01266078  44.781  60.127  17.598
    1STR   H01366079  44.863  60.055  17.597
    1STR   H01466080  44.711  60.098  17.520
    1STR   H01566081  44.729  60.117  17.693
    1STR   C01666082  44.924   0.151  17.698
    1STR   H01766083  45.010   0.084  17.704
    1STR   H01866084  44.963   0.251  17.679
    1STR   O01966085  44.851   0.150  17.821
    1STR   C02066086  44.926   0.183  17.938
    1STR   H02166087  45.022   0.132  17.936
    1STR   C02266088  44.947   0.335  17.946
    1STR   H02366089  44.851   0.388  17.944
    1STR   H02466090  45.008   0.372  17.864
    1STR   H02566091  44.997   0.362  18.038
    1STR   C02666092  44.849   0.131  18.062
    1STR   H02766093  44.751   0.180  18.068
    1STR   H02866094  44.830   0.024  18.050
    1STR   O02966095  44.924   0.156  18.180
    1STR   C03066096  44.862   0.117  18.303
    1STR   H03166097  44.757   0.146  18.302
    1STR   C03266098  44.873  60.125  18.321
    1STR   H03366099  44.977  60.092  18.317
    1STR   H03466100  44.818  60.070  18.245
    1STR   H03566101  44.833  60.094  18.418
    1STR   C03666102  44.932   0.192  18.418
    1STR   H03766103  45.037   0.164  18.423
    1STR   H03866104  44.928   0.299  18.399
    1STR   O03966105  44.867   0.161  18.542
    1STR   C04066106  44.924   0.221  18.658
    1STR   H04166107  45.033   0.213  18.654
    1STR   C04266108  44.883   0.369  18.667
    1STR   H04366109  44.774   0.379  18.666
    1STR   H04466110  44.923   0.428  18.585
    1STR   H04566111  44.920   0.414  18.759
    1STR   C04666112  44.876   0.143  18.781
    1STR   H04766113  44.767   0.149  18.789
    1STR   H04866114  44.900   0.037  18.768
    1STR   O04966115  44.938   0.194  18.899
    1STR   C05066116  44.898   0.132  19.021
    1STR   H05166117  44.790   0.117  19.022
    1STR   C05266118  44.969  60.157  19.037
    1STR   H05366119  45.077   0.009  19.032
    1STR   H05466120  44.939  60.085  18.961
    1STR   H05566121  44.946  60.112  19.134
    1STR   C05666122  44.933   0.228  19.136
    1STR   H05766123  45.041   0.244  19.139
    1STR   H05866124  44.887   0.325  19.117
    1STR   O05966125  44.887   0.174  19.260
    1STR   C06066126  44.918   0.251  19.376
    1STR   H06166127  45.021   0.288  19.371
    1STR   C06266128  44.820   0.370  19.386
    1STR   H06366129  44.717   0.336  19.387
    1STR   H06466130  44.832   0.440  19.304
    1STR   H06566131  44.837   0.425  19.479
    1STR   C06666132  44.907   0.159  19.498
    1STR   H06766133  44.805   0.121  19.507
    1STR   H06866134  44.971   0.072  19.483
    1STR   O06966135  44.945   0.230  19.615
    1STR   C07066136  44.936   0.156  19.737
    1STR   H07166137  44.842   0.099  19.739
    1STR   C07266138  45.056   0.061  19.750
    1STR   H07366139  45.150   0.115  19.743
    1STR   H07466140  45.056  60.144  19.674
    1STR   H07566141  45.054   0.010  19.847
    1STR   C07666142  44.932   0.258  19.852
    1STR   H07766143  45.024   0.316  19.854
    1STR   H07866144  44.850   0.328  19.835
    1STR   O07966145  44.913   0.189  19.976
    1STR   C08066146  44.911   0.272  20.092
    1STR   H08166147  44.991   0.346  20.086
    1STR   C08266148  44.775   0.342  20.105
    1STR   H08366149  44.694   0.269  20.106
    1STR   H08466150  44.756   0.412  20.024
    1STR   H08566151  44.770   0.399  20.198
    1STR   C08666152  44.940   0.182  20.213
    1STR   H08766153  44.861   0.107  20.223
    1STR   H08866154  45.033   0.128  20.196
    1STR   O08966155  44.949   0.262  20.331
    1STR   C09066156  44.972   0.189  20.451
    1STR   H09166157  44.909   0.100  20.454
    1STR   C09266158  45.120   0.150  20.462
    1STR   H09366159  45.184   0.237  20.455
    1STR   H09466160  45.149   0.080  20.384
    1STR   H09566161  45.140   0.102  20.558
    1STR   C09666162  44.929   0.280  20.568
    1STR   H09766163  44.991   0.370  20.569
    1STR   H09866164  44.826   0.313  20.552
    1STR   O09966165  44.941   0.209  20.691
    1STR   C10066166  44.908   0.284  20.808
    1STR   H10166167  44.952   0.384  20.802
    1STR   C10266168  44.756   0.293  20.823
    1STR   H10366169  44.710   0.194  20.824
    1STR   H10466170  44.710   0.350  20.742
    1STR   H10566171  44.729   0.343  20.916
    1STR   C10666172  44.972   0.212  20.927
    1STR   H10766173  44.930   0.112  20.937
    1STR   H10866174  45.079   0.200  20.909
    1STR   O10966175  44.951   0.288  21.046
    1STR   C11066176  45.002   0.230  21.165
    1STR   H11166177  44.980   0.123  21.168
    1STR   C11266178  45.154   0.253  21.174
    1STR   H11366179  45.178   0.359  21.167
    1STR   H11466180  45.208   0.201  21.095
    1STR   H11566181  45.193   0.217  21.269
    1STR   C11666182  44.929   0.296  21.283
    1STR   H11766183  44.950   0.403  21.285
    1STR   H11866184  44.821   0.284  21.269
    1STR   O11966185  44.970   0.234  21.405
    1STR   C12066186  44.912   0.289  21.523
    1STR   H12166187  44.912   0.398  21.518
    1STR   C12266188  44.769   0.237  21.540
    1STR   H12366189  44.766   0.128  21.541
    1STR   H12466190  44.702   0.271  21.461
    1STR   H12566191  44.726   0.271  21.635
    1STR   C12666192  45.001   0.248  21.641
    1STR   H12766193  45.003   0.139  21.651
    1STR   H12866194  45.104   0.280  21.621
    1STR   O12966195  44.953   0.309  21.761
    1STR   C13066196  45.025   0.275  21.879
    1STR   H13166197  45.048   0.169  21.880
    1STR   C13266198  45.155   0.357  21.886
    1STR   H13366199  45.135   0.464  21.879
    1STR   H13466200  45.224   0.331  21.805
    1STR   H13566201  45.207   0.339  21.980
    1STR   C13666202  44.933   0.306  21.998
    1STR   H13766203  44.910   0.412  22.001
    1STR   H13866204  44.839   0.252  21.985
    1STR   O13966205  44.998   0.265  22.119
    1STR   C14066206  44.924   0.292  22.238
    1STR   H14166207  44.880   0.392  22.234
    1STR   C14266208  44.814   0.186  22.257
    1STR   H14366209  44.856   0.085  22.256
    1STR   H14466210  44.739   0.192  22.179
    1STR   H14566211  44.763   0.200  22.352
    1STR   C14666212  45.025   0.289  22.355
    1STR   H14766213  45.070   0.190  22.363
    1STR   H14866214  45.105   0.359  22.334
    1STR   O14966215  44.958   0.325  22.476
    1STR   C15066216  45.039   0.322  22.593
    1STR   H15166217  45.103   0.233  22.593
    1STR   C15266218  45.126   0.449  22.599
    1STR   H15366219  45.064   0.539  22.594
    1STR   H15466220  45.198   0.454  22.518
    1STR   H15566221  45.182   0.453  22.692
    1STR   C15666222  44.945   0.313  22.714
    1STR   H15766223  44.881   0.401  22.718
    1STR   H15866224  44.880   0.226  22.701
    1STR   O15966225  45.022   0.300  22.833
    1STR   C16066226  44.946   0.295  22.953
    1STR   H16166227  44.865   0.369  22.951
    1STR   C16266228  44.887   0.154  22.972
    1STR   H16366229  44.966   0.078  22.970
    1STR   H16466230  44.815   0.129  22.895
    1STR   H16566231  44.836   0.146  23.068
    1STR   C16666232  45.040   0.332  23.069
    1STR   H16766233  45.121   0.259  23.075
    1STR   H16866234  45.086   0.429  23.047
    1STR   O16966235  44.967   0.337  23.191
    1STR   C17066236  45.044   0.367  23.307
    1STR   H17166237  45.138   0.311  23.305
    1STR   C17266238  45.073   0.518  23.313
    1STR   H17366239  44.980   0.575  23.310
    1STR   H17466240  45.136   0.551  23.231
    1STR   H17566241  45.124   0.543  23.406
    1STR   C17666242  44.963   0.320  23.428
    1STR   H17766243  44.869   0.375  23.434
    1STR   H17866244  44.938   0.214  23.416
    1STR   O17966245  45.040   0.338  23.547
    1STR   C18066246  44.975   0.302  23.668
    1STR   H18166247  44.872   0.338  23.667
    1STR   C18266248  44.978   0.150  23.686
    1STR   H18366249  45.080   0.112  23.682
    1STR   H18466250  44.920   0.098  23.609
    1STR   H18566251  44.936   0.121  23.782
    1STR   C18666252  45.049   0.373  23.783
    1STR   H18766253  45.152   0.339  23.787
    1STR   H18866254  45.051   0.481  23.762
    1STR   O18966255  44.981   0.348  23.905
    1STR   C19066256  45.042   0.405  24.021
    1STR   H19166257  45.150   0.391  24.017
    1STR   C19266258  45.008   0.555  24.029
    1STR   H19366259  44.901   0.571  24.028
    1STR   H19466260  45.052   0.612  23.946
    1STR   H19566261  45.047   0.598  24.121
    1STR   C19666262  44.989   0.329  24.143
    1STR   H19766263  44.881   0.342  24.151
    1STR   H19866264  45.007   0.223  24.130
    1STR   O19966265  45.054   0.377  24.261
    1STR   C20066266  45.010   0.317  24.382
    1STR   H20166267  44.901   0.308  24.383
    1STR   C20266268  45.075   0.178  24.398
    1STR   H20366269  45.183   0.184  24.393
    1STR   H20466270  45.041   0.108  24.322
    1STR   H20566271  45.049   0.134  24.495
    1STR   C20666272  45.051   0.411  24.497
    1STR   H20766273  45.160   0.421  24.500
    1STR   H20866274  45.011   0.510  24.477
    1STR   O20966275  45.001   0.360  24.620
    1STR   C21066276  45.036   0.436  24.735
    1STR   H21166277  45.141   0.466  24.731
    1STR   C21266278  44.946   0.560  24.746
    1STR   H21366279  44.840   0.532  24.746
    1STR   H21466280  44.962   0.629  24.663
    1STR   H21566281  44.965   0.614  24.838
    1STR   C21666282  45.019   0.344  24.858
    1STR   H21766283  44.915   0.313  24.867
    1STR   H21866284  45.079   0.254  24.843
    1STR   O21966285  45.062   0.413  24.975
    1STR   C22066286  45.048   0.340  25.096
    1STR   H22166287  44.952   0.288  25.099
    1STR   C22266288  45.163   0.238  25.110
    1STR   H22366289  45.260   0.287  25.103
    1STR   H22466290  45.159   0.161  25.033
    1STR   H22566291  45.158   0.188  25.206
    1STR   C22666292  45.050   0.442  25.211
    1STR   H22766293  45.145   0.494  25.213
    1STR   H22866294  44.972   0.517  25.194
    1STR   O22966295  45.026   0.374  25.335
    1STR   C23066296  45.029   0.457  25.450
    1STR   H23166297  45.113   0.527  25.445
    1STR   C23266298  44.897   0.534  25.463
    1STR   H23366299  44.812   0.466  25.464
    1STR   H23466300  44.882   0.605  25.382
    1STR   H23566301  44.895   0.592  25.556
    1STR   C23666302  45.053   0.366  25.572
    1STR   H23766303  44.970   0.295  25.582
    1STR   H23866304  45.143   0.307  25.555
    1STR   O23966305  45.066   0.445  25.689
    1STR   C24066306  45.085   0.372  25.810
    1STR   H24166307  45.017   0.286  25.813
    1STR   C24266308  45.230   0.325  25.821
    1STR   H24366309  45.300   0.409  25.814
    1STR   H24466310  45.256   0.253  25.743
    1STR   H24566311  45.248   0.276  25.917
    1STR   C24666312  45.047   0.465  25.926
    1STR   H24766313  45.114   0.552  25.928
    1STR   H24866314  44.946   0.503  25.910
    1STR   O24966315  45.055   0.394  26.049
    1STR   C25066316  45.026   0.470  26.166
    1STR   H25166317  45.075   0.568  26.160
    1STR   C25266318  44.874   0.488  26.181
    1STR   H25366319  44.823   0.392  26.182
    1STR   H25466320  44.831   0.547  26.100
    1STR   H25566321  44.850   0.539  26.274
    1STR   C25666322  45.086   0.395  26.286
    1STR   H25766323  45.038   0.297  26.296
    1STR   H25866324  45.192   0.377  26.267
    1STR   O25966325  45.068   0.472  26.404
    1STR   C26066326  45.116   0.412  26.524
    1STR   H26166327  45.088   0.306  26.526
    1STR   C26266328  45.269   0.427  26.532
    1STR   H26366329  45.299   0.531  26.525
    1STR   H26466330  45.320   0.371  26.453
    1STR   H26566331  45.306   0.388  26.627
    1STR   C26666332  45.046   0.482  26.641
    1STR   H26766333  45.073   0.588  26.643
    1STR   H26866334  44.938   0.476  26.627
    1STR   O26966335  45.084   0.419  26.764
    1STR   C27066336  45.029   0.477  26.881
    1STR   H27166337  45.034   0.586  26.876
    1STR   C27266338  44.883   0.432  26.898
    1STR   H27366339  44.875   0.323  26.899
    1STR   H27466340  44.818   0.470  26.819
    1STR   H27566341  44.842   0.469  26.993
    1STR   C27666342  45.115   0.431  27.000
    1STR   H27766343  45.111   0.322  27.009
    1STR   H27866344  45.219   0.457  26.980
    1STR   O27966345  45.070   0.494  27.119
    1STR   C28066346  45.140   0.457  27.238
    1STR   H28166347  45.157   0.349  27.240
    1STR   C28266348  45.274   0.531  27.245
    1STR   H28366349  45.260   0.639  27.238
    1STR   H28466350  45.342   0.502  27.165
    1STR   H28566351  45.325   0.511  27.339
    1STR   C28666352  45.050   0.492  27.357
    1STR   H28766353  45.031   0.600  27.359
    1STR   H28866354  44.953   0.444  27.344
    1STR   O28966355  45.111   0.449  27.478
    1STR   C29066356  45.039   0.480  27.597
    1STR   H29166357  45.001   0.582  27.593
    1STR   C29266358  44.923   0.381  27.615
    1STR   H29366359  44.960   0.278  27.615
    1STR   H29466360  44.848   0.390  27.537
    1STR   H29566361  44.873   0.397  27.711
    1STR   C29666362  45.139   0.472  27.714
    1STR   H29766363  45.179   0.371  27.722
    1STR   H29866364  45.223   0.538  27.693
    1STR   O29966365  45.074   0.511  27.835
    1STR   C30066366  45.154   0.504  27.952
    1STR   H30166367  45.214   0.412  27.951
    1STR   C30266368  45.247   0.626  27.959
    1STR   H30366369  45.190   0.719  27.955
    1STR   H30466370  45.320   0.628  27.878
    1STR   H30566371  45.303   0.627  28.053
    1STR   C30666372  45.060   0.497  28.073
    1STR   H30766373  45.001   0.589  28.080
    1STR   H30866374  44.989   0.415  28.058
    1STR   O30966375  45.136   0.477  28.192
    1STR    H1R66376  44.984   0.546  28.315
    1STR    H1S66377  44.942   0.319  28.418
    1STR    H1T66378  45.071   0.250  28.320
    1STR    H1U66379  44.924   0.310  28.245
    1STR    H1V66380  45.211   0.588  28.411
    1STR    H1W66381  45.238   0.417  28.429
    1STR    H1X66382  44.986   0.529  28.738
    1STR    H1Y66383  44.855   0.518  28.931
    1STR    H1Z66384  44.800   0.409  29.143
    1STR    H2066385  44.903   0.071  29.237
    1STR    H2166386  44.966   0.207  29.330
    1STR    H2266387  44.797   0.206  29.275
    1STR    H2366388  45.103  60.160  29.005
    1STR    H2766389  45.151   0.213  28.851
    1STR    H2866390  44.731   0.238  16.381
    1STR    H2966391  44.722   0.304  16.151
    1STR    H2A66392  44.995   0.285  15.912
    1STR    H2B66393  44.843   0.361  15.955
    1STR    H2C66394  44.841   0.199  15.885
    1STR   BCK166395  45.247  60.123  30.980
    1STR    O0366396  45.351  60.062  30.957
    1STR    N0466397  45.172  60.106  31.089
    1STR    C0566398  45.183  60.003  31.183
    1STR    C0666399  45.197  60.032  31.321
    1STR    C0766400  45.204  59.928  31.418
    1STR    N0866401  45.213  59.960  31.555
    1STR    C0966402  45.239  59.881  31.661
    1STR    O0A66403  45.267  59.762  31.654
    1STR    O0B66404  45.231  59.950  31.778
    1STR    C0C66405  45.263  59.884  31.901
    1STR    C0D66406  45.416  59.882  31.920
    1STR    C0E66407  45.192  59.952  32.021
    1STR    O0F66408  45.224  59.881  32.141
    1STR    C0G66409  45.165  59.930  32.261
    1STR    C0H66410  45.018  59.885  32.269
    1STR    C0I66411  45.246  59.877  32.381
    1STR    O0J66412  45.194  59.931  32.503
    1STR    C0K66413  44.844  59.785  43.344
    1STR    C0M66414  44.989  59.835  43.356
    1STR    C0N66415  44.754  59.843  43.454
    1STR    O0O66416  44.785  59.785  43.579
    1STR    C0P66417  44.861  59.849  43.668
    1STR    O0Q66418  44.910  59.961  43.655
    1STR    N0R66419  44.875  59.770  43.774
    1STR    C0S66420  44.944  59.783  43.894
    1STR    C0T66421  44.940  59.671  43.979
    1STR    C0U66422  45.011  59.669  44.099
    1STR    C0V66423  45.088  59.780  44.138
    1STR    C0W66424  45.173  59.767  44.263
    1STR    C0X66425  45.088  59.898  44.058
    1STR    N0Y66426  45.165  60.008  44.096
    1STR   BCK266427  45.160  60.071  44.214
    1STR    O1066428  45.068  60.061  44.294
    1STR    C1366429  45.018  59.897  43.935
    1STR    C1466430  45.196  59.794  31.373
    1STR    C1566431  45.181  59.765  31.236
    1STR    C1666432  45.172  59.868  31.141
    1STR    C1766433  45.145  59.830  30.996
    1STR    H1B66434  45.098   0.013  31.101
    1STR    H1C66435  45.203  60.135  31.352
    1STR    H1D66436  45.200  60.056  31.582
    1STR    H1E66437  45.226  59.781  31.897
    1STR    H1F66438  45.456  59.983  31.926
    1STR    H1G66439  45.443  59.829  32.012
    1STR    H1H66440  45.464  59.830  31.837
    1STR    H1I66441  45.085  59.951  32.003
    1STR    H1J66442  45.223  60.056  32.029
    1STR    H1K66443  45.170  60.039  32.263
    1STR    H1M66444  45.011  59.776  32.263
    1STR    H1N66445  44.957  59.927  32.190
    1STR    H1O66446  44.973  59.915  32.364
    1STR    H1P66447  45.242  59.768  32.383
    1STR    H1Q66448  45.350  59.905  32.369
    1STR   C01066449  45.257  59.885  32.623
    1STR   H01166450  45.271  59.777  32.620
    1STR   C01266451  45.392  59.956  32.641
    1STR   H01366452  45.381  60.064  32.641
    1STR   H01466453  45.464  59.929  32.564
    1STR   H01566454  45.437  59.929  32.737
    1STR   C01666455  45.162  59.916  32.741
    1STR   H01766456  45.145  60.024  32.747
    1STR   H01866457  45.065  59.870  32.722
    1STR   O01966458  45.217  59.868  32.864
    1STR   C02066459  45.139  59.894  32.981
    1STR   H02166460  45.102  59.997  32.979
    1STR   C02266461  45.021  59.796  32.988
    1STR   H02366462  45.056  59.693  32.986
    1STR   H02466463  44.951  59.810  32.907
    1STR   H02566464  44.966  59.810  33.081
    1STR   C02666465  45.231  59.880  33.104
    1STR   H02766466  45.270  59.778  33.110
    1STR   H02866467  45.317  59.946  33.092
    1STR   O02966468  45.159  59.913  33.223
    1STR   C03066469  45.232  59.900  33.345
    1STR   H03166470  45.289  59.807  33.344
    1STR   C03266471  45.326  60.020  33.362
    1STR   H03366472  45.271  60.114  33.359
    1STR   H03466473  45.404  60.023  33.286
    1STR   H03566474  45.376  60.015  33.459
    1STR   C03666475  45.130  59.892  33.460
    1STR   H03766476  45.071  59.983  33.464
    1STR   H03866477  45.060  59.810  33.440
    1STR   O03966478  45.198  59.870  33.583
    1STR   C04066479  45.115  59.864  33.699
    1STR   H04166480  45.040  59.944  33.695
    1STR   C04266481  45.045  59.727  33.708
    1STR   H04366482  45.118  59.646  33.707
    1STR   H04466483  44.976  59.711  33.625
    1STR   H04566484  44.988  59.719  33.800
    1STR   C04666485  45.204  59.890  33.822
    1STR   H04766486  45.279  59.811  33.830
    1STR   H04866487  45.257  59.984  33.809
    1STR   O04966488  45.123  59.894  33.940
    1STR   C05066489  45.195  59.913  34.062
    1STR   H05166490  45.284  59.850  34.063
    1STR   C05266491  45.233  60.061  34.078
    1STR   H05366492  45.145  60.125  34.072
    1STR   H05466493  45.303  60.094  34.001
    1STR   H05566494  45.280  60.078  34.174
    1STR   C05666495  45.103  59.866  34.177
    1STR   H05766496  45.013  59.927  34.180
    1STR   H05866497  45.072  59.763  34.158
    1STR   O05966498  45.174  59.875  34.300
    1STR   C06066499  45.099  59.838  34.416
    1STR   H06166500  44.999  59.881  34.411
    1STR   C06266501  45.091  59.685  34.427
    1STR   H06366502  45.190  59.640  34.427
    1STR   H06466503  45.035  59.641  34.345
    1STR   H06566504  45.041  59.655  34.519
    1STR   C06666505  45.170  59.899  34.538
    1STR   H06766506  45.270  59.857  34.548
    1STR   H06866507  45.181  60.006  34.523
    1STR   O06966508  45.093  59.873  34.656
    1STR   C07066509  45.150  59.920  34.777
    1STR   H07166510  45.258  59.899  34.780
    1STR   C07266511  45.126  60.072  34.791
    1STR   H07366512  45.020  60.095  34.784
    1STR   H07466513  45.179  60.129  34.714
    1STR   H07566514  45.162  60.108  34.887
    1STR   C07666515  45.084  59.843  34.893
    1STR   H07766516  44.977  59.863  34.895
    1STR   H07866517  45.097  59.736  34.875
    1STR   O07966518  45.145  59.881  35.016
    1STR   C08066519  45.090  59.819  35.132
    1STR   H08166520  44.981  59.818  35.126
    1STR   C08266521  45.144  59.675  35.145
    1STR   H08366522  45.253  59.674  35.146
    1STR   H08466523  45.110  59.611  35.064
    1STR   H08566524  45.109  59.629  35.238
    1STR   C08666525  45.130  59.905  35.253
    1STR   H08766526  45.239  59.907  35.263
    1STR   H08866527  45.097  60.007  35.236
    1STR   O08966528  45.069  59.852  35.371
    1STR   C09066529  45.102  59.920  35.492
    1STR   H09166530  45.208  59.943  35.494
    1STR   C09266531  45.019  60.049  35.502
    1STR   H09366532  44.912  60.029  35.495
    1STR   H09466533  45.045  60.121  35.425
    1STR   H09566534  45.037  60.099  35.598
    1STR   C09666535  45.071  59.824  35.608
    1STR   H09766536  44.965  59.800  35.609
    1STR   H09866537  45.125  59.731  35.592
    1STR   O09966538  45.111  59.885  35.731
    1STR   C10066539  45.084  59.808  35.848
    1STR   H10166540  44.985  59.763  35.842
    1STR   C10266541  45.191  59.698  35.863
    1STR   H10366542  45.291  59.740  35.864
    1STR   H10466543  45.186  59.625  35.782
    1STR   H10566544  45.176  59.643  35.956
    1STR   C10666545  45.086  59.904  35.967
    1STR   H10766546  45.184  59.950  35.977
    1STR   H10866547  45.015  59.985  35.948
    1STR   O10966548  45.050  59.833  36.086
    1STR   C11066549  45.051  59.911  36.205
    1STR   H11166550  45.140  59.975  36.208
    1STR   C11266551  44.924  59.996  36.214
    1STR   H11366552  44.835  59.934  36.207
    1STR   H11466553  44.919  60.071  36.135
    1STR   H11566554  44.919  60.050  36.308
    1STR   C11666555  45.061  59.813  36.323
    1STR   H11766556  44.973  59.748  36.325
    1STR   H11866557  45.148  59.749  36.309
    1STR   O11966558  45.072  59.886  36.445
    1STR   C12066559  45.078  59.806  36.563
    1STR   H12166560  45.005  59.726  36.558
    1STR   C12266561  45.219  59.749  36.580
    1STR   H12366562  45.294  59.828  36.581
    1STR   H12466563  45.245  59.678  36.501
    1STR   H12566564  45.227  59.694  36.675
    1STR   C12666565  45.040  59.897  36.681
    1STR   H12766566  45.112  59.978  36.691
    1STR   H12866567  44.943  59.943  36.661
    1STR   O12966568  45.034  59.820  36.801
    1STR   C13066569  45.004  59.893  36.919
    1STR   H13166570  45.059  59.987  36.920
    1STR   C13266571  44.853  59.920  36.926
    1STR   H13366572  44.796  59.827  36.919
    1STR   H13466573  44.819  59.986  36.845
    1STR   H13566574  44.826  59.969  37.020
    1STR   C13666575  45.051  59.808  37.038
    1STR   H13766576  44.996  59.714  37.041
    1STR   H13866577  45.156  59.784  37.025
    1STR   O13966578  45.031  59.882  37.159
    1STR   C14066579  45.067  59.813  37.278
    1STR   H14166580  45.032  59.709  37.274
    1STR   C14266581  45.220  59.816  37.297
    1STR   H14366582  45.257  59.919  37.296
    1STR   H14466583  45.272  59.761  37.219
    1STR   H14566584  45.248  59.771  37.392
    1STR   C14666585  44.995  59.882  37.395
    1STR   H14766586  45.028  59.986  37.403
    1STR   H14866587  44.888  59.885  37.374
    1STR   O14966588  45.020  59.811  37.516
    1STR   C15066589  44.962  59.868  37.633
    1STR   H15166590  44.975  59.976  37.633
    1STR   C15266591  44.812  59.833  37.639
    1STR   H15366592  44.797  59.725  37.634
    1STR   H15466593  44.756  59.878  37.558
    1STR   H15566594  44.768  59.868  37.732
    1STR   C15666595  45.038  59.811  37.753
    1STR   H15766596  45.026  59.702  37.758
    1STR   H15866597  45.144  59.830  37.741
    1STR   O15966598  44.990  59.872  37.873
    1STR   C16066599  45.049  59.825  37.993
    1STR   H16166600  45.059  59.716  37.991
    1STR   C16266601  45.188  59.889  38.012
    1STR   H16366602  45.181  59.998  38.010
    1STR   H16466603  45.258  59.858  37.935
    1STR   H16566604  45.231  59.860  38.108
    1STR   C16666605  44.955  59.861  38.109
    1STR   H16766606  44.944  59.970  38.115
    1STR   H16866607  44.856  59.821  38.087
    1STR   O16966608  45.005  59.808  38.231
    1STR   C17066609  44.928  59.838  38.347
    1STR   H17166610  44.897  59.943  38.345
    1STR   C17266611  44.805  59.746  38.353
    1STR   H17366612  44.834  59.641  38.350
    1STR   H17466613  44.736  59.764  38.271
    1STR   H17566614  44.750  59.763  38.446
    1STR   C17666615  45.020  59.818  38.468
    1STR   H17766616  45.052  59.714  38.474
    1STR   H17866617  45.110  59.879  38.456
    1STR   O17966618  44.950  59.857  38.587
    1STR   C18066619  45.023  59.839  38.708
    1STR   H18166620  45.075  59.743  38.707
    1STR   C18266621  45.124  59.954  38.726
    1STR   H18366622  45.074  60.051  38.722
    1STR   H18466623  45.201  59.953  38.649
    1STR   H18566624  45.174  59.946  38.822
    1STR   C18666625  44.920  59.837  38.822
    1STR   H18766626  44.867  59.932  38.827
    1STR   H18866627  44.846  59.760  38.802
    1STR   O18966628  44.987  59.810  38.945
    1STR   C19066629  44.903  59.809  39.061
    1STR   H19166630  44.833  59.892  39.057
    1STR   C19266631  44.827  59.676  39.069
    1STR   H19366632  44.895  59.591  39.068
    1STR   H19466633  44.757  59.663  38.986
    1STR   H19566634  44.769  59.670  39.161
    1STR   C19666635  44.994  59.828  39.183
    1STR   H19766636  45.065  59.746  39.191
    1STR   H19866637  45.053  59.919  39.170
    1STR   O19966638  44.914  59.838  39.301
    1STR   C20066639  44.987  59.853  39.422
    1STR   H20166640  45.073  59.785  39.423
    1STR   C20266641  45.033  59.998  39.438
    1STR   H20366642  44.949  60.067  39.433
    1STR   H20466643  45.105  60.027  39.362
    1STR   H20566644  45.082  60.013  39.535
    1STR   C20666645  44.893  59.811  39.537
    1STR   H20766646  44.806  59.877  39.540
    1STR   H20866647  44.856  59.710  39.517
    1STR   O20966648  44.964  59.815  39.660
    1STR   C21066649  44.887  59.782  39.776
    1STR   H21166650  44.790  59.830  39.771
    1STR   C21266651  44.871  59.629  39.786
    1STR   H21366652  44.968  59.579  39.786
    1STR   H21466653  44.812  59.589  39.703
    1STR   H21566654  44.819  59.602  39.878
    1STR   C21666655  44.962  59.838  39.898
    1STR   H21766656  45.060  59.791  39.907
    1STR   H21866657  44.979  59.945  39.882
    1STR   O21966658  44.884  59.816  40.015
    1STR   C22066659  44.943  59.861  40.136
    1STR   H22166660  45.049  59.834  40.139
    1STR   C22266661  44.927  60.013  40.150
    1STR   H22366662  44.823  60.042  40.143
    1STR   H22466663  44.982  60.067  40.073
    1STR   H22566664  44.965  60.047  40.246
    1STR   C22666665  44.873  59.787  40.251
    1STR   H22766666  44.767  59.813  40.253
    1STR   H22866667  44.880  59.679  40.233
    1STR   O22966668  44.936  59.821  40.375
    1STR   C23066669  44.878  59.761  40.490
    1STR   H23166670  44.769  59.766  40.485
    1STR   C23266671  44.924  59.615  40.503
    1STR   H23366672  45.032  59.608  40.504
    1STR   H23466673  44.887  59.553  40.421
    1STR   H23566674  44.886  59.571  40.596
    1STR   C23666675  44.922  59.845  40.612
    1STR   H23766676  45.031  59.841  40.622
    1STR   H23866677  44.896  59.949  40.595
    1STR   O23966678  44.859  59.795  40.729
    1STR   C24066679  44.895  59.862  40.850
    1STR   H24166680  45.003  59.879  40.853
    1STR   C24266681  44.819  59.995  40.861
    1STR   H24366682  44.711  59.980  40.854
    1STR   H24466683  44.848  60.066  40.783
    1STR   H24566684  44.839  60.043  40.957
    1STR   C24666685  44.859  59.767  40.966
    1STR   H24766686  44.752  59.749  40.967
    1STR   H24866687  44.908  59.671  40.950
    1STR   O24966688  44.903  59.825  41.089
    1STR   C25066689  44.872  59.750  41.205
    1STR   H25166690  44.770  59.711  41.199
    1STR   C25266691  44.972  59.634  41.220
    1STR   H25366692  45.075  59.671  41.222
    1STR   H25466693  44.964  59.561  41.140
    1STR   H25566694  44.955  59.580  41.314
    1STR   C25666695  44.879  59.846  41.325
    1STR   H25766696  44.980  59.886  41.335
    1STR   H25866697  44.813  59.930  41.306
    1STR   O25966698  44.839  59.777  41.443
    1STR   C26066699  44.845  59.854  41.563
    1STR   H26166700  44.937  59.913  41.565
    1STR   C26266701  44.722  59.946  41.572
    1STR   H26366702  44.630  59.889  41.565
    1STR   H26466703  44.721  60.021  41.493
    1STR   H26566704  44.721  59.999  41.667
    1STR   C26666705  44.849  59.755  41.680
    1STR   H26766706  44.758  59.695  41.682
    1STR   H26866707  44.932  59.686  41.665
    1STR   O26966708  44.865  59.827  41.802
    1STR   C27066709  44.866  59.747  41.919
    1STR   H27166710  44.788  59.670  41.914
    1STR   C27266711  45.003  59.681  41.937
    1STR   H27366712  45.083  59.756  41.938
    1STR   H27466713  45.026  59.610  41.858
    1STR   H27566714  45.008  59.626  42.031
    1STR   C27666715  44.832  59.839  42.037
    1STR   H27766716  44.909  59.916  42.047
    1STR   H27866717  44.738  59.890  42.017
    1STR   O27966718  44.822  59.762  42.156
    1STR   C28066719  44.796  59.836  42.275
    1STR   H28166720  44.857  59.927  42.276
    1STR   C28266721  44.647  59.872  42.283
    1STR   H28366722  44.585  59.783  42.276
    1STR   H28466723  44.617  59.940  42.203
    1STR   H28566724  44.624  59.922  42.377
    1STR   C28666725  44.839  59.749  42.393
    1STR   H28766726  44.780  59.657  42.396
    1STR   H28866727  44.943  59.719  42.380
    1STR   O28966728  44.824  59.822  42.514
    1STR   C29066729  44.856  59.751  42.632
    1STR   H29166730  44.815  59.649  42.628
    1STR   C29266731  45.008  59.746  42.652
    1STR   H29366732  45.051  59.846  42.652
    1STR   H29466733  45.058  59.689  42.573
    1STR   H29566734  45.034  59.699  42.747
    1STR   C29666735  44.787  59.824  42.748
    1STR   H29766736  44.826  59.925  42.757
    1STR   H29866737  44.680  59.833  42.726
    1STR   O29966738  44.807  59.751  42.868
    1STR   C30066739  44.753  59.813  42.984
    1STR   H30166740  44.771  59.921  42.982
    1STR   C30266741  44.602  59.784  42.993
    1STR   H30366742  44.582  59.677  42.991
    1STR   H30466743  44.547  59.831  42.912
    1STR   H30566744  44.561  59.824  43.086
    1STR   C30666745  44.828  59.756  43.105
    1STR   H30766746  44.807  59.650  43.116
    1STR   H30866747  44.935  59.767  43.089
    1STR   O30966748  44.787  59.829  43.221
    1STR    H1R66749  44.841  59.676  43.350
    1STR    H1S66750  45.033  59.804  43.451
    1STR    H1T66751  44.993  59.944  43.353
    1STR    H1U66752  45.053  59.797  43.277
    1STR    H1V66753  44.650  59.818  43.432
    1STR    H1W66754  44.758  59.952  43.457
    1STR    H1X66755  44.825  59.685  43.759
    1STR    H1Y66756  44.884  59.583  43.952
    1STR    H1Z66757  45.009  59.581  44.161
    1STR    H2066758  45.273  59.804  44.243
    1STR    H2166759  45.130  59.824  44.345
    1STR    H2266760  45.182  59.664  44.296
    1STR    H2366761  45.234  60.043  44.031
    1STR    H2766762  45.021  59.985  43.872
    1STR    H2866763  45.200  59.710  31.440
    1STR    H2966764  45.174  59.662  31.205
    1STR    H2A66765  45.075  59.899  30.950
    1STR    H2B66766  45.102  59.730  30.989
    1STR    H2C66767  45.238  59.830  30.939
    1STR   BCK166768  45.194   0.071  46.008
    1STR    O0366769  45.133   0.168  45.965
    1STR    N0466770  45.241   0.059  46.133
    1STR    C0566771  45.257   0.161  46.227
    1STR    C0666772  45.217   0.142  46.362
    1STR    C0766773  45.240   0.241  46.461
    1STR    N0866774  45.206   0.217  46.595
    1STR    C0966775  45.239   0.285  46.706
    1STR    O0A66776  45.308   0.386  46.708
    1STR    O0B66777  45.187   0.229  46.819
    1STR    C0C66778  45.203   0.296  46.945
    1STR    C0D66779  45.090   0.399  46.959
    1STR    C0E66780  45.206   0.198  47.063
    1STR    O0F66781  45.229   0.272  47.183
    1STR    C0G66782  45.241   0.196  47.304
    1STR    C0H66783  45.380   0.133  47.311
    1STR    C0I66784  45.217   0.291  47.423
    1STR    O0J66785  45.219   0.217  47.545
    1STR    C0K66786  45.591   0.104  58.382
    1STR    C0M66787  45.446   0.152  58.399
    1STR    C0N66788  45.636   0.010  58.495
    1STR    O0O66789  45.648   0.081  58.618
    1STR    C0P66790  45.550   0.076  58.708
    1STR    O0Q66791  45.447   0.010  58.697
    1STR    N0R66792  45.582   0.153  58.812
    1STR    C0S66793  45.512   0.180  58.929
    1STR    C0T66794  45.555   0.289  59.008
    1STR    C0U66795  45.488   0.321  59.128
    1STR    C0V66796  45.378   0.245  59.172
    1STR    C0W66797  45.306   0.283  59.300
    1STR    C0X66798  45.336   0.133  59.096
    1STR    N0Y66799  45.231   0.053  59.138
    1STR   BCK266800  45.233  60.124  59.236
    1STR    O1066801  45.132  60.059  59.264
    1STR    C1366802  45.402   0.103  58.975
    1STR    C1466803  45.301   0.362  46.420
    1STR    C1566804  45.345   0.381  46.288
    1STR    C1666805  45.327   0.280  46.192
    1STR    C1766806  45.389   0.302  46.055
    1STR    H1B66807  45.277  60.128  46.156
    1STR    H1C66808  45.167   0.050  46.388
    1STR    H1D66809  45.150   0.136  46.616
    1STR    H1E66810  45.298   0.349  46.946
    1STR    H1F66811  44.992   0.352  46.961
    1STR    H1G66812  45.101   0.456  47.052
    1STR    H1H66813  45.091   0.471  46.877
    1STR    H1I66814  45.285   0.125  47.047
    1STR    H1J66815  45.112   0.142  47.070
    1STR    H1K66816  45.164   0.119  47.306
    1STR    H1M66817  45.458   0.208  47.304
    1STR    H1N66818  45.397   0.060  47.232
    1STR    H1O66819  45.394   0.080  47.406
    1STR    H1P66820  45.293   0.369  47.424
    1STR    H1Q66821  45.121   0.341  47.410
    1STR   C01066822  45.204   0.294  47.665
    1STR   H01166823  45.267   0.383  47.660
    1STR   C01266824  45.057   0.334  47.683
    1STR   H01366825  44.992   0.246  47.683
    1STR   H01466826  45.022   0.402  47.605
    1STR   H01566827  45.042   0.385  47.778
    1STR   C01666828  45.253   0.207  47.782
    1STR   H01766829  45.193   0.117  47.789
    1STR   H01866830  45.356   0.176  47.763
    1STR   O01966831  45.246   0.281  47.905
    1STR   C02066832  45.286   0.209  48.022
    1STR   H02166833  45.243   0.108  48.020
    1STR   C02266834  45.439   0.202  48.029
    1STR   H02366835  45.483   0.301  48.026
    1STR   H02466836  45.481   0.144  47.947
    1STR   H02566837  45.471   0.154  48.122
    1STR   C02666838  45.228   0.282  48.145
    1STR   H02766839  45.268   0.383  48.151
    1STR   H02866840  45.120   0.291  48.133
    1STR   O02966841  45.258   0.208  48.263
    1STR   C03066842  45.213   0.267  48.385
    1STR   H03166843  45.234   0.375  48.385
    1STR   C03266844  45.063   0.243  48.403
    1STR   H03366845  45.040   0.136  48.399
    1STR   H03466846  45.003   0.293  48.327
    1STR   H03566847  45.029   0.280  48.500
    1STR   C03666848  45.294   0.204  48.500
    1STR   H03766849  45.275   0.097  48.505
    1STR   H03866850  45.401   0.217  48.480
    1STR   O03966851  45.259   0.267  48.624
    1STR   C04066852  45.324   0.214  48.740
    1STR   H04166853  45.325   0.105  48.736
    1STR   C04266854  45.467   0.269  48.748
    1STR   H04366855  45.468   0.378  48.747
    1STR   H04466856  45.530   0.234  48.666
    1STR   H04566857  45.515   0.236  48.840
    1STR   C04666858  45.241   0.256  48.862
    1STR   H04766859  45.238   0.365  48.870
    1STR   H04866860  45.138   0.222  48.849
    1STR   O04966861  45.297   0.199  48.980
    1STR   C05066862  45.232   0.233  49.102
    1STR   H05166863  45.208   0.339  49.103
    1STR   C05266864  45.104   0.150  49.118
    1STR   H05366865  45.125   0.043  49.112
    1STR   H05466866  45.030   0.173  49.042
    1STR   H05566867  45.057   0.169  49.215
    1STR   C05666868  45.331   0.206  49.217
    1STR   H05766869  45.356   0.099  49.220
    1STR   H05866870  45.423   0.260  49.198
    1STR   O05966871  45.273   0.247  49.341
    1STR   C06066872  45.353   0.223  49.456
    1STR   H06166873  45.398   0.124  49.451
    1STR   C06266874  45.463   0.331  49.467
    1STR   H06366875  45.420   0.431  49.467
    1STR   H06466876  45.534   0.325  49.385
    1STR   H06566877  45.519   0.319  49.559
    1STR   C06666878  45.260   0.227  49.578
    1STR   H06766879  45.214   0.325  49.588
    1STR   H06866880  45.179   0.155  49.563
    1STR   O06966881  45.334   0.194  49.696
    1STR   C07066882  45.259   0.198  49.817
    1STR   H07166883  45.195   0.286  49.820
    1STR   C07266884  45.175   0.070  49.831
    1STR   H07366885  45.237  60.141  49.824
    1STR   H07466886  45.098   0.063  49.754
    1STR   H07566887  45.124   0.067  49.927
    1STR   C07666888  45.360   0.210  49.933
    1STR   H07766889  45.426   0.123  49.935
    1STR   H07866890  45.424   0.297  49.915
    1STR   O07966891  45.290   0.223  50.056
    1STR   C08066892  45.373   0.231  50.172
    1STR   H08166893  45.454   0.158  50.166
    1STR   C08266894  45.430   0.373  50.185
    1STR   H08366895  45.351   0.448  50.187
    1STR   H08466896  45.498   0.398  50.104
    1STR   H08566897  45.487   0.384  50.278
    1STR   C08666898  45.285   0.195  50.293
    1STR   H08766899  45.204   0.267  50.303
    1STR   H08866900  45.240   0.097  50.276
    1STR   O08966901  45.366   0.193  50.411
    1STR   C09066902  45.296   0.164  50.532
    1STR   H09166903  45.201   0.219  50.534
    1STR   C09266904  45.269   0.013  50.542
    1STR   H09366905  45.362  60.117  50.535
    1STR   H09466906  45.202  60.138  50.465
    1STR   H09566907  45.223  60.149  50.638
    1STR   C09666908  45.383   0.214  50.648
    1STR   H09766909  45.478   0.160  50.649
    1STR   H09866910  45.406   0.320  50.632
    1STR   O09966911  45.313   0.197  50.771
    1STR   C10066912  45.384   0.236  50.888
    1STR   H10166913  45.488   0.201  50.882
    1STR   C10266914  45.380   0.388  50.903
    1STR   H10366915  45.277   0.425  50.904
    1STR   H10466916  45.433   0.439  50.822
    1STR   H10566917  45.427   0.419  50.996
    1STR   C10666918  45.318   0.165  51.007
    1STR   H10766919  45.215   0.198  51.017
    1STR   H10866920  45.316   0.058  50.989
    1STR   O10966921  45.392   0.194  51.126
    1STR   C11066922  45.339   0.137  51.245
    1STR   H11166923  45.230   0.150  51.248
    1STR   C11266924  45.375  60.148  51.254
    1STR   H11366925  45.483  60.134  51.247
    1STR   H11466926  45.328  60.090  51.175
    1STR   H11566927  45.342  60.106  51.349
    1STR   C11666928  45.398   0.216  51.363
    1STR   H11766929  45.507   0.205  51.365
    1STR   H11866930  45.377   0.322  51.349
    1STR   O11966931  45.340   0.170  51.485
    1STR   C12066932  45.390   0.232  51.603
    1STR   H12166933  45.499   0.242  51.598
    1STR   C12266934  45.325   0.371  51.620
    1STR   H12366935  45.216   0.363  51.621
    1STR   H12466936  45.353   0.440  51.541
    1STR   H12566937  45.355   0.416  51.715
    1STR   C12666938  45.357   0.140  51.721
    1STR   H12766939  45.249   0.129  51.731
    1STR   H12866940  45.398   0.041  51.701
    1STR   O12966941  45.413   0.193  51.841
    1STR   C13066942  45.386   0.118  51.959
    1STR   H13166943  45.282   0.086  51.960
    1STR   C13266944  45.479  60.156  51.966
    1STR   H13366945  45.584   0.026  51.960
    1STR   H13466946  45.459  60.085  51.885
    1STR   H13566947  45.465  60.103  52.060
    1STR   C13666948  45.408   0.212  52.078
    1STR   H13766949  45.512   0.245  52.081
    1STR   H13866950  45.347   0.302  52.065
    1STR   O13966951  45.373   0.145  52.199
    1STR   C14066952  45.393   0.220  52.318
    1STR   H14166953  45.489   0.273  52.314
    1STR   C14266954  45.279   0.321  52.337
    1STR   H14366955  45.182   0.270  52.336
    1STR   H14466956  45.277   0.396  52.259
    1STR   H14566957  45.288   0.373  52.432
    1STR   C14666958  45.400   0.120  52.435
    1STR   H14766959  45.305   0.066  52.443
    1STR   H14866960  45.477   0.046  52.414
    1STR   O14966961  45.429   0.190  52.556
    1STR   C15066962  45.434   0.109  52.673
    1STR   H15166963  45.351   0.038  52.673
    1STR   C15266964  45.568   0.034  52.679
    1STR   H15366965  45.652   0.103  52.674
    1STR   H15466966  45.579  60.122  52.598
    1STR   H15566967  45.576  60.138  52.772
    1STR   C15666968  45.416   0.202  52.794
    1STR   H15766969  45.499   0.274  52.798
    1STR   H15866970  45.324   0.259  52.781
    1STR   O15966971  45.411   0.124  52.913
    1STR   C16066972  45.398   0.199  53.033
    1STR   H16166973  45.465   0.286  53.031
    1STR   C16266974  45.253   0.245  53.052
    1STR   H16366975  45.184   0.160  53.050
    1STR   H16466976  45.222   0.315  52.975
    1STR   H16566977  45.240   0.295  53.148
    1STR   C16666978  45.444   0.108  53.149
    1STR   H16766979  45.378   0.021  53.155
    1STR   H16866980  45.544   0.072  53.127
    1STR   O16966981  45.442   0.182  53.271
    1STR   C17066982  45.479   0.108  53.387
    1STR   H17166983  45.431   0.010  53.385
    1STR   C17266984  45.631   0.093  53.393
    1STR   H17366985  45.681   0.190  53.390
    1STR   H17466986  45.670   0.032  53.311
    1STR   H17566987  45.661   0.043  53.486
    1STR   C17666988  45.425   0.184  53.509
    1STR   H17766989  45.471   0.283  53.514
    1STR   H17866990  45.318   0.200  53.496
    1STR   O17966991  45.450   0.109  53.627
    1STR   C18066992  45.408   0.171  53.748
    1STR   H18166993  45.435   0.277  53.747
    1STR   C18266994  45.257   0.154  53.766
    1STR   H18366995  45.228   0.049  53.762
    1STR   H18466996  45.200   0.208  53.689
    1STR   H18566997  45.224   0.194  53.862
    1STR   C18666998  45.486   0.104  53.863
    1STR   H18766999  45.460  60.158  53.867
    1STR   H18867000  45.593   0.110  53.842
    1STR   O18967001  45.454   0.169  53.985
    1STR   C19067002  45.517   0.113  54.101
    1STR   H19167003  45.512   0.004  54.097
    1STR   C19267004  45.663   0.160  54.109
    1STR   H19367005  45.670   0.268  54.108
    1STR   H19467006  45.723   0.121  54.026
    1STR   H19567007  45.710   0.125  54.201
    1STR   C19667008  45.436   0.160  54.223
    1STR   H19767009  45.440   0.268  54.231
    1STR   H19867010  45.332   0.132  54.210
    1STR   O19967011  45.489   0.099  54.341
    1STR   C20067012  45.426   0.137  54.462
    1STR   H20167013  45.407   0.244  54.463
    1STR   C20267014  45.293   0.060  54.478
    1STR   H20367015  45.309  60.113  54.473
    1STR   H20467016  45.221   0.088  54.402
    1STR   H20567017  45.248   0.082  54.575
    1STR   C20667018  45.523   0.104  54.577
    1STR   H20767019  45.542  60.157  54.580
    1STR   H20867020  45.618   0.154  54.557
    1STR   O20967021  45.468   0.149  54.700
    1STR   C21067022  45.547   0.122  54.815
    1STR   H21167023  45.586   0.020  54.811
    1STR   C21267024  45.662   0.223  54.825
    1STR   H21367025  45.625   0.325  54.826
    1STR   H21467026  45.733   0.213  54.743
    1STR   H21567027  45.718   0.208  54.918
    1STR   C21667028  45.454   0.130  54.938
    1STR   H21767029  45.414   0.231  54.947
    1STR   H21867030  45.369   0.063  54.923
    1STR   O21967031  45.526   0.094  55.055
    1STR   C22067032  45.452   0.101  55.176
    1STR   H22167033  45.393   0.193  55.179
    1STR   C22267034  45.361  60.138  55.190
    1STR   H22367035  45.419  60.046  55.183
    1STR   H22467036  45.284  60.135  55.113
    1STR   H22567037  45.310  60.138  55.286
    1STR   C22667038  45.554   0.109  55.291
    1STR   H22767039  45.615   0.018  55.293
    1STR   H22867040  45.622   0.192  55.273
    1STR   O22967041  45.485   0.126  55.415
    1STR   C23067042  45.568   0.130  55.530
    1STR   H23167043  45.645   0.053  55.524
    1STR   C23267044  45.633   0.269  55.543
    1STR   H23367045  45.558   0.348  55.544
    1STR   H23467046  45.702   0.289  55.462
    1STR   H23567047  45.690   0.276  55.636
    1STR   C23667048  45.479   0.099  55.651
    1STR   H23767049  45.401   0.175  55.662
    1STR   H23867050  45.428   0.004  55.635
    1STR   O23967051  45.559   0.092  55.769
    1STR   C24067052  45.488   0.068  55.890
    1STR   H24167053  45.396   0.127  55.892
    1STR   C24267054  45.453  60.078  55.901
    1STR   H24367055  45.543  60.017  55.894
    1STR   H24467056  45.384  60.046  55.823
    1STR   H24567057  45.406  60.057  55.997
    1STR   C24667058  45.577   0.113  56.006
    1STR   H24767059  45.669   0.054  56.007
    1STR   H24867060  45.606   0.217  55.990
    1STR   O24967061  45.506   0.100  56.128
    1STR   C25067062  45.580   0.135  56.245
    1STR   H25167063  45.682   0.095  56.239
    1STR   C25267064  45.584   0.288  56.260
    1STR   H25367065  45.484   0.330  56.262
    1STR   H25467066  45.640   0.336  56.180
    1STR   H25567067  45.633   0.316  56.354
    1STR   C25667068  45.510   0.068  56.365
    1STR   H25767069  45.409   0.107  56.375
    1STR   H25867070  45.502  60.121  56.346
    1STR   O25967071  45.586   0.093  56.483
    1STR   C26067072  45.530   0.040  56.602
    1STR   H26167073  45.422   0.058  56.605
    1STR   C26267074  45.558  60.049  56.611
    1STR   H26367075  45.665  60.028  56.604
    1STR   H26467076  45.508  59.993  56.533
    1STR   H26567077  45.523  60.009  56.707
    1STR   C26667078  45.594   0.116  56.720
    1STR   H26767079  45.701   0.098  56.721
    1STR   H26867080  45.579   0.223  56.705
    1STR   O26967081  45.533   0.073  56.841
    1STR   C27067082  45.587   0.133  56.959
    1STR   H27167083  45.696   0.137  56.954
    1STR   C27267084  45.530   0.274  56.977
    1STR   H27367085  45.421   0.273  56.978
    1STR   H27467086  45.561   0.342  56.897
    1STR   H27567087  45.563   0.318  57.071
    1STR   C27667088  45.549   0.042  57.077
    1STR   H27767089  45.440   0.037  57.087
    1STR   H27867090  45.584  60.101  57.057
    1STR   O27967091  45.608   0.092  57.196
    1STR   C28067092  45.577   0.020  57.314
    1STR   H28167093  45.471  60.154  57.316
    1STR   C28267094  45.663  60.053  57.322
    1STR   H28367095  45.769  60.077  57.316
    1STR   H28467096  45.640  59.982  57.242
    1STR   H28567097  45.647  60.001  57.416
    1STR   C28667098  45.604   0.114  57.432
    1STR   H28767099  45.710   0.141  57.435
    1STR   H28867100  45.548   0.206  57.419
    1STR   O28967101  45.566   0.049  57.553
    1STR   C29067102  45.591   0.123  57.672
    1STR   H29167103  45.689   0.170  57.667
    1STR   C29267104  45.482   0.229  57.691
    1STR   H29367105  45.383   0.184  57.692
    1STR   H29467106  45.484   0.305  57.613
    1STR   H29567107  45.495   0.281  57.786
    1STR   C29667108  45.593   0.022  57.787
    1STR   H29767109  45.495  60.134  57.797
    1STR   H29867110  45.665  60.103  57.766
    1STR   O29967111  45.628   0.090  57.907
    1STR   C30067112  45.627   0.009  58.024
    1STR   H30167113  45.540  60.103  58.024
    1STR   C30267114  45.756  60.087  58.032
    1STR   H30367115  45.844  60.151  58.028
    1STR   H30467116  45.764  60.015  57.951
    1STR   H30567117  45.761  60.031  58.125
    1STR   C30667118  45.613   0.105  58.143
    1STR   H30767119  45.699   0.172  58.147
    1STR   H30867120  45.525   0.167  58.129
    1STR   O30967121  45.603   0.028  58.262
    1STR    H1R67122  45.660   0.189  58.379
    1STR    H1S67123  45.434   0.208  58.492
    1STR    H1T67124  45.377   0.068  58.403
    1STR    H1U67125  45.415   0.218  58.318
    1STR    H1V67126  45.734  60.129  58.472
    1STR    H1W67127  45.569  60.084  58.504
    1STR    H1X67128  45.670   0.199  58.797
    1STR    H1Y67129  45.639   0.349  58.978
    1STR    H1Z67130  45.522   0.405  59.187
    1STR    H2067131  45.198   0.270  59.289
    1STR    H2167132  45.339   0.220  59.382
    1STR    H2267133  45.324   0.387  59.327
    1STR    H2367134  45.145   0.055  59.085
    1STR    H2767135  45.368   0.017  58.919
    1STR    H2867136  45.319   0.444  46.488
    1STR    H2967137  45.395   0.473  46.262
    1STR    H2A67138  45.428   0.209  46.014
    1STR    H2B67139  45.473   0.371  46.060
    1STR    H2C67140  45.316   0.343  45.986
    1STR   BCK167141  45.126  15.039   0.895
    1STR    O0367142  45.110  14.927   0.847
    1STR    N0467143  45.077  15.080   1.012
    1STR    C0567144  44.983  15.018   1.096
    1STR    C0667145  45.009  15.006   1.236
    1STR    C0767146  44.912  14.956   1.327
    1STR    N0867147  44.940  14.950   1.466
    1STR    C0967148  44.862  14.915   1.570
    1STR    O0A67149  44.746  14.879   1.561
    1STR    O0B67150  44.928  14.925   1.689
    1STR    C0C67151  44.862  14.884   1.811
    1STR    C0D67152  44.871  14.731   1.825
    1STR    C0E67153  44.922  14.955   1.934
    1STR    O0F67154  44.853  14.914   2.054
    1STR    C0G67155  44.896  14.976   2.176
    1STR    C0H67156  44.837  15.118   2.185
    1STR    C0I67157  44.850  14.890   2.296
    1STR    O0J67158  44.898  14.946   2.418
    1STR    C0K67159  44.717  15.276  13.274
    1STR    C0M67160  44.785  15.139  13.283
    1STR    C0N67161  44.760  15.368  13.390
    1STR    O0O67162  44.711  15.319  13.515
    1STR    C0P67163  44.793  15.260  13.604
    1STR    O0Q67164  44.913  15.240  13.587
    1STR    N0R67165  44.723  15.228  13.712
    1STR    C0S67166  44.759  15.163  13.831
    1STR    C0T67167  44.655  15.136  13.922
    1STR    C0U67168  44.681  15.068  14.043
    1STR    C0V67169  44.811  15.025  14.075
    1STR    C0W67170  44.830  14.944  14.202
    1STR    C0X67171  44.918  15.056  13.987
    1STR    N0Y67172  45.049  15.014  14.013
    1STR   BCK267173  45.122  15.032  14.123
    1STR    O1067174  45.087  15.100  14.219
    1STR    C1367175  44.890  15.123  13.865
    1STR    C1467176  44.788  14.915   1.273
    1STR    C1567177  44.761  14.926   1.136
    1STR    C1667178  44.856  14.979   1.047
    1STR    C1767179  44.815  14.999   0.902
    1STR    H1B67180  45.110  15.170   1.041
    1STR    H1C67181  45.105  15.038   1.273
    1STR    H1D67182  45.033  14.976   1.496
    1STR    H1E67183  44.757  14.913   1.806
    1STR    H1F67184  44.975  14.698   1.831
    1STR    H1G67185  44.820  14.698   1.915
    1STR    H1H67186  44.824  14.681   1.741
    1STR    H1I67187  44.913  15.063   1.920
    1STR    H1J67188  45.029  14.933   1.943
    1STR    H1K67189  45.005  14.981   2.179
    1STR    H1M67190  44.728  15.115   2.179
    1STR    H1N67191  44.874  15.183   2.107
    1STR    H1O67192  44.863  15.164   2.280
    1STR    H1P67193  44.741  14.883   2.297
    1STR    H1Q67194  44.887  14.788   2.283
    1STR   C01067195  44.858  14.880   2.539
    1STR   H01167196  44.752  14.856   2.535
    1STR   C01267197  44.940  14.751   2.557
    1STR   H01367198  45.047  14.772   2.557
    1STR   H01467199  44.920  14.678   2.479
    1STR   H01567200  44.916  14.704   2.652
    1STR   C01667201  44.881  14.977   2.657
    1STR   H01767202  44.986  15.004   2.663
    1STR   H01867203  44.825  15.069   2.638
    1STR   O01967204  44.837  14.917   2.780
    1STR   C02067205  44.857  14.997   2.897
    1STR   H02167206  44.956  15.043   2.895
    1STR   C02267207  44.749  15.106   2.905
    1STR   H02367208  44.649  15.063   2.903
    1STR   H02467209  44.757  15.178   2.824
    1STR   H02567210  44.758  15.163   2.998
    1STR   C02667211  44.851  14.905   3.021
    1STR   H02767212  44.753  14.857   3.027
    1STR   H02867213  44.924  14.825   3.010
    1STR   O02967214  44.877  14.980   3.140
    1STR   C03067215  44.870  14.906   3.263
    1STR   H03167216  44.783  14.841   3.262
    1STR   C03267217  44.998  14.823   3.281
    1STR   H03367218  45.087  14.886   3.277
    1STR   H03467219  45.008  14.746   3.205
    1STR   H03567220  44.998  14.772   3.378
    1STR   C03667221  44.853  15.007   3.378
    1STR   H03767222  44.939  15.074   3.382
    1STR   H03867223  44.766  15.069   3.358
    1STR   O03967224  44.838  14.937   3.502
    1STR   C04067225  44.825  15.020   3.618
    1STR   H04167226  44.898  15.101   3.614
    1STR   C04267227  44.683  15.077   3.627
    1STR   H04367228  44.609  14.997   3.626
    1STR   H04467229  44.660  15.144   3.544
    1STR   H04567230  44.670  15.133   3.719
    1STR   C04667231  44.858  14.933   3.741
    1STR   H04767232  44.787  14.851   3.749
    1STR   H04867233  44.957  14.889   3.728
    1STR   O04967234  44.855  15.014   3.859
    1STR   C05067235  44.880  14.944   3.981
    1STR   H05167236  44.826  14.849   3.982
    1STR   C05267237  45.031  14.919   3.997
    1STR   H05367238  45.087  15.012   3.991
    1STR   H05467239  45.070  14.851   3.921
    1STR   H05567240  45.052  14.873   4.094
    1STR   C05667241  44.826  15.031   4.096
    1STR   H05767242  44.879  15.126   4.099
    1STR   H05867243  44.721  15.053   4.077
    1STR   O05967244  44.841  14.961   4.220
    1STR   C06067245  44.798  15.033   4.335
    1STR   H06167246  44.831  15.136   4.330
    1STR   C06267247  44.644  15.028   4.346
    1STR   H06367248  44.608  14.925   4.347
    1STR   H06467249  44.595  15.080   4.264
    1STR   H06567250  44.611  15.075   4.439
    1STR   C06667251  44.864  14.967   4.458
    1STR   H06767252  44.832  14.864   4.467
    1STR   H06867253  44.972  14.966   4.443
    1STR   O06967254  44.831  15.041   4.575
    1STR   C07067255  44.884  14.989   4.697
    1STR   H07167256  44.872  14.880   4.699
    1STR   C07267257  45.032  15.026   4.710
    1STR   H07367258  45.047  15.134   4.703
    1STR   H07467259  45.094  14.979   4.634
    1STR   H07567260  45.072  14.994   4.807
    1STR   C07667261  44.801  15.048   4.812
    1STR   H07767262  44.811  15.156   4.814
    1STR   H07867263  44.696  15.026   4.795
    1STR   O07967264  44.844  14.991   4.936
    1STR   C08067265  44.777  15.040   5.052
    1STR   H08167266  44.767  15.149   5.046
    1STR   C08267267  44.639  14.974   5.065
    1STR   H08367268  44.647  14.866   5.066
    1STR   H08467269  44.572  15.002   4.983
    1STR   H08567270  44.590  15.005   5.158
    1STR   C08667271  44.866  15.008   5.173
    1STR   H08767272  44.878  14.900   5.183
    1STR   H08867273  44.966  15.049   5.156
    1STR   O08967274  44.808  15.064   5.291
    1STR   C09067275  44.879  15.037   5.411
    1STR   H09167276  44.912  14.933   5.414
    1STR   C09267277  45.001  15.131   5.422
    1STR   H09367278  44.971  15.236   5.415
    1STR   H09467279  45.075  15.112   5.344
    1STR   H09567280  45.051  15.118   5.518
    1STR   C09667281  44.781  15.059   5.528
    1STR   H09767282  44.748  15.163   5.529
    1STR   H09867283  44.693  14.997   5.512
    1STR   O09967284  44.845  15.025   5.651
    1STR   C10067285  44.766  15.045   5.767
    1STR   H10167286  44.713  15.140   5.761
    1STR   C10267287  44.666  14.929   5.783
    1STR   H10367288  44.717  14.833   5.784
    1STR   H10467289  44.592  14.927   5.702
    1STR   H10567290  44.610  14.939   5.876
    1STR   C10667291  44.862  15.052   5.887
    1STR   H10767292  44.916  14.958   5.897
    1STR   H10867293  44.937  15.129   5.868
    1STR   O10967294  44.789  15.081   6.006
    1STR   C11067295  44.866  15.087   6.125
    1STR   H11167296  44.937  15.004   6.128
    1STR   C11267297  44.940  15.221   6.133
    1STR   H11367298  44.870  15.305   6.126
    1STR   H11467299  45.014  15.232   6.055
    1STR   H11567300  44.993  15.230   6.228
    1STR   C11667301  44.769  15.068   6.243
    1STR   H11767302  44.697  15.150   6.245
    1STR   H11867303  44.713  14.976   6.229
    1STR   O11967304  44.843  15.064   6.365
    1STR   C12067305  44.764  15.051   6.483
    1STR   H12167306  44.677  15.117   6.478
    1STR   C12267307  44.719  14.905   6.500
    1STR   H12367308  44.804  14.837   6.501
    1STR   H12467309  44.651  14.873   6.421
    1STR   H12567310  44.666  14.892   6.595
    1STR   C12667311  44.851  15.097   6.601
    1STR   H12767312  44.938  15.032   6.611
    1STR   H12867313  44.888  15.198   6.581
    1STR   O12967314  44.773  15.095   6.721
    1STR   C13067315  44.844  15.132   6.839
    1STR   H13167316  44.942  15.085   6.840
    1STR   C13267317  44.858  15.285   6.846
    1STR   H13367318  44.761  15.334   6.839
    1STR   H13467319  44.920  15.325   6.766
    1STR   H13567320  44.904  15.316   6.940
    1STR   C13667321  44.764  15.078   6.958
    1STR   H13767322  44.665  15.124   6.961
    1STR   H13867323  44.749  14.971   6.945
    1STR   O13967324  44.835  15.104   7.079
    1STR   C14067325  44.769  15.062   7.198
    1STR   H14167326  44.663  15.088   7.194
    1STR   C14267327  44.786  14.911   7.217
    1STR   H14367328  44.892  14.882   7.216
    1STR   H14467329  44.736  14.854   7.139
    1STR   H14567330  44.744  14.879   7.312
    1STR   C14667331  44.833  15.140   7.315
    1STR   H14767332  44.939  15.116   7.323
    1STR   H14867333  44.826  15.247   7.294
    1STR   O14967334  44.764  15.109   7.436
    1STR   C15067335  44.815  15.172   7.553
    1STR   H15167336  44.924  15.168   7.553
    1STR   C15267337  44.767  15.318   7.559
    1STR   H15367338  44.659  15.324   7.554
    1STR   H15467339  44.808  15.378   7.478
    1STR   H15567340  44.799  15.365   7.652
    1STR   C15667341  44.765  15.091   7.674
    1STR   H15767342  44.656  15.094   7.678
    1STR   H15867343  44.794  14.987   7.661
    1STR   O15967344  44.822  15.145   7.793
    1STR   C16067345  44.780  15.081   7.913
    1STR   H16167346  44.672  15.062   7.911
    1STR   C16267347  44.856  14.949   7.932
    1STR   H16367348  44.964  14.966   7.930
    1STR   H16467349  44.832  14.876   7.855
    1STR   H16567350  44.832  14.904   8.028
    1STR   C16667351  44.808  15.179   8.029
    1STR   H16767352  44.915  15.199   8.035
    1STR   H16867353  44.759  15.274   8.007
    1STR   O16967354  44.759  15.124   8.151
    1STR   C17067355  44.783  15.203   8.267
    1STR   H17167356  44.884  15.243   8.265
    1STR   C17267357  44.681  15.317   8.273
    1STR   H17367358  44.579  15.279   8.270
    1STR   H17467359  44.692  15.388   8.191
    1STR   H17567360  44.692  15.374   8.366
    1STR   C17667361  44.771  15.110   8.389
    1STR   H17767362  44.670  15.069   8.394
    1STR   H17867363  44.839  15.026   8.376
    1STR   O17967364  44.803  15.183   8.507
    1STR   C18067365  44.792  15.109   8.628
    1STR   H18167366  44.701  15.049   8.627
    1STR   C18267367  44.915  15.018   8.646
    1STR   H18367368  45.007  15.076   8.642
    1STR   H18467369  44.920  14.941   8.569
    1STR   H18567370  44.912  14.968   8.742
    1STR   C18667371  44.781  15.211   8.743
    1STR   H18767372  44.871  15.272   8.747
    1STR   H18867373  44.697  15.278   8.722
    1STR   O18967374  44.760  15.142   8.866
    1STR   C19067375  44.751  15.225   8.981
    1STR   H19167376  44.828  15.302   8.977
    1STR   C19267377  44.612  15.289   8.989
    1STR   H19367378  44.533  15.214   8.988
    1STR   H19467379  44.593  15.358   8.906
    1STR   H19567380  44.601  15.347   9.081
    1STR   C19667381  44.779  15.136   9.103
    1STR   H19767382  44.703  15.058   9.111
    1STR   H19867383  44.875  15.086   9.090
    1STR   O19967384  44.781  15.217   9.221
    1STR   C20067385  44.802  15.146   9.342
    1STR   H20167386  44.743  15.054   9.343
    1STR   C20267387  44.951  15.113   9.358
    1STR   H20367388  45.013  15.203   9.353
    1STR   H20467389  44.987  15.043   9.282
    1STR   H20567390  44.970  15.066   9.455
    1STR   C20667391  44.752  15.235   9.457
    1STR   H20767392  44.810  15.328   9.460
    1STR   H20867393  44.649  15.263   9.437
    1STR   O20967394  44.762  15.165   9.580
    1STR   C21067395  44.723  15.239   9.696
    1STR   H21167396  44.762  15.340   9.691
    1STR   C21267397  44.570  15.242   9.706
    1STR   H21367398  44.528  15.141   9.706
    1STR   H21467399  44.524  15.297   9.623
    1STR   H21567400  44.538  15.291   9.798
    1STR   C21667401  44.786  15.169   9.818
    1STR   H21767402  44.747  15.068   9.827
    1STR   H21867403  44.893  15.162   9.803
    1STR   O21967404  44.757  15.245   9.935
    1STR   C22067405  44.806  15.190  10.056
    1STR   H22167406  44.789  15.082  10.059
    1STR   C22267407  44.957  15.219  10.070
    1STR   H22367408  44.977  15.325  10.063
    1STR   H22467409  45.016  15.168   9.993
    1STR   H22567410  44.994  15.184  10.166
    1STR   C22667411  44.727  15.253  10.171
    1STR   H22767412  44.743  15.361  10.173
    1STR   H22867413  44.620  15.237  10.154
    1STR   O22967414  44.766  15.194  10.295
    1STR   C23067415  44.702  15.247  10.411
    1STR   H23167416  44.697  15.356  10.405
    1STR   C23267417  44.560  15.188  10.423
    1STR   H23367418  44.562  15.079  10.424
    1STR   H23467419  44.495  15.220  10.342
    1STR   H23567420  44.513  15.221  10.516
    1STR   C23667421  44.789  15.209  10.532
    1STR   H23767422  44.794  15.101  10.542
    1STR   H23867423  44.890  15.245  10.515
    1STR   O23967424  44.734  15.268  10.649
    1STR   C24067425  44.803  15.238  10.770
    1STR   H24167426  44.830  15.132  10.773
    1STR   C24267427  44.930  15.325  10.781
    1STR   H24367428  44.905  15.431  10.774
    1STR   H24467429  45.002  15.302  10.703
    1STR   H24567430  44.979  15.309  10.877
    1STR   C24667431  44.706  15.265  10.886
    1STR   H24767432  44.678  15.371  10.888
    1STR   H24867433  44.615  15.208  10.870
    1STR   O24967434  44.768  15.228  11.009
    1STR   C25067435  44.690  15.252  11.126
    1STR   H25167436  44.642  15.350  11.120
    1STR   C25267437  44.583  15.142  11.141
    1STR   H25367438  44.629  15.043  11.142
    1STR   H25467439  44.510  15.144  11.060
    1STR   H25567440  44.528  15.154  11.234
    1STR   C25667441  44.786  15.253  11.246
    1STR   H25767442  44.834  15.156  11.256
    1STR   H25867443  44.864  15.327  11.228
    1STR   O25967444  44.714  15.286  11.364
    1STR   C26067445  44.791  15.287  11.484
    1STR   H26167446  44.858  15.201  11.487
    1STR   C26267447  44.872  15.417  11.493
    1STR   H26367448  44.807  15.505  11.485
    1STR   H26467449  44.947  15.424  11.414
    1STR   H26567450  44.925  15.424  11.588
    1STR   C26667451  44.693  15.275  11.602
    1STR   H26767452  44.625  15.360  11.603
    1STR   H26867453  44.632  15.186  11.588
    1STR   O26967454  44.766  15.266  11.724
    1STR   C27067455  44.686  15.258  11.842
    1STR   H27167456  44.603  15.329  11.837
    1STR   C27267457  44.633  15.115  11.859
    1STR   H27367458  44.714  15.042  11.860
    1STR   H27467459  44.564  15.087  11.779
    1STR   H27567460  44.579  15.105  11.953
    1STR   C27667461  44.775  15.299  11.961
    1STR   H27767462  44.859  15.229  11.970
    1STR   H27867463  44.817  15.397  11.941
    1STR   O27967464  44.697  15.301  12.080
    1STR   C28067465  44.769  15.334  12.199
    1STR   H28167466  44.865  15.282  12.201
    1STR   C28267467  44.792  15.486  12.206
    1STR   H28367468  44.697  15.540  12.199
    1STR   H28467469  44.857  15.521  12.126
    1STR   H28567470  44.839  15.514  12.300
    1STR   C28667471  44.686  15.284  12.318
    1STR   H28767472  44.590  15.335  12.320
    1STR   H28867473  44.666  15.178  12.305
    1STR   O28967474  44.758  15.307  12.439
    1STR   C29067475  44.690  15.268  12.558
    1STR   H29167476  44.585  15.300  12.554
    1STR   C29267477  44.698  15.116  12.576
    1STR   H29367478  44.802  15.082  12.576
    1STR   H29467479  44.645  15.062  12.498
    1STR   H29567480  44.654  15.086  12.672
    1STR   C29667481  44.756  15.342  12.675
    1STR   H29767482  44.861  15.312  12.684
    1STR   H29867483  44.755  15.449  12.655
    1STR   O29967484  44.686  15.314  12.796
    1STR   C30067485  44.741  15.374  12.913
    1STR   H30167486  44.850  15.365  12.912
    1STR   C30267487  44.700  15.522  12.921
    1STR   H30367488  44.592  15.533  12.916
    1STR   H30467489  44.743  15.581  12.840
    1STR   H30567490  44.734  15.567  13.014
    1STR   C30667491  44.690  15.295  13.035
    1STR   H30767492  44.581  15.305  13.043
    1STR   H30867493  44.711  15.189  13.019
    1STR   O30967494  44.754  15.342  13.153
    1STR    H1R67495  44.608  15.265  13.278
    1STR    H1S67496  44.761  15.089  13.377
    1STR    H1T67497  44.893  15.149  13.278
    1STR    H1U67498  44.754  15.071  13.203
    1STR    H1V67499  44.718  15.467  13.376
    1STR    H1W67500  44.868  15.381  13.391
    1STR    H1X67501  44.627  15.256  13.702
    1STR    H1Y67502  44.553  15.165  13.901
    1STR    H1Z67503  44.599  15.046  14.110
    1STR    H2067504  44.910  14.871  14.191
    1STR    H2167505  44.856  15.011  14.284
    1STR    H2267506  44.740  14.890  14.229
    1STR    H2367507  45.097  14.967  13.938
    1STR    H2767508  44.972  15.144  13.798
    1STR    H2867509  44.709  14.874   1.335
    1STR    H2967510  44.664  14.896   1.100
    1STR    H2A67511  44.856  15.092   0.862
    1STR    H2B67512  44.707  15.004   0.892
    1STR    H2C67513  44.852  14.916   0.841
    1STR   BCK167514  45.266  15.083  15.941
    1STR    O0367515  45.378  15.131  15.926
    1STR    N0467516  45.226  15.016  16.049
    1STR    C0567517  45.310  14.966  16.148
    1STR    C0667518  45.290  15.000  16.284
    1STR    C0767519  45.372  14.946  16.386
    1STR    N0867520  45.347  14.979  16.521
    1STR    C0967521  45.424  14.960  16.629
    1STR    O0A67522  45.539  14.915  16.626
    1STR    O0B67523  45.361  14.996  16.743
    1STR    C0C67524  45.430  14.986  16.868
    1STR    C0D67525  45.521  15.108  16.887
    1STR    C0E67526  45.330  14.971  16.985
    1STR    O0F67527  45.405  14.953  17.106
    1STR    C0G67528  45.328  14.936  17.225
    1STR    C0H67529  45.276  14.792  17.232
    1STR    C0I67530  45.420  14.967  17.345
    1STR    O0J67531  45.346  14.960  17.466
    1STR    C0K67532  45.239  14.588  28.313
    1STR    C0M67533  45.294  14.731  28.328
    1STR    C0N67534  45.135  14.555  28.421
    1STR    O0O67535  45.195  14.531  28.548
    1STR    C0P67536  45.200  14.626  28.642
    1STR    O0Q67537  45.153  14.739  28.633
    1STR    N0R67538  45.271  14.581  28.746
    1STR    C0S67539  45.323  14.650  28.855
    1STR    C0T67540  45.446  14.605  28.907
    1STR    C0U67541  45.515  14.682  29.002
    1STR    C0V67542  45.462  14.803  29.049
    1STR    C0W67543  45.560  14.896  29.118
    1STR    C0X67544  45.329  14.840  29.015
    1STR    N0Y67545  45.257  14.951  29.062
    1STR   BCK267546  45.250  15.032  29.169
    1STR    O1067547  45.167  15.122  29.165
    1STR    C1367548  45.263  14.764  28.914
    1STR    C1467549  45.475  14.857  16.348
    1STR    C1567550  45.494  14.821  16.214
    1STR    C1667551  45.411  14.873  16.113
    1STR    C1767552  45.430  14.823  15.971
    1STR    H1B67553  45.128  14.992  16.051
    1STR    H1C67554  45.211  15.069  16.309
    1STR    H1D67555  45.260  15.024  16.543
    1STR    H1E67556  45.491  14.896  16.867
    1STR    H1F67557  45.463  15.201  16.889
    1STR    H1G67558  45.577  15.101  16.980
    1STR    H1H67559  45.593  15.116  16.806
    1STR    H1I67560  45.266  14.885  16.966
    1STR    H1J67561  45.266  15.059  16.992
    1STR    H1K67562  45.245  15.007  17.227
    1STR    H1M67563  45.358  14.720  17.226
    1STR    H1N67564  45.205  14.769  17.152
    1STR    H1O67565  45.224  14.774  17.327
    1STR    H1P67566  45.504  14.898  17.347
    1STR    H1Q67567  45.462  15.067  17.332
    1STR   C01067568  45.421  14.982  17.586
    1STR   H01167569  45.515  14.927  17.582
    1STR   C01267570  45.447  15.132  17.604
    1STR   H01367571  45.354  15.189  17.603
    1STR   H01467572  45.512  15.172  17.526
    1STR   H01567573  45.496  15.151  17.699
    1STR   C01667574  45.338  14.925  17.703
    1STR   H01767575  45.243  14.977  17.710
    1STR   H01867576  45.316  14.820  17.684
    1STR   O01967577  45.411  14.939  17.826
    1STR   C02067578  45.343  14.893  17.943
    1STR   H02167579  45.239  14.926  17.941
    1STR   C02267580  45.349  14.740  17.950
    1STR   H02367581  45.452  14.704  17.947
    1STR   H02467582  45.295  14.692  17.868
    1STR   H02567583  45.304  14.704  18.043
    1STR   C02667584  45.410  14.957  18.065
    1STR   H02767585  45.514  14.926  18.071
    1STR   H02867586  45.410  15.066  18.053
    1STR   O02967587  45.339  14.921  18.184
    1STR   C03067588  45.394  14.970  18.306
    1STR   H03167589  45.503  14.959  18.305
    1STR   C03267590  45.356  15.118  18.324
    1STR   H03367591  45.248  15.132  18.320
    1STR   H03467592  45.401  15.182  18.247
    1STR   H03567593  45.390  15.155  18.420
    1STR   C03667594  45.339  14.884  18.421
    1STR   H03767595  45.230  14.894  18.425
    1STR   H03867596  45.361  14.780  18.401
    1STR   O03967597  45.398  14.925  18.544
    1STR   C04067598  45.351  14.856  18.660
    1STR   H04167599  45.243  14.845  18.656
    1STR   C04267600  45.418  14.718  18.668
    1STR   H04367601  45.526  14.726  18.668
    1STR   H04467602  45.389  14.653  18.586
    1STR   H04567603  45.390  14.667  18.761
    1STR   C04667604  45.386  14.942  18.783
    1STR   H04767605  45.494  14.954  18.791
    1STR   H04867606  45.343  15.041  18.769
    1STR   O04967607  45.333  14.881  18.901
    1STR   C05067608  45.362  14.949  19.022
    1STR   H05167609  45.466  14.982  19.024
    1STR   C05267610  45.268  15.069  19.038
    1STR   H05367611  45.163  15.039  19.033
    1STR   H05467612  45.285  15.145  18.962
    1STR   H05567613  45.283  15.118  19.135
    1STR   C05667614  45.343  14.848  19.137
    1STR   H05767615  45.240  14.814  19.140
    1STR   H05867616  45.405  14.761  19.118
    1STR   O05967617  45.379  14.909  19.261
    1STR   C06067618  45.363  14.828  19.376
    1STR   H06167619  45.268  14.774  19.371
    1STR   C06267620  45.480  14.728  19.387
    1STR   H06367621  45.576  14.780  19.387
    1STR   H06467622  45.480  14.657  19.305
    1STR   H06567623  45.473  14.670  19.479
    1STR   C06667624  45.358  14.921  19.499
    1STR   H06767625  45.452  14.975  19.508
    1STR   H06867626  45.279  14.995  19.483
    1STR   O06967627  45.332  14.844  19.616
    1STR   C07067628  45.329  14.919  19.737
    1STR   H07167629  45.411  14.991  19.740
    1STR   C07267630  45.194  14.992  19.751
    1STR   H07367631  45.111  14.922  19.744
    1STR   H07467632  45.181  15.068  19.674
    1STR   H07567633  45.187  15.042  19.847
    1STR   C07667634  45.350  14.819  19.853
    1STR   H07767635  45.269  14.746  19.855
    1STR   H07867636  45.442  14.764  19.835
    1STR   O07967637  45.357  14.890  19.976
    1STR   C08067638  45.373  14.809  20.092
    1STR   H08167639  45.307  14.721  20.086
    1STR   C08267640  45.519  14.764  20.105
    1STR   H08367641  45.587  14.850  20.106
    1STR   H08467642  45.550  14.698  20.024
    1STR   H08567643  45.534  14.709  20.198
    1STR   C08667644  45.329  14.893  20.213
    1STR   H08767645  45.393  14.980  20.223
    1STR   H08867646  45.227  14.929  20.196
    1STR   O08967647  45.334  14.812  20.331
    1STR   C09067648  45.299  14.879  20.452
    1STR   H09167649  45.345  14.978  20.454
    1STR   C09267650  45.146  14.892  20.462
    1STR   H09367651  45.098  14.795  20.455
    1STR   H09467652  45.105  14.957  20.385
    1STR   H09567653  45.118  14.936  20.558
    1STR   C09667654  45.356  14.797  20.568
    1STR   H09767655  45.311  14.698  20.569
    1STR   H09867656  45.463  14.783  20.552
    1STR   O09967657  45.333  14.865  20.691
    1STR   C10067658  45.378  14.797  20.808
    1STR   H10167659  45.352  14.691  20.802
    1STR   C10267660  45.530  14.814  20.823
    1STR   H10367661  45.557  14.920  20.824
    1STR   H10467662  45.585  14.766  20.742
    1STR   H10567663  45.564  14.770  20.916
    1STR   C10667664  45.302  14.857  20.927
    1STR   H10767665  45.326  14.963  20.937
    1STR   H10867666  45.195  14.850  20.909
    1STR   O10967667  45.337  14.786  21.046
    1STR   C11067668  45.276  14.834  21.165
    1STR   H11167669  45.279  14.943  21.168
    1STR   C11267670  45.131  14.785  21.174
    1STR   H11367671  45.125  14.676  21.166
    1STR   H11467672  45.068  14.827  21.095
    1STR   H11567673  45.086  14.814  21.269
    1STR   C11667674  45.360  14.782  21.283
    1STR   H11767675  45.358  14.673  21.285
    1STR   H11867676  45.464  14.812  21.269
    1STR   O11967677  45.309  14.835  21.405
    1STR   C12067678  45.375  14.791  21.523
    1STR   H12167679  45.395  14.684  21.518
    1STR   C12267680  45.507  14.868  21.540
    1STR   H12367681  45.490  14.976  21.541
    1STR   H12467682  45.578  14.846  21.461
    1STR   H12567683  45.555  14.842  21.635
    1STR   C12667684  45.280  14.816  21.641
    1STR   H12767685  45.259  14.923  21.651
    1STR   H12867686  45.185  14.767  21.621
    1STR   O12967687  45.338  14.765  21.761
    1STR   C13067688  45.261  14.785  21.879
    1STR   H13167689  45.220  14.887  21.880
    1STR   C13267690  45.147  14.682  21.886
    1STR   H13367691  45.186  14.581  21.879
    1STR   H13467692  45.075  14.696  21.805
    1STR   H13567693  45.093  14.691  21.980
    1STR   C13667694  45.357  14.771  21.998
    1STR   H13767695  45.399  14.670  22.001
    1STR   H13867696  45.440  14.840  21.985
    1STR   O13967697  45.287  14.800  22.119
    1STR   C14067698  45.363  14.787  22.238
    1STR   H14167699  45.424  14.696  22.234
    1STR   C14267700  45.453  14.910  22.257
    1STR   H14367701  45.395  15.002  22.256
    1STR   H14467702  45.529  14.918  22.179
    1STR   H14567703  45.506  14.905  22.352
    1STR   C14667704  45.264  14.772  22.355
    1STR   H14767705  45.202  14.861  22.363
    1STR   H14867706  45.197  14.689  22.334
    1STR   O14967707  45.336  14.749  22.476
    1STR   C15067708  45.256  14.737  22.593
    1STR   H15167709  45.178  14.813  22.593
    1STR   C15267710  45.192  14.597  22.599
    1STR   H15367711  45.269  14.519  22.594
    1STR   H15467712  45.122  14.580  22.518
    1STR   H15567713  45.137  14.584  22.692
    1STR   C15667714  45.347  14.762  22.714
    1STR   H15767715  45.426  14.687  22.718
    1STR   H15867716  45.396  14.859  22.701
    1STR   O15967717  45.269  14.761  22.833
    1STR   C16067718  45.343  14.780  22.953
    1STR   H16167719  45.435  14.721  22.951
    1STR   C16267720  45.376  14.929  22.972
    1STR   H16367721  45.285  14.990  22.970
    1STR   H16467722  45.443  14.966  22.895
    1STR   H16567723  45.425  14.946  23.068
    1STR   C16667724  45.256  14.727  23.069
    1STR   H16767725  45.164  14.785  23.075
    1STR   H16867726  45.228  14.624  23.047
    1STR   O16967727  45.329  14.735  23.191
    1STR   C17067728  45.259  14.692  23.307
    1STR   H17167729  45.157  14.731  23.305
    1STR   C17267730  45.257  14.539  23.313
    1STR   H17367731  45.358  14.498  23.310
    1STR   H17467732  45.200  14.494  23.231
    1STR   H17567733  45.210  14.505  23.406
    1STR   C17667734  45.330  14.753  23.428
    1STR   H17767735  45.432  14.715  23.434
    1STR   H17867736  45.337  14.861  23.416
    1STR   O17967737  45.257  14.721  23.547
    1STR   C18067738  45.315  14.768  23.668
    1STR   H18167739  45.423  14.750  23.667
    1STR   C18267740  45.286  14.917  23.686
    1STR   H18367741  45.178  14.937  23.682
    1STR   H18467742  45.334  14.978  23.609
    1STR   H18567743  45.322  14.953  23.782
    1STR   C18667744  45.255  14.685  23.782
    1STR   H18767745  45.147  14.700  23.787
    1STR   H18867746  45.271  14.579  23.762
    1STR   O18967747  45.317  14.721  23.905
    1STR   C19067748  45.267  14.654  24.021
    1STR   H19167749  45.158  14.649  24.017
    1STR   C19267750  45.326  14.513  24.029
    1STR   H19367751  45.435  14.516  24.028
    1STR   H19467752  45.294  14.450  23.946
    1STR   H19567753  45.296  14.463  24.121
    1STR   C19667754  45.307  14.739  24.143
    1STR   H19767755  45.415  14.745  24.151
    1STR   H19867756  45.270  14.840  24.130
    1STR   O19967757  45.251  14.681  24.261
    1STR   C20067758  45.283  14.747  24.382
    1STR   H20167759  45.389  14.775  24.383
    1STR   C20267760  45.196  14.873  24.398
    1STR   H20367761  45.090  14.848  24.393
    1STR   H20467762  45.217  14.947  24.322
    1STR   H20567763  45.213  14.920  24.495
    1STR   C20667764  45.259  14.647  24.497
    1STR   H20767765  45.154  14.619  24.500
    1STR   H20867766  45.317  14.557  24.477
    1STR   O20967767  45.299  14.706  24.620
    1STR   C21067768  45.279  14.625  24.735
    1STR   H21167769  45.181  14.577  24.730
    1STR   C21267770  45.390  14.519  24.745
    1STR   H21367771  45.488  14.566  24.746
    1STR   H21467772  45.386  14.448  24.663
    1STR   H21567773  45.380  14.462  24.838
    1STR   C21667774  45.279  14.719  24.857
    1STR   H21767775  45.376  14.768  24.867
    1STR   H21867776  45.205  14.797  24.842
    1STR   O21967777  45.249  14.643  24.975
    1STR   C22067778  45.250  14.718  25.096
    1STR   H22167779  45.336  14.785  25.098
    1STR   C22267780  45.119  14.798  25.110
    1STR   H22367781  45.033  14.732  25.103
    1STR   H22467782  45.110  14.874  25.033
    1STR   H22567783  45.115  14.849  25.206
    1STR   C22667784  45.266  14.617  25.211
    1STR   H22767785  45.181  14.549  25.213
    1STR   H22867786  45.355  14.557  25.193
    1STR   O22967787  45.277  14.688  25.334
    1STR   C23067788  45.289  14.605  25.450
    1STR   H23167789  45.219  14.522  25.444
    1STR   C23267790  45.433  14.552  25.463
    1STR   H23367791  45.505  14.634  25.464
    1STR   H23467792  45.459  14.485  25.381
    1STR   H23567793  45.445  14.496  25.556
    1STR   C23667794  45.250  14.692  25.571
    1STR   H23767795  45.319  14.775  25.581
    1STR   H23867796  45.151  14.734  25.554
    1STR   O23967797  45.250  14.611  25.689
    1STR   C24067798  45.220  14.680  25.809
    1STR   H24167799  45.271  14.776  25.812
    1STR   C24267800  45.068  14.701  25.821
    1STR   H24367801  45.014  14.607  25.813
    1STR   H24467802  45.030  14.767  25.743
    1STR   H24567803  45.042  14.746  25.916
    1STR   C24667804  45.273  14.594  25.926
    1STR   H24767805  45.222  14.498  25.927
    1STR   H24867806  45.379  14.575  25.909
    1STR   O24967807  45.253  14.664  26.048
    1STR   C25067808  45.294  14.593  26.165
    1STR   H25167809  45.263  14.489  26.159
    1STR   C25267810  45.447  14.602  26.180
    1STR   H25367811  45.481  14.706  26.182
    1STR   H25467812  45.500  14.551  26.100
    1STR   H25567813  45.479  14.556  26.273
    1STR   C25667814  45.222  14.657  26.285
    1STR   H25767815  45.252  14.762  26.295
    1STR   H25867816  45.115  14.656  26.266
    1STR   O25967817  45.253  14.584  26.403
    1STR   C26067818  45.196  14.635  26.522
    1STR   H26167819  45.205  14.744  26.525
    1STR   C26267820  45.048  14.594  26.531
    1STR   H26367821  45.036  14.486  26.524
    1STR   H26467822  44.988  14.640  26.453
    1STR   H26567823  45.005  14.626  26.626
    1STR   C26667824  45.277  14.579  26.640
    1STR   H26767825  45.268  14.470  26.642
    1STR   H26867826  45.382  14.603  26.625
    1STR   O26967827  45.229  14.635  26.762
    1STR   C27067828  45.293  14.587  26.880
    1STR   H27167829  45.306  14.478  26.874
    1STR   C27267830  45.429  14.656  26.897
    1STR   H27367831  45.418  14.764  26.898
    1STR   H27467832  45.499  14.630  26.817
    1STR   H27567833  45.476  14.626  26.991
    1STR   C27667834  45.200  14.617  26.998
    1STR   H27767835  45.185  14.724  27.008
    1STR   H27867836  45.102  14.573  26.978
    1STR   O27967837  45.255  14.562  27.117
    1STR   C28067838  45.180  14.587  27.236
    1STR   H28167839  45.145  14.690  27.237
    1STR   C28267840  45.061  14.490  27.243
    1STR   H28367841  45.094  14.386  27.237
    1STR   H28467842  44.989  14.507  27.163
    1STR   H28567843  45.008  14.502  27.337
    1STR   C28667844  45.276  14.567  27.354
    1STR   H28767845  45.312  14.464  27.357
    1STR   H28867846  45.363  14.632  27.341
    1STR   O28967847  45.208  14.599  27.476
    1STR   C29067848  45.285  14.582  27.594
    1STR   H29167849  45.341  14.488  27.590
    1STR   C29267850  45.381  14.700  27.612
    1STR   H29367851  45.327  14.795  27.612
    1STR   H29467852  45.457  14.704  27.534
    1STR   H29567853  45.434  14.692  27.707
    1STR   C29667854  45.185  14.572  27.711
    1STR   H29767855  45.128  14.665  27.718
    1STR   H29867856  45.114  14.493  27.690
    1STR   O29967857  45.254  14.547  27.833
    1STR   C30067858  45.171  14.539  27.948
    1STR   H30167859  45.095  14.618  27.945
    1STR   C30267860  45.103  14.401  27.955
    1STR   H30367861  45.177  14.321  27.952
    1STR   H30467862  45.034  14.386  27.872
    1STR   H30567863  45.045  14.391  28.047
    1STR   C30667864  45.258  14.564  28.073
    1STR   H30767865  45.331  14.484  28.084
    1STR   H30867866  45.314  14.657  28.058
    1STR   O30967867  45.174  14.574  28.187
    1STR    H1R67868  45.321  14.516  28.320
    1STR    H1S67869  45.341  14.746  28.425
    1STR    H1T67870  45.214  14.805  28.319
    1STR    H1U67871  45.369  14.755  28.253
    1STR    H1V67872  45.083  14.464  28.393
    1STR    H1W67873  45.058  14.633  28.427
    1STR    H1X67874  45.300  14.486  28.732
    1STR    H1Y67875  45.492  14.515  28.868
    1STR    H1Z67876  45.614  14.650  29.032
    1STR    H2067877  45.531  15.000  29.105
    1STR    H2167878  45.570  14.872  29.224
    1STR    H2267879  45.658  14.886  29.073
    1STR    H2367880  45.183  14.980  29.001
    1STR    H2767881  45.166  14.795  28.878
    1STR    H2867882  45.541  14.811  16.420
    1STR    H2967883  45.573  14.751  16.189
    1STR    H2A67884  45.334  14.807  15.922
    1STR    H2B67885  45.485  14.729  15.968
    1STR    H2C67886  45.486  14.897  15.913
    1STR   BCK167887  45.184  15.128  30.962
    1STR    O0367888  45.079  15.093  30.907
    1STR    N0467889  45.195  15.169  31.089
    1STR    C0567890  45.100  15.226  31.175
    1STR    C0667891  45.094  15.188  31.313
    1STR    C0767892  45.016  15.260  31.408
    1STR    N0867893  45.016  15.224  31.545
    1STR    C0967894  44.979  15.296  31.653
    1STR    O0A67895  44.941  15.413  31.648
    1STR    O0B67896  44.990  15.226  31.769
    1STR    C0C67897  44.943  15.285  31.893
    1STR    C0D67898  44.792  15.261  31.906
    1STR    C0E67899  45.019  15.230  32.016
    1STR    O0F67900  44.972  15.294  32.136
    1STR    C0G67901  45.037  15.257  32.258
    1STR    C0H67902  45.173  15.328  32.268
    1STR    C0I67903  44.947  15.295  32.378
    1STR    O0J67904  45.007  15.252  32.501
    1STR    C0K67905  45.323  15.469  43.350
    1STR    C0M67906  45.194  15.386  43.364
    1STR    C0N67907  45.421  15.441  43.464
    1STR    O0O67908  45.370  15.490  43.588
    1STR    C0P67909  45.322  15.406  43.680
    1STR    O0Q67910  45.316  15.284  43.668
    1STR    N0R67911  45.280  15.476  43.785
    1STR    C0S67912  45.223  15.434  43.905
    1STR    C0T67913  45.159  15.531  43.985
    1STR    C0U67914  45.097  15.495  44.106
    1STR    C0V67915  45.100  15.362  44.152
    1STR    C0W67916  45.027  15.326  44.280
    1STR    C0X67917  45.169  15.265  44.076
    1STR    N0Y67918  45.178  15.133  44.118
    1STR   BCK267919  45.240  15.089  44.227
    1STR    O1067920  45.300  15.160  44.307
    1STR    C1367921  45.228  15.301  43.953
    1STR    C1467922  44.940  15.369  31.360
    1STR    C1567923  44.945  15.408  31.225
    1STR    C1667924  45.026  15.339  31.133
    1STR    C1767925  45.036  15.395  30.992
    1STR    H1B67926  45.290  15.171  31.121
    1STR    H1C67927  45.153  15.104  31.346
    1STR    H1D67928  45.049  15.132  31.570
    1STR    H1E67929  44.961  15.392  31.891
    1STR    H1F67930  44.768  15.154  31.910
    1STR    H1G67931  44.753  15.307  31.997
    1STR    H1H67932  44.738  15.304  31.822
    1STR    H1I67933  45.126  15.248  32.003
    1STR    H1J67934  45.006  15.122  32.024
    1STR    H1K67935  45.051  15.149  32.261
    1STR    H1M67936  45.161  15.436  32.261
    1STR    H1N67937  45.242  15.297  32.190
    1STR    H1O67938  45.221  15.306  32.363
    1STR    H1P67939  44.931  15.403  32.380
    1STR    H1Q67940  44.849  15.249  32.366
    1STR   C01067941  44.938  15.286  32.621
    1STR   H01167942  44.905  15.390  32.617
    1STR   C01267943  44.816  15.194  32.639
    1STR   H01367944  44.846  15.089  32.639
    1STR   H01467945  44.741  15.208  32.562
    1STR   H01567946  44.767  15.213  32.735
    1STR   C01667947  45.036  15.273  32.739
    1STR   H01767948  45.072  15.170  32.746
    1STR   H01867949  45.123  15.335  32.720
    1STR   O01967950  44.973  15.311  32.862
    1STR   C02067951  45.054  15.298  32.979
    1STR   H02167952  45.108  15.204  32.977
    1STR   C02267953  45.154  15.415  32.987
    1STR   H02367954  45.102  15.511  32.985
    1STR   H02467955  45.226  15.414  32.905
    1STR   H02567956  45.211  15.411  33.080
    1STR   C02667957  44.962  15.297  33.103
    1STR   H02767958  44.906  15.390  33.109
    1STR   H02867959  44.888  15.217  33.091
    1STR   O02967960  45.039  15.277  33.222
    1STR   C03067961  44.965  15.277  33.344
    1STR   H03167962  44.892  15.359  33.344
    1STR   C03267963  44.893  15.143  33.362
    1STR   H03367964  44.963  15.059  33.358
    1STR   H03467965  44.817  15.126  33.286
    1STR   H03567966  44.842  15.139  33.459
    1STR   C03667967  45.064  15.303  33.459
    1STR   H03767968  45.138  15.222  33.464
    1STR   H03867969  45.118  15.395  33.439
    1STR   O03967970  44.993  15.312  33.583
    1STR   C04067971  45.074  15.332  33.699
    1STR   H04167972  45.161  15.267  33.695
    1STR   C04267973  45.118  15.479  33.707
    1STR   H04367974  45.032  15.546  33.707
    1STR   H04467975  45.184  15.507  33.625
    1STR   H04567976  45.173  15.497  33.800
    1STR   C04667977  44.990  15.292  33.822
    1STR   H04767978  44.902  15.356  33.830
    1STR   H04867979  44.955  15.190  33.809
    1STR   O04967980  45.070  15.301  33.940
    1STR   C05067981  45.003  15.271  34.062
    1STR   H05167982  44.904  15.317  34.063
    1STR   C05267983  44.991  15.118  34.078
    1STR   H05367984  45.089  15.070  34.072
    1STR   H05467985  44.927  15.074  34.001
    1STR   H05567986  44.947  15.093  34.174
    1STR   C05667987  45.085  15.332  34.177
    1STR   H05767988  45.185  15.288  34.180
    1STR   H05867989  45.098  15.439  34.158
    1STR   O05967990  45.017  15.312  34.300
    1STR   C06067991  45.085  15.361  34.416
    1STR   H06167992  45.191  15.336  34.411
    1STR   C06267993  45.066  15.513  34.427
    1STR   H06367994  44.960  15.540  34.427
    1STR   H06467995  45.114  15.566  34.344
    1STR   H06567996  45.110  15.551  34.519
    1STR   C06667997  45.025  15.289  34.538
    1STR   H06767998  44.919  15.312  34.548
    1STR   H06867999  45.033  15.181  34.523
    1STR   O06968000  45.096  15.328  34.656
    1STR   C07068001  45.048  15.271  34.777
    1STR   H07168002  44.939  15.273  34.780
    1STR   C07268003  45.099  15.126  34.790
    1STR   H07368004  45.207  15.122  34.784
    1STR   H07468005  45.057  15.061  34.714
    1STR   H07568006  45.070  15.084  34.887
    1STR   C07668007  45.100  15.359  34.893
    1STR   H07768008  45.209  15.358  34.894
    1STR   H07868009  45.069  15.462  34.875
    1STR   O07968010  45.047  15.311  35.016
    1STR   C08068011  45.090  15.381  35.132
    1STR   H08168012  45.197  15.401  35.126
    1STR   C08268013  45.012  15.513  35.145
    1STR   H08368014  44.905  15.496  35.146
    1STR   H08468015  45.034  15.582  35.064
    1STR   H08568016  45.038  15.564  35.238
    1STR   C08668017  45.066  15.290  35.253
    1STR   H08768018  44.959  15.269  35.263
    1STR   H08868019  45.116  15.194  35.236
    1STR   O08968020  45.116  15.352  35.371
    1STR   C09068021  45.096  15.279  35.492
    1STR   H09168022  44.995  15.238  35.494
    1STR   C09268023  45.200  15.166  35.502
    1STR   H09368024  45.302  15.205  35.495
    1STR   H09468025  45.187  15.091  35.424
    1STR   H09568026  45.191  15.115  35.598
    1STR   C09668027  45.110  15.379  35.608
    1STR   H09768028  45.210  15.421  35.609
    1STR   H09868029  45.040  15.461  35.592
    1STR   O09968030  45.081  15.312  35.731
    1STR   C10068031  45.094  15.393  35.848
    1STR   H10168032  45.184  15.454  35.842
    1STR   C10268033  44.970  15.483  35.863
    1STR   H10368034  44.879  15.424  35.864
    1STR   H10468035  44.962  15.556  35.782
    1STR   H10568036  44.975  15.539  35.956
    1STR   C10668037  45.109  15.298  35.967
    1STR   H10768038  45.020  15.236  35.977
    1STR   H10868039  45.193  15.230  35.949
    1STR   O10968040  45.132  15.374  36.086
    1STR   C11068041  45.144  15.297  36.205
    1STR   H11168042  45.068  15.219  36.208
    1STR   C11268043  45.285  15.236  36.214
    1STR   H11368044  45.362  15.312  36.207
    1STR   H11468045  45.302  15.163  36.135
    1STR   H11568046  45.298  15.184  36.309
    1STR   C11668047  45.117  15.392  36.323
    1STR   H11768048  45.192  15.471  36.325
    1STR   H11868049  45.021  15.440  36.309
    1STR   O11968050  45.119  15.318  36.445
    1STR   C12068051  45.100  15.396  36.563
    1STR   H12168052  45.158  15.488  36.558
    1STR   C12268053  44.951  15.428  36.580
    1STR   H12368054  44.890  15.337  36.581
    1STR   H12468055  44.913  15.493  36.501
    1STR   H12568056  44.933  15.480  36.675
    1STR   C12668057  45.153  15.313  36.681
    1STR   H12768058  45.096  15.220  36.691
    1STR   H12868059  45.257  15.285  36.661
    1STR   O12968060  45.145  15.390  36.801
    1STR   C13068061  45.188  15.323  36.919
    1STR   H13168062  45.150  15.221  36.920
    1STR   C13268063  45.342  15.322  36.926
    1STR   H13368064  45.382  15.424  36.919
    1STR   H13468065  45.386  15.264  36.845
    1STR   H13568066  45.376  15.279  37.020
    1STR   C13668067  45.127  15.398  37.038
    1STR   H13768068  45.164  15.501  37.041
    1STR   H13868069  45.019  15.404  37.025
    1STR   O13968070  45.159  15.330  37.159
    1STR   C14068071  45.112  15.391  37.278
    1STR   H14168072  45.128  15.499  37.274
    1STR   C14268073  44.962  15.361  37.297
    1STR   H14368074  44.943  15.254  37.296
    1STR   H14468075  44.901  15.406  37.219
    1STR   H14568076  44.926  15.401  37.392
    1STR   C14668077  45.195  15.335  37.395
    1STR   H14768078  45.180  15.227  37.403
    1STR   H14868079  45.301  15.351  37.374
    1STR   O14968080  45.158  15.401  37.516
    1STR   C15068081  45.225  15.355  37.633
    1STR   H15168082  45.231  15.246  37.633
    1STR   C15268083  45.366  15.416  37.639
    1STR   H15368084  45.362  15.524  37.634
    1STR   H15468085  45.429  15.380  37.558
    1STR   H15568086  45.415  15.388  37.732
    1STR   C15668087  45.140  15.398  37.753
    1STR   H15768088  45.133  15.507  37.758
    1STR   H15868089  45.039  15.360  37.741
    1STR   O15968090  45.198  15.346  37.873
    1STR   C16068091  45.131  15.382  37.993
    1STR   H16168092  45.103  15.488  37.991
    1STR   C16268093  45.006  15.295  38.012
    1STR   H16368094  45.032  15.189  38.010
    1STR   H16468095  44.932  15.313  37.935
    1STR   H16568096  44.959  15.315  38.108
    1STR   C16668097  45.231  15.363  38.109
    1STR   H16768098  45.260  15.258  38.115
    1STR   H16868099  45.322  15.420  38.087
    1STR   O16968100  45.172  15.407  38.231
    1STR   C17068101  45.253  15.390  38.347
    1STR   H17168102  45.302  15.293  38.345
    1STR   C17268103  45.358  15.502  38.353
    1STR   H17368104  45.311  15.600  38.350
    1STR   H17468105  45.429  15.496  38.271
    1STR   H17568106  45.415  15.496  38.446
    1STR   C17668107  45.159  15.394  38.468
    1STR   H17768108  45.110  15.491  38.474
    1STR   H17868109  45.081  15.319  38.456
    1STR   O17968110  45.234  15.368  38.587
    1STR   C18068111  45.160  15.373  38.708
    1STR   H18168112  45.092  15.459  38.707
    1STR   C18268113  45.080  15.243  38.726
    1STR   H18368114  45.146  15.156  38.722
    1STR   H18468115  45.004  15.230  38.649
    1STR   H18568116  45.029  15.241  38.822
    1STR   C18668117  45.260  15.393  38.823
    1STR   H18768118  45.329  15.308  38.827
    1STR   H18868119  45.320  15.482  38.802
    1STR   O18968120  45.190  15.408  38.945
    1STR   C19068121  45.272  15.424  39.061
    1STR   H19168122  45.356  15.354  39.057
    1STR   C19268123  45.324  15.568  39.069
    1STR   H19368124  45.242  15.640  39.068
    1STR   H19468125  45.391  15.593  38.986
    1STR   H19568126  45.380  15.584  39.161
    1STR   C19668127  45.186  15.388  39.183
    1STR   H19768128  45.102  15.457  39.191
    1STR   H19868129  45.144  15.288  39.170
    1STR   O19968130  45.266  15.393  39.301
    1STR   C20068131  45.197  15.366  39.422
    1STR   H20168132  45.101  15.417  39.423
    1STR   C20268133  45.177  15.214  39.438
    1STR   H20368134  45.273  15.161  39.433
    1STR   H20468135  45.112  15.173  39.362
    1STR   H20568136  45.132  15.191  39.535
    1STR   C20668137  45.282  15.424  39.537
    1STR   H20768138  45.379  15.374  39.540
    1STR   H20868139  45.301  15.529  39.517
    1STR   O20968140  45.213  15.407  39.660
    1STR   C21068141  45.283  15.453  39.775
    1STR   H21168142  45.388  15.422  39.771
    1STR   C21268143  45.273  15.606  39.786
    1STR   H21368144  45.169  15.638  39.786
    1STR   H21468145  45.324  15.656  39.703
    1STR   H21568146  45.319  15.642  39.878
    1STR   C21668147  45.220  15.384  39.898
    1STR   H21768148  45.115  15.414  39.907
    1STR   H21868149  45.222  15.276  39.882
    1STR   O21968150  45.293  15.420  40.015
    1STR   C22068151  45.242  15.365  40.136
    1STR   H22168152  45.133  15.374  40.139
    1STR   C22268153  45.284  15.218  40.150
    1STR   H22368154  45.392  15.208  40.143
    1STR   H22468155  45.239  15.155  40.073
    1STR   H22568156  45.253  15.178  40.246
    1STR   C22668157  45.298  15.451  40.251
    1STR   H22768158  45.407  15.444  40.253
    1STR   H22868159  45.273  15.555  40.233
    1STR   O22968160  45.242  15.406  40.375
    1STR   C23068161  45.289  15.475  40.490
    1STR   H23168162  45.397  15.489  40.485
    1STR   C23268163  45.219  15.611  40.503
    1STR   H23368164  45.110  15.599  40.504
    1STR   H23468165  45.244  15.678  40.421
    1STR   H23568166  45.248  15.660  40.596
    1STR   C23668167  45.260  15.385  40.612
    1STR   H23768168  45.152  15.370  40.622
    1STR   H23868169  45.304  15.287  40.595
    1STR   O23968170  45.314  15.445  40.729
    1STR   C24068171  45.290  15.373  40.850
    1STR   H24168172  45.187  15.337  40.853
    1STR   C24268173  45.387  15.255  40.861
    1STR   H24368174  45.491  15.288  40.854
    1STR   H24468175  45.371  15.180  40.783
    1STR   H24568176  45.376  15.204  40.957
    1STR   C24668177  45.308  15.472  40.966
    1STR   H24768178  45.411  15.509  40.968
    1STR   H24868179  45.243  15.558  40.950
    1STR   O24968180  45.276  15.407  41.089
    1STR   C25068181  45.293  15.487  41.206
    1STR   H25168182  45.387  15.543  41.200
    1STR   C25268183  45.174  15.584  41.221
    1STR   H25368184  45.080  15.530  41.222
    1STR   H25468185  45.170  15.657  41.140
    1STR   H25568186  45.182  15.640  41.314
    1STR   C25668187  45.303  15.391  41.325
    1STR   H25768188  45.210  15.335  41.336
    1STR   H25868189  45.383  15.319  41.307
    1STR   O25968190  45.330  15.466  41.444
    1STR   C26068191  45.338  15.389  41.563
    1STR   H26168192  45.257  15.315  41.566
    1STR   C26268193  45.474  15.320  41.572
    1STR   H26368194  45.556  15.392  41.565
    1STR   H26468195  45.488  15.246  41.493
    1STR   H26568196  45.485  15.267  41.667
    1STR   C26668197  45.316  15.486  41.681
    1STR   H26768198  45.396  15.561  41.683
    1STR   H26868199  45.222  15.539  41.667
    1STR   O26968200  45.314  15.412  41.803
    1STR   C27068201  45.299  15.491  41.921
    1STR   H27168202  45.362  15.580  41.915
    1STR   C27268203  45.151  15.532  41.938
    1STR   H27368204  45.086  15.444  41.939
    1STR   H27468205  45.117  15.598  41.859
    1STR   H27568206  45.137  15.585  42.032
    1STR   C27668207  45.347  15.406  42.039
    1STR   H27768208  45.286  15.317  42.049
    1STR   H27868209  45.449  15.372  42.019
    1STR   O27968210  45.343  15.484  42.159
    1STR   C28068211  45.382  15.415  42.277
    1STR   H28168212  45.338  15.315  42.279
    1STR   C28268213  45.535  15.406  42.284
    1STR   H28368214  45.581  15.505  42.278
    1STR   H28468215  45.577  15.344  42.205
    1STR   H28568216  45.567  15.361  42.379
    1STR   C28668217  45.325  15.493  42.396
    1STR   H28768218  45.367  15.594  42.399
    1STR   H28868219  45.217  15.504  42.383
    1STR   O28968220  45.353  15.423  42.517
    1STR   C29068221  45.310  15.488  42.636
    1STR   H29168222  45.331  15.595  42.631
    1STR   C29268223  45.159  15.466  42.655
    1STR   H29368224  45.134  15.359  42.656
    1STR   H29468225  45.100  15.513  42.577
    1STR   H29568226  45.125  15.508  42.750
    1STR   C29668227  45.390  15.428  42.753
    1STR   H29768228  45.370  15.322  42.761
    1STR   H29868229  45.497  15.439  42.732
    1STR   O29968230  45.356  15.496  42.873
    1STR   C30068231  45.420  15.447  42.990
    1STR   H30168232  45.421  15.337  42.989
    1STR   C30268233  45.564  15.500  42.998
    1STR   H30368234  45.566  15.609  42.994
    1STR   H30468235  45.626  15.463  42.917
    1STR   H30568236  45.611  15.470  43.091
    1STR   C30668237  45.336  15.492  43.111
    1STR   H30768238  45.336  15.601  43.117
    1STR   H30868239  45.233  15.461  43.096
    1STR   O30968240  45.390  15.435  43.229
    1STR    H1R68241  45.299  15.576  43.350
    1STR    H1S68242  45.143  15.408  43.458
    1STR    H1T68243  45.216  15.280  43.363
    1STR    H1U68244  45.123  15.407  43.284
    1STR    H1V68245  45.515  15.493  43.445
    1STR    H1W68246  45.447  15.335  43.469
    1STR    H1X68247  45.292  15.575  43.770
    1STR    H1Y68248  45.154  15.634  43.953
    1STR    H1Z68249  45.047  15.571  44.164
    1STR    H2068250  44.987  15.225  44.274
    1STR    H2168251  45.096  15.330  44.365
    1STR    H2268252  44.944  15.394  44.299
    1STR    H2368253  45.144  15.061  44.056
    1STR    H2768254  45.279  15.225  43.896
    1STR    H2868255  44.878  15.428  31.426
    1STR    H2968256  44.889  15.495  31.194
    1STR    H2A68257  45.140  15.399  30.960
    1STR    H2B68258  44.996  15.496  30.986
    1STR    H2C68259  44.980  15.332  30.923
    1STR   BCK168260  45.186  14.990  46.014
    1STR    O0368261  45.245  14.888  45.978
    1STR    N0468262  45.114  15.000  46.126
    1STR    C0568263  45.079  14.897  46.215
    1STR    C0668264  45.104  14.911  46.355
    1STR    C0768265  45.065  14.812  46.449
    1STR    N0868266  45.089  14.832  46.587
    1STR    C0968267  45.069  14.750  46.692
    1STR    O0A68268  45.029  14.634  46.684
    1STR    O0B68269  45.099  14.810  46.811
    1STR    C0C68270  45.090  14.735  46.934
    1STR    C0D68271  45.217  14.650  46.951
    1STR    C0E68272  45.068  14.828  47.056
    1STR    O0F68273  45.058  14.750  47.176
    1STR    C0G68274  45.035  14.823  47.297
    1STR    C0H68275  44.887  14.862  47.306
    1STR    C0I68276  45.075  14.734  47.417
    1STR    O0J68277  45.059  14.807  47.540
    1STR    C0K68278  44.687  14.867  58.390
    1STR    C0M68279  44.837  14.834  58.401
    1STR    C0N68280  44.641  14.960  58.504
    1STR    O0O68281  44.644  14.893  58.629
    1STR    C0P68282  44.743  14.915  58.717
    1STR    O0Q68283  44.839  14.990  58.701
    1STR    N0R68284  44.719  14.841  58.825
    1STR    C0S68285  44.789  14.824  58.945
    1STR    C0T68286  44.734  14.730  59.035
    1STR    C0U68287  44.799  14.701  59.156
    1STR    C0V68288  44.919  14.765  59.190
    1STR    C0W68289  44.992  14.718  59.315
    1STR    C0X68290  44.972  14.865  59.105
    1STR    N0Y68291  45.092  14.929  59.137
    1STR   BCK268292  45.118  14.996  59.250
    1STR    O1068293  45.034  15.029  59.333
    1STR    C1368294  44.908  14.892  58.981
    1STR    C1468295  45.001  14.697  46.399
    1STR    C1568296  44.974  14.682  46.262
    1STR    C1668297  45.010  14.782  46.170
    1STR    C1768298  44.968  14.764  46.025
    1STR    H1B68299  45.081  15.092  46.146
    1STR    H1C68300  45.155  15.000  46.389
    1STR    H1D68301  45.127  14.920  46.616
    1STR    H1E68302  45.004  14.668  46.928
    1STR    H1F68303  45.306  14.713  46.957
    1STR    H1G68304  45.211  14.590  47.042
    1STR    H1H68305  45.230  14.581  46.867
    1STR    H1I68306  44.977  14.886  47.040
    1STR    H1J68307  45.150  14.899  47.064
    1STR    H1K68308  45.098  14.912  47.299
    1STR    H1M68309  44.822  14.775  47.300
    1STR    H1N68310  44.857  14.931  47.227
    1STR    H1O68311  44.866  14.912  47.401
    1STR    H1P68312  45.013  14.644  47.419
    1STR    H1Q68313  45.178  14.701  47.405
    1STR   C01068314  45.088  14.735  47.660
    1STR   H01168315  45.042  14.636  47.656
    1STR   C01268316  45.240  14.722  47.678
    1STR   H01368317  45.288  14.820  47.678
    1STR   H01468318  45.286  14.661  47.601
    1STR   H01568319  45.263  14.674  47.774
    1STR   C01668320  45.025  14.812  47.778
    1STR   H01768321  45.067  14.912  47.785
    1STR   H01868322  44.918  14.824  47.759
    1STR   O01968323  45.045  14.741  47.901
    1STR   C02068324  44.994  14.805  48.019
    1STR   H02168325  45.018  14.912  48.016
    1STR   C02268326  44.842  14.786  48.026
    1STR   H02368327  44.815  14.680  48.024
    1STR   H02468328  44.790  14.836  47.945
    1STR   H02568329  44.802  14.828  48.119
    1STR   C02668330  45.064  14.744  48.142
    1STR   H02768331  45.042  14.637  48.148
    1STR   H02868332  45.172  14.754  48.130
    1STR   O02968333  45.020  14.811  48.261
    1STR   C03068334  45.074  14.760  48.383
    1STR   H03168335  45.073  14.651  48.383
    1STR   C03268336  45.218  14.811  48.401
    1STR   H03368337  45.223  14.920  48.398
    1STR   H03468338  45.286  14.772  48.325
    1STR   H03568339  45.258  14.780  48.498
    1STR   C03668340  44.984  14.808  48.499
    1STR   H03768341  44.984  14.917  48.503
    1STR   H03868342  44.881  14.777  48.479
    1STR   O03968343  45.030  14.754  48.622
    1STR   C04068344  44.957  14.794  48.738
    1STR   H04168345  44.937  14.901  48.734
    1STR   C04268346  44.825  14.715  48.747
    1STR   H04368347  44.843  14.608  48.746
    1STR   H04468348  44.758  14.739  48.665
    1STR   H04568349  44.772  14.739  48.839
    1STR   C04668350  45.046  14.767  48.861
    1STR   H04768351  45.067  14.661  48.869
    1STR   H04868352  45.141  14.818  48.848
    1STR   O04968353  44.980  14.814  48.979
    1STR   C05068354  45.050  14.791  49.101
    1STR   H05168355  45.092  14.690  49.103
    1STR   C05268356  45.162  14.895  49.117
    1STR   H05368357  45.123  14.997  49.112
    1STR   H05468358  45.239  14.885  49.041
    1STR   H05568359  45.211  14.884  49.214
    1STR   C05668360  44.948  14.801  49.216
    1STR   H05768361  44.905  14.901  49.219
    1STR   H05868362  44.867  14.731  49.197
    1STR   O05968363  45.012  14.770  49.340
    1STR   C06068364  44.929  14.780  49.456
    1STR   H06168365  44.868  14.870  49.451
    1STR   C06268366  44.840  14.655  49.466
    1STR   H06368367  44.900  14.564  49.467
    1STR   H06468368  44.769  14.648  49.384
    1STR   H06568369  44.782  14.657  49.559
    1STR   C06668370  45.022  14.793  49.578
    1STR   H06768371  45.084  14.704  49.587
    1STR   H06868372  45.089  14.878  49.563
    1STR   O06968373  44.943  14.812  49.696
    1STR   C07068374  45.017  14.821  49.817
    1STR   H07168375  45.096  14.746  49.819
    1STR   C07268376  45.078  14.962  49.831
    1STR   H07368377  45.001  15.039  49.824
    1STR   H07468378  45.152  14.982  49.754
    1STR   H07568379  45.128  14.973  49.927
    1STR   C07668380  44.920  14.791  49.932
    1STR   H07768381  44.840  14.866  49.934
    1STR   H07868382  44.873  14.695  49.915
    1STR   O07968383  44.991  14.791  50.056
    1STR   C08068384  44.912  14.768  50.172
    1STR   H08168385  44.819  14.826  50.166
    1STR   C08268386  44.880  14.618  50.185
    1STR   H08368387  44.971  14.559  50.186
    1STR   H08468388  44.817  14.582  50.104
    1STR   H08568389  44.826  14.598  50.278
    1STR   C08668390  44.991  14.819  50.293
    1STR   H08768391  45.084  14.763  50.303
    1STR   H08868392  45.019  14.923  50.276
    1STR   O08968393  44.912  14.807  50.411
    1STR   C09068394  44.976  14.848  50.532
    1STR   H09168395  45.078  14.810  50.534
    1STR   C09268396  44.975  15.001  50.542
    1STR   H09368397  44.874  15.041  50.535
    1STR   H09468398  45.035  15.048  50.465
    1STR   H09568399  45.016  15.033  50.638
    1STR   C09668400  44.899  14.783  50.648
    1STR   H09768401  44.796  14.820  50.649
    1STR   H09868402  44.894  14.675  50.632
    1STR   O09968403  44.965  14.813  50.771
    1STR   C10068404  44.901  14.762  50.888
    1STR   H10168405  44.793  14.778  50.882
    1STR   C10268406  44.931  14.612  50.903
    1STR   H10368407  45.039  14.594  50.904
    1STR   H10468408  44.888  14.553  50.822
    1STR   H10568409  44.890  14.574  50.996
    1STR   C10668410  44.954  14.843  51.007
    1STR   H10768411  45.061  14.828  51.017
    1STR   H10868412  44.937  14.949  50.989
    1STR   O10968413  44.886  14.802  51.126
    1STR   C11068414  44.928  14.867  51.245
    1STR   H11168415  45.037  14.873  51.248
    1STR   C11268416  44.866  15.007  51.254
    1STR   H11368417  44.758  15.003  51.247
    1STR   H11468418  44.902  15.073  51.175
    1STR   H11568419  44.891  15.055  51.349
    1STR   C11668420  44.884  14.779  51.363
    1STR   H11768421  44.775  14.771  51.365
    1STR   H11868422  44.923  14.678  51.349
    1STR   O11968423  44.932  14.834  51.485
    1STR   C12068424  44.894  14.764  51.603
    1STR   H12168425  44.789  14.735  51.598
    1STR   C12268426  44.983  14.640  51.620
    1STR   H12368427  45.088  14.666  51.621
    1STR   H12468428  44.967  14.567  51.541
    1STR   H12568429  44.961  14.590  51.715
    1STR   C12668430  44.911  14.861  51.721
    1STR   H12768431  45.015  14.891  51.731
    1STR   H12868432  44.854  14.952  51.701
    1STR   O12968433  44.865  14.799  51.841
    1STR   C13068434  44.879  14.877  51.959
    1STR   H13168435  44.976  14.927  51.960
    1STR   C13268436  44.766  14.981  51.966
    1STR   H13368437  44.668  14.934  51.959
    1STR   H13468438  44.773  15.055  51.885
    1STR   H13568439  44.770  15.036  52.060
    1STR   C13668440  44.873  14.780  52.078
    1STR   H13768441  44.776  14.730  52.081
    1STR   H13868442  44.949  14.703  52.065
    1STR   O13968443  44.895  14.853  52.199
    1STR   C14068444  44.889  14.776  52.318
    1STR   H14168445  44.804  14.707  52.314
    1STR   C14268446  45.019  14.697  52.337
    1STR   H14368447  45.106  14.763  52.336
    1STR   H14468448  45.034  14.622  52.259
    1STR   H14568449  45.019  14.643  52.432
    1STR   C14668450  44.865  14.873  52.435
    1STR   H14768451  44.949  14.942  52.443
    1STR   H14868452  44.776  14.933  52.414
    1STR   O14968453  44.848  14.799  52.556
    1STR   C15068454  44.830  14.878  52.673
    1STR   H15168455  44.899  14.963  52.673
    1STR   C15268456  44.685  14.929  52.679
    1STR   H15368457  44.614  14.846  52.674
    1STR   H15468458  44.662  14.998  52.598
    1STR   H15568459  44.667  14.983  52.772
    1STR   C15668460  44.863  14.789  52.794
    1STR   H15768461  44.794  14.705  52.798
    1STR   H15868462  44.963  14.749  52.781
    1STR   O15968463  44.855  14.867  52.913
    1STR   C16068464  44.880  14.795  53.033
    1STR   H16168465  44.830  14.698  53.031
    1STR   C16268466  45.032  14.775  53.052
    1STR   H16368467  45.084  14.871  53.050
    1STR   H16468468  45.074  14.711  52.975
    1STR   H16568469  45.053  14.728  53.148
    1STR   C16668470  44.820  14.877  53.149
    1STR   H16768471  44.869  14.974  53.155
    1STR   H16868472  44.715  14.896  53.127
    1STR   O16968473  44.834  14.805  53.271
    1STR   C17068474  44.785  14.871  53.387
    1STR   H17168475  44.815  14.976  53.385
    1STR   C17268476  44.632  14.860  53.393
    1STR   H17368477  44.601  14.756  53.390
    1STR   H17468478  44.584  14.912  53.311
    1STR   H17568479  44.595  14.904  53.486
    1STR   C17668480  44.852  14.805  53.509
    1STR   H17768481  44.823  14.700  53.514
    1STR   H17868482  44.960  14.808  53.496
    1STR   O17968483  44.814  14.875  53.627
    1STR   C18068484  44.866  14.822  53.748
    1STR   H18168485  44.858  14.713  53.747
    1STR   C18268486  45.012  14.864  53.766
    1STR   H18368487  45.023  14.972  53.762
    1STR   H18468488  45.077  14.821  53.689
    1STR   H18568489  45.051  14.831  53.862
    1STR   C18668490  44.778  14.874  53.863
    1STR   H18768491  44.785  14.983  53.867
    1STR   H18868492  44.674  14.850  53.842
    1STR   O18968493  44.820  14.816  53.986
    1STR   C19068494  44.749  14.860  54.101
    1STR   H19168495  44.734  14.968  54.097
    1STR   C19268496  44.613  14.788  54.109
    1STR   H19368497  44.625  14.680  54.108
    1STR   H19468498  44.547  14.816  54.026
    1STR   H19568499  44.561  14.815  54.201
    1STR   C19668500  44.836  14.828  54.223
    1STR   H19768501  44.852  14.720  54.231
    1STR   H19868502  44.934  14.873  54.210
    1STR   O19968503  44.774  14.879  54.341
    1STR   C20068504  44.843  14.852  54.462
    1STR   H20168505  44.879  14.749  54.463
    1STR   C20268506  44.960  14.950  54.478
    1STR   H20368507  44.926  15.054  54.473
    1STR   H20468508  45.036  14.936  54.402
    1STR   H20568509  45.009  14.937  54.575
    1STR   C20668510  44.741  14.867  54.577
    1STR   H20768511  44.703  14.969  54.580
    1STR   H20868512  44.656  14.802  54.557
    1STR   O20968513  44.803  14.832  54.700
    1STR   C21068514  44.721  14.846  54.815
    1STR   H21168515  44.664  14.939  54.811
    1STR   C21268516  44.625  14.726  54.825
    1STR   H21368517  44.679  14.632  54.826
    1STR   H21468518  44.553  14.724  54.743
    1STR   H21568519  44.567  14.731  54.918
    1STR   C21668520  44.814  14.854  54.938
    1STR   H21768521  44.871  14.761  54.947
    1STR   H21868522  44.886  14.934  54.923
    1STR   O21968523  44.736  14.877  55.055
    1STR   C22068524  44.811  14.882  55.176
    1STR   H22168525  44.885  14.803  55.179
    1STR   C22268526  44.879  15.019  55.190
    1STR   H22368527  44.806  15.100  55.183
    1STR   H22468528  44.954  15.035  55.113
    1STR   H22568529  44.929  15.028  55.286
    1STR   C22668530  44.712  14.857  55.291
    1STR   H22768531  44.636  14.936  55.293
    1STR   H22868532  44.659  14.763  55.274
    1STR   O22968533  44.783  14.852  55.415
    1STR   C23068534  44.702  14.834  55.530
    1STR   H23168535  44.613  14.896  55.525
    1STR   C23268536  44.662  14.686  55.543
    1STR   H23368537  44.750  14.621  55.544
    1STR   H23468538  44.598  14.653  55.462
    1STR   H23568539  44.607  14.669  55.636
    1STR   C23668540  44.784  14.880  55.652
    1STR   H23768541  44.874  14.819  55.662
    1STR   H23868542  44.817  14.983  55.635
    1STR   O23968543  44.704  14.872  55.769
    1STR   C24068544  44.770  14.909  55.890
    1STR   H24168545  44.870  14.866  55.893
    1STR   C24268546  44.777  15.062  55.901
    1STR   H24368547  44.678  15.107  55.894
    1STR   H24468548  44.840  15.106  55.823
    1STR   H24568549  44.820  15.092  55.997
    1STR   C24668550  44.689  14.849  56.006
    1STR   H24768551  44.589  14.890  56.008
    1STR   H24868552  44.679  14.741  55.990
    1STR   O24968553  44.757  14.875  56.129
    1STR   C25068554  44.690  14.827  56.246
    1STR   H25168555  44.583  14.849  56.240
    1STR   C25268556  44.713  14.676  56.261
    1STR   H25368557  44.819  14.652  56.262
    1STR   H25468558  44.666  14.619  56.180
    1STR   H25568559  44.669  14.640  56.354
    1STR   C25668560  44.747  14.904  56.366
    1STR   H25768561  44.854  14.884  56.376
    1STR   H25868562  44.737  15.011  56.347
    1STR   O25968563  44.677  14.867  56.484
    1STR   C26068564  44.723  14.929  56.604
    1STR   H26168565  44.832  14.930  56.606
    1STR   C26268566  44.670  15.073  56.612
    1STR   H26368567  44.561  15.075  56.605
    1STR   H26468568  44.710  15.137  56.534
    1STR   H26568569  44.697  15.119  56.707
    1STR   C26668570  44.674  14.844  56.721
    1STR   H26768571  44.565  14.842  56.723
    1STR   H26868572  44.707  14.741  56.707
    1STR   O26968573  44.725  14.896  56.843
    1STR   C27068574  44.683  14.828  56.961
    1STR   H27168575  44.577  14.805  56.956
    1STR   C27268576  44.764  14.699  56.978
    1STR   H27368577  44.871  14.719  56.979
    1STR   H27468578  44.745  14.627  56.899
    1STR   H27568579  44.739  14.650  57.072
    1STR   C27668580  44.705  14.924  57.080
    1STR   H27768581  44.811  14.948  57.089
    1STR   H27868582  44.653  15.017  57.060
    1STR   O27968583  44.656  14.863  57.199
    1STR   C28068584  44.673  14.940  57.317
    1STR   H28168585  44.773  14.985  57.319
    1STR   C28268586  44.567  15.051  57.325
    1STR   H28368587  44.466  15.009  57.318
    1STR   H28468588  44.578  15.124  57.245
    1STR   H28568589  44.574  15.105  57.419
    1STR   C28668590  44.662  14.844  57.437
    1STR   H28768591  44.563  14.799  57.439
    1STR   H28868592  44.734  14.763  57.424
    1STR   O28968593  44.688  14.915  57.558
    1STR   C29068594  44.677  14.837  57.676
    1STR   H29168595  44.589  14.773  57.672
    1STR   C29268596  44.803  14.751  57.695
    1STR   H29368597  44.893  14.813  57.695
    1STR   H29468598  44.814  14.676  57.617
    1STR   H29568599  44.800  14.698  57.790
    1STR   C29668600  44.659  14.935  57.793
    1STR   H29768601  44.746  15.000  57.801
    1STR   H29868602  44.573  15.000  57.772
    1STR   O29968603  44.638  14.863  57.914
    1STR   C30068604  44.625  14.943  58.031
    1STR   H30168605  44.698  15.024  58.029
    1STR   C30268606  44.482  15.001  58.039
    1STR   H30368607  44.407  14.921  58.035
    1STR   H30468608  44.461  15.070  57.957
    1STR   H30568609  44.468  15.055  58.132
    1STR   C30668610  44.656  14.854  58.152
    1STR   H30768611  44.582  14.775  58.161
    1STR   H30868612  44.753  14.806  58.135
    1STR   O30968613  44.660  14.935  58.269
    1STR    H1R68614  44.628  14.775  58.395
    1STR    H1S68615  44.860  14.785  58.495
    1STR    H1T68616  44.897  14.925  58.396
    1STR    H1U68617  44.871  14.768  58.321
    1STR    H1V68618  44.538  14.990  58.487
    1STR    H1W68619  44.699  15.052  58.506
    1STR    H1X68620  44.634  14.789  58.814
    1STR    H1Y68621  44.643  14.678  59.012
    1STR    H1Z68622  44.757  14.626  59.222
    1STR    H2068623  45.096  14.698  59.291
    1STR    H2168624  44.988  14.793  59.394
    1STR    H2268625  44.949  14.627  59.355
    1STR    H2368626  45.166  14.927  59.069
    1STR    H2768627  44.950  14.965  58.914
    1STR    H2868628  44.968  14.616  46.463
    1STR    H2968629  44.922  14.593  46.228
    1STR    H2A68630  44.940  14.859  45.980
    1STR    H2B68631  44.883  14.697  46.017
    1STR    H2C68632  45.050  14.721  45.968
    1STR   BCK168633  45.209  30.162   0.900
    1STR    O0368634  45.221  30.282   0.879
    1STR    N0468635  45.243  30.102   1.014
    1STR    C0568636  45.322  30.160   1.112
    1STR    C0668637  45.278  30.166   1.247
    1STR    C0768638  45.360  30.222   1.349
    1STR    N0868639  45.315  30.222   1.482
    1STR    C0968640  45.375  30.268   1.593
    1STR    O0A68641  45.483  30.327   1.596
    1STR    O0B68642  45.302  30.243   1.704
    1STR    C0C68643  45.349  30.291   1.831
    1STR    C0D68644  45.307  30.438   1.848
    1STR    C0E68645  45.299  30.203   1.947
    1STR    O0F68646  45.358  30.252   2.067
    1STR    C0G68647  45.327  30.181   2.187
    1STR    C0H68648  45.411  30.052   2.193
    1STR    C0I68649  45.358  30.273   2.306
    1STR    O0J68650  45.320  30.210   2.428
    1STR    C0K68651  45.567  29.912  13.266
    1STR    C0M68652  45.475  30.034  13.282
    1STR    C0N68653  45.548  29.810  13.379
    1STR    O0O68654  45.597  29.861  13.503
    1STR    C0P68655  45.513  29.911  13.593
    1STR    O0Q68656  45.391  29.917  13.582
    1STR    N0R68657  45.584  29.958  13.696
    1STR    C0S68658  45.542  30.024  13.811
    1STR    C0T68659  45.637  30.100  13.881
    1STR    C0U68660  45.602  30.172  13.997
    1STR    C0V68661  45.470  30.168  14.045
    1STR    C0W68662  45.433  30.251  14.167
    1STR    C0X68663  45.374  30.087  13.980
    1STR    N0Y68664  45.245  30.079  14.031
    1STR   BCK268665  45.204  30.000  14.130
    1STR    O1068666  45.095  30.018  14.184
    1STR    C1368667  45.410  30.017  13.863
    1STR    C1468668  45.485  30.275   1.310
    1STR    C1568669  45.531  30.267   1.178
    1STR    C1668670  45.452  30.206   1.079
    1STR    C1768671  45.511  30.191   0.939
    1STR    H1B68672  45.217  30.005   1.022
    1STR    H1C68673  45.180  30.127   1.271
    1STR    H1D68674  45.226  30.181   1.502
    1STR    H1E68675  45.458  30.285   1.833
    1STR    H1F68676  45.198  30.449   1.848
    1STR    H1G68677  45.345  30.478   1.941
    1STR    H1H68678  45.347  30.499   1.767
    1STR    H1I68679  45.327  30.100   1.929
    1STR    H1J68680  45.190  30.206   1.953
    1STR    H1K68681  45.221  30.157   2.189
    1STR    H1M68682  45.517  30.074   2.186
    1STR    H1N68683  45.386  29.982   2.114
    1STR    H1O68684  45.394  30.000   2.288
    1STR    H1P68685  45.465  30.298   2.307
    1STR    H1Q68686  45.304  30.367   2.293
    1STR   C01068687  45.349  30.283   2.547
    1STR   H01168688  45.449  30.325   2.542
    1STR   C01268689  45.246  30.396   2.565
    1STR   H01368690  45.144  30.357   2.564
    1STR   H01468691  45.253  30.472   2.487
    1STR   H01568692  45.261  30.447   2.660
    1STR   C01668693  45.343  30.183   2.664
    1STR   H01768694  45.244  30.139   2.671
    1STR   H01868695  45.413  30.102   2.644
    1STR   O01968696  45.377  30.249   2.786
    1STR   C02068697  45.372  30.167   2.903
    1STR   H02168698  45.283  30.105   2.901
    1STR   C02268699  45.498  30.079   2.910
    1STR   H02368700  45.588  30.139   2.908
    1STR   H02468701  45.503  30.007   2.829
    1STR   H02568702  45.499  30.022   3.003
    1STR   C02668703  45.362  30.260   3.026
    1STR   H02768704  45.451  30.323   3.032
    1STR   H02868705  45.276  30.326   3.013
    1STR   O02968706  45.348  30.182   3.144
    1STR   C03068707  45.342  30.255   3.266
    1STR   H03168708  45.417  30.335   3.266
    1STR   C03268709  45.202  30.315   3.284
    1STR   H03368710  45.125  30.238   3.280
    1STR   H03468711  45.179  30.390   3.208
    1STR   H03568712  45.193  30.365   3.380
    1STR   C03668713  45.376  30.159   3.381
    1STR   H03768714  45.303  30.078   3.385
    1STR   H03868715  45.473  30.113   3.361
    1STR   O03968716  45.380  30.230   3.504
    1STR   C04068717  45.407  30.151   3.620
    1STR   H04168718  45.350  30.058   3.616
    1STR   C04268719  45.557  30.120   3.629
    1STR   H04368720  45.616  30.212   3.628
    1STR   H04468721  45.591  30.057   3.546
    1STR   H04568722  45.580  30.067   3.721
    1STR   C04668723  45.359  30.231   3.743
    1STR   H04768724  45.416  30.324   3.751
    1STR   H04868725  45.255  30.258   3.729
    1STR   O04968726  45.376  30.152   3.861
    1STR   C05068727  45.339  30.216   3.982
    1STR   H05168728  45.376  30.319   3.984
    1STR   C05268729  45.186  30.215   3.998
    1STR   H05368730  45.147  30.114   3.993
    1STR   H05468731  45.137  30.275   3.922
    1STR   H05568732  45.157  30.257   4.095
    1STR   C05668733  45.408  30.140   4.097
    1STR   H05768734  45.372  30.037   4.100
    1STR   H05868735  45.515  30.137   4.078
    1STR   O05968736  45.381  30.206   4.221
    1STR   C06068737  45.436  30.143   4.336
    1STR   H06168738  45.421  30.035   4.331
    1STR   C06268739  45.586  30.175   4.347
    1STR   H06368740  45.604  30.283   4.347
    1STR   H06468741  45.644  30.132   4.265
    1STR   H06568742  45.628  30.135   4.439
    1STR   C06668743  45.359  30.196   4.459
    1STR   H06768744  45.373  30.304   4.468
    1STR   H06868745  45.253  30.179   4.443
    1STR   O06968746  45.404  30.129   4.576
    1STR   C07068747  45.343  30.172   4.697
    1STR   H07168748  45.336  30.281   4.700
    1STR   C07268749  45.204  30.109   4.711
    1STR   H07368750  45.208  30.001   4.704
    1STR   H07468751  45.135  30.145   4.634
    1STR   H07568752  45.159  30.134   4.807
    1STR   C07668753  45.435  30.128   4.813
    1STR   H07768754  45.444  30.019   4.815
    1STR   H07868755  45.535  30.168   4.795
    1STR   O07968756  45.383  30.177   4.936
    1STR   C08068757  45.457  30.140   5.052
    1STR   H08168758  45.487  30.035   5.046
    1STR   C08268759  45.582  30.229   5.065
    1STR   H08368760  45.555  30.334   5.066
    1STR   H08468761  45.652  30.213   4.984
    1STR   H08568762  45.635  30.207   5.158
    1STR   C08668763  45.364  30.156   5.173
    1STR   H08768764  45.334  30.260   5.183
    1STR   H08868765  45.273  30.098   5.156
    1STR   O08968766  45.431  30.111   5.291
    1STR   C09068767  45.356  30.125   5.412
    1STR   H09168768  45.306  30.222   5.414
    1STR   C09268769  45.253  30.011   5.422
    1STR   H09368770  45.301  29.914   5.415
    1STR   H09468771  45.177  30.017   5.345
    1STR   H09568772  45.201  30.015   5.518
    1STR   C09668773  45.457  30.120   5.528
    1STR   H09768774  45.508  30.024   5.529
    1STR   H09868775  45.533  30.196   5.512
    1STR   O09968776  45.388  30.143   5.651
    1STR   C10068777  45.469  30.137   5.768
    1STR   H10168778  45.538  30.052   5.762
    1STR   C10268779  45.548  30.268   5.783
    1STR   H10368780  45.481  30.354   5.784
    1STR   H10468781  45.620  30.283   5.703
    1STR   H10568782  45.604  30.269   5.876
    1STR   C10668783  45.376  30.113   5.887
    1STR   H10768784  45.306  30.197   5.897
    1STR   H10868785  45.316  30.024   5.869
    1STR   O10968786  45.454  30.097   6.006
    1STR   C11068787  45.378  30.078   6.125
    1STR   H11168788  45.294  30.147   6.128
    1STR   C11268789  45.329  29.933   6.134
    1STR   H11368790  45.412  29.863   6.127
    1STR   H11468791  45.258  29.909   6.055
    1STR   H11568792  45.279  29.915   6.229
    1STR   C11668793  45.471  30.113   6.243
    1STR   H11768794  45.556  30.045   6.245
    1STR   H11868795  45.510  30.214   6.229
    1STR   O11968796  45.397  30.105   6.365
    1STR   C12068797  45.473  30.131   6.483
    1STR   H12168798  45.570  30.081   6.478
    1STR   C12268799  45.492  30.283   6.500
    1STR   H12368800  45.396  30.335   6.501
    1STR   H12468801  45.553  30.326   6.421
    1STR   H12568802  45.542  30.305   6.595
    1STR   C12668803  45.395  30.071   6.601
    1STR   H12768804  45.298  30.119   6.611
    1STR   H12868805  45.376  29.965   6.581
    1STR   O12968806  45.471  30.086   6.721
    1STR   C13068807  45.408  30.037   6.839
    1STR   H13168808  45.303  30.066   6.840
    1STR   C13268809  45.421  29.884   6.846
    1STR   H13368810  45.525  29.853   6.840
    1STR   H13468811  45.366  29.835   6.766
    1STR   H13568812  45.380  29.846   6.940
    1STR   C13668813  45.477  30.105   6.958
    1STR   H13768814  45.583  30.076   6.961
    1STR   H13868815  45.473  30.213   6.945
    1STR   O13968816  45.412  30.066   7.079
    1STR   C14068817  45.469  30.119   7.198
    1STR   H14168818  45.578  30.112   7.194
    1STR   C14268819  45.426  30.265   7.217
    1STR   H14368820  45.317  30.275   7.216
    1STR   H14468821  45.466  30.330   7.139
    1STR   H14568822  45.462  30.304   7.312
    1STR   C14668823  45.421  30.031   7.315
    1STR   H14768824  45.312  30.037   7.323
    1STR   H14868825  45.446  29.927   7.294
    1STR   O14968826  45.483  30.074   7.436
    1STR   C15068827  45.443  30.003   7.553
    1STR   H15168828  45.335  29.988   7.553
    1STR   C15268829  45.516  29.868   7.559
    1STR   H15368830  45.624  29.881   7.554
    1STR   H15468831  45.486  29.802   7.478
    1STR   H15568832  45.493  29.816   7.652
    1STR   C15668833  45.478  30.091   7.674
    1STR   H15768834  45.586  30.108   7.678
    1STR   H15868835  45.432  30.189   7.661
    1STR   O15968836  45.432  30.029   7.793
    1STR   C16068837  45.462  30.099   7.913
    1STR   H16168838  45.565  30.136   7.911
    1STR   C16268839  45.364  30.216   7.932
    1STR   H16368840  45.261  30.181   7.930
    1STR   H16468841  45.376  30.292   7.855
    1STR   H16568842  45.381  30.265   8.028
    1STR   C16668843  45.451  29.998   8.029
    1STR   H16768844  45.349  29.959   8.035
    1STR   H16868845  45.516  29.912   8.007
    1STR   O16968846  45.490  30.060   8.151
    1STR   C17068847  45.480  29.978   8.267
    1STR   H17168848  45.387  29.921   8.265
    1STR   C17268849  45.601  29.883   8.273
    1STR   H17368850  45.695  29.938   8.270
    1STR   H17468851  45.601  29.811   8.191
    1STR   H17568852  45.599  29.825   8.366
    1STR   C17668853  45.476  30.072   8.388
    1STR   H17768854  45.568  30.130   8.394
    1STR   H17868855  45.394  30.143   8.376
    1STR   O17968856  45.457  29.995   8.507
    1STR   C18068857  45.455  30.069   8.628
    1STR   H18168858  45.534  30.144   8.627
    1STR   C18268859  45.318  30.137   8.646
    1STR   H18368860  45.237  30.064   8.642
    1STR   H18468861  45.299  30.212   8.569
    1STR   H18568862  45.312  30.188   8.742
    1STR   C18668863  45.484  29.971   8.743
    1STR   H18768864  45.406  29.895   8.747
    1STR   H18868865  45.578  29.919   8.722
    1STR   O18968866  45.493  30.043   8.865
    1STR   C19068867  45.515  29.962   8.981
    1STR   H19168868  45.453  29.873   8.977
    1STR   C19268869  45.664  29.923   8.989
    1STR   H19368870  45.728  30.011   8.988
    1STR   H19468871  45.694  29.858   8.906
    1STR   H19568872  45.684  29.869   9.081
    1STR   C19668873  45.473  30.045   9.103
    1STR   H19768874  45.534  30.135   9.111
    1STR   H19868875  45.370  30.078   9.090
    1STR   O19968876  45.485  29.965   9.221
    1STR   C20068877  45.451  30.031   9.342
    1STR   H20168878  45.494  30.132   9.343
    1STR   C20268879  45.299  30.038   9.358
    1STR   H20368880  45.254  29.939   9.353
    1STR   H20468881  45.252  30.100   9.282
    1STR   H20568882  45.272  30.081   9.455
    1STR   C20668883  45.516  29.952   9.457
    1STR   H20768884  45.475  29.851   9.460
    1STR   H20868885  45.623  29.942   9.437
    1STR   O20968886  45.494  30.019   9.580
    1STR   C21068887  45.545  29.953   9.696
    1STR   H21168888  45.524  29.846   9.691
    1STR   C21268889  45.697  29.977   9.706
    1STR   H21368890  45.720  30.083   9.706
    1STR   H21468891  45.751  29.931   9.623
    1STR   H21568892  45.737  29.934   9.798
    1STR   C21668893  45.472  30.011   9.818
    1STR   H21768894  45.492  30.118   9.827
    1STR   H21868895  45.364  30.000   9.803
    1STR   O21968896  45.513  29.941   9.935
    1STR   C22068897  45.455  29.987  10.056
    1STR   H22168898  45.453  30.096  10.059
    1STR   C22268899  45.312  29.932  10.070
    1STR   H22368900  45.311  29.823  10.063
    1STR   H22468901  45.245  29.971   9.993
    1STR   H22568902  45.269  29.960  10.166
    1STR   C22668903  45.544  29.939  10.171
    1STR   H22768904  45.547  29.830  10.173
    1STR   H22868905  45.646  29.973  10.153
    1STR   O22968906  45.495  29.991  10.295
    1STR   C23068907  45.568  29.950  10.410
    1STR   H23168908  45.591  29.843  10.405
    1STR   C23268909  45.697  30.031  10.423
    1STR   H23368910  45.676  30.138  10.424
    1STR   H23468911  45.766  30.012  10.341
    1STR   H23568912  45.749  30.007  10.516
    1STR   C23668913  45.475  29.971  10.531
    1STR   H23768914  45.451  30.077  10.542
    1STR   H23868915  45.382  29.918  10.515
    1STR   O23968916  45.540  29.922  10.649
    1STR   C24068917  45.466  29.940  10.770
    1STR   H24168918  45.421  30.040  10.773
    1STR   C24268919  45.357  29.832  10.781
    1STR   H24368920  45.400  29.732  10.773
    1STR   H24468921  45.281  29.842  10.703
    1STR   H24568922  45.306  29.839  10.877
    1STR   C24668923  45.567  29.930  10.886
    1STR   H24768924  45.613  29.831  10.887
    1STR   H24868925  45.647  30.002  10.870
    1STR   O24968926  45.499  29.957  11.009
    1STR   C25068927  45.581  29.947  11.125
    1STR   H25168928  45.645  29.859  11.119
    1STR   C25268929  45.666  30.073  11.140
    1STR   H25368930  45.604  30.163  11.142
    1STR   H25468931  45.739  30.084  11.060
    1STR   H25568932  45.723  30.071  11.234
    1STR   C25668933  45.486  29.928  11.245
    1STR   H25768934  45.421  30.015  11.255
    1STR   H25868935  45.422  29.842  11.226
    1STR   O25968936  45.563  29.908  11.363
    1STR   C26068937  45.487  29.894  11.483
    1STR   H26168938  45.407  29.967  11.485
    1STR   C26268939  45.430  29.751  11.492
    1STR   H26368940  45.509  29.676  11.484
    1STR   H26468941  45.358  29.731  11.413
    1STR   H26568942  45.379  29.736  11.587
    1STR   C26668943  45.582  29.924  11.600
    1STR   H26768944  45.663  29.851  11.602
    1STR   H26868945  45.627  30.022  11.586
    1STR   O26968946  45.508  29.920  11.722
    1STR   C27068947  45.585  29.941  11.840
    1STR   H27168948  45.679  29.886  11.834
    1STR   C27268949  45.613  30.092  11.857
    1STR   H27368950  45.520  30.149  11.858
    1STR   H27468951  45.676  30.131  11.778
    1STR   H27568952  45.665  30.111  11.951
    1STR   C27668953  45.504  29.885  11.958
    1STR   H27768954  45.410  29.939  11.968
    1STR   H27868955  45.480  29.781  11.938
    1STR   O27968956  45.582  29.896  12.077
    1STR   C28068957  45.516  29.852  12.195
    1STR   H28168958  45.413  29.886  12.197
    1STR   C28268959  45.521  29.698  12.203
    1STR   H28368960  45.623  29.661  12.197
    1STR   H28468961  45.463  29.651  12.123
    1STR   H28568962  45.479  29.663  12.297
    1STR   C28668963  45.590  29.916  12.314
    1STR   H28768964  45.693  29.882  12.317
    1STR   H28868965  45.591  30.024  12.301
    1STR   O28968966  45.522  29.881  12.435
    1STR   C29068967  45.583  29.931  12.554
    1STR   H29168968  45.691  29.918  12.549
    1STR   C29268969  45.548  30.079  12.573
    1STR   H29368970  45.440  30.094  12.573
    1STR   H29468971  45.590  30.142  12.495
    1STR   H29568972  45.587  30.116  12.668
    1STR   C29668973  45.530  29.845  12.670
    1STR   H29768974  45.422  29.857  12.679
    1STR   H29868975  45.550  29.740  12.648
    1STR   O29968976  45.596  29.884  12.790
    1STR   C30068977  45.552  29.816  12.907
    1STR   H30168978  45.443  29.806  12.906
    1STR   C30268979  45.618  29.677  12.914
    1STR   H30368980  45.726  29.685  12.911
    1STR   H30468981  45.586  29.612  12.833
    1STR   H30568982  45.592  29.627  13.008
    1STR   C30668983  45.590  29.903  13.027
    1STR   H30768984  45.699  29.914  13.033
    1STR   H30868985  45.549  30.003  13.013
    1STR   O30968986  45.538  29.844  13.145
    1STR    H1R68987  45.672  29.944  13.267
    1STR    H1S68988  45.493  30.086  13.376
    1STR    H1T68989  45.370  30.003  13.283
    1STR    H1U68990  45.488  30.107  13.202
    1STR    H1V68991  45.606  29.720  13.356
    1STR    H1W68992  45.444  29.778  13.386
    1STR    H1X68993  45.682  29.945  13.682
    1STR    H1Y68994  45.739  30.106  13.846
    1STR    H1Z68995  45.676  30.232  14.047
    1STR    H2068996  45.331  30.290  14.159
    1STR    H2168997  45.439  30.191  14.257
    1STR    H2268998  45.500  30.337  14.178
    1STR    H2368999  45.175  30.142  13.995
    1STR    H2769000  45.335  29.956  13.814
    1STR    H2869001  45.553  30.321   1.380
    1STR    H2969002  45.628  30.306   1.153
    1STR    H2A69003  45.481  30.097   0.894
    1STR    H2B69004  45.620  30.193   0.942
    1STR    H2C69005  45.478  30.273   0.875
    1STR   BCK169006  45.107  30.098  15.914
    1STR    O0369007  45.018  30.081  15.831
    1STR    N0469008  45.092  30.124  16.045
    1STR    C0569009  44.981  30.140  16.129
    1STR    C0669010  44.997  30.110  16.268
    1STR    C0769011  44.893  30.125  16.364
    1STR    N0869012  44.916  30.101  16.501
    1STR    C0969013  44.834  30.113  16.608
    1STR    O0A69014  44.716  30.145  16.601
    1STR    O0B69015  44.897  30.086  16.726
    1STR    C0C69016  44.821  30.087  16.849
    1STR    C0D69017  44.747  29.952  16.863
    1STR    C0E69018  44.909  30.115  16.972
    1STR    O0F69019  44.829  30.116  17.092
    1STR    C0G69020  44.897  30.146  17.214
    1STR    C0H69021  44.923  30.297  17.224
    1STR    C0I69022  44.812  30.098  17.334
    1STR    O0J69023  44.883  30.120  17.457
    1STR    C0K69024  44.905  30.497  28.313
    1STR    C0M69025  44.890  30.344  28.323
    1STR    C0N69026  44.991  30.553  28.428
    1STR    O0O69027  44.924  30.538  28.553
    1STR    C0P69028  44.964  30.446  28.642
    1STR    O0Q69029  45.054  30.365  28.625
    1STR    N0R69030  44.888  30.457  28.751
    1STR    C0S69031  44.887  30.385  28.871
    1STR    C0T69032  44.779  30.409  28.959
    1STR    C0U69033  44.768  30.339  29.080
    1STR    C0V69034  44.865  30.244  29.118
    1STR    C0W69035  44.843  30.164  29.245
    1STR    C0X69036  44.976  30.221  29.034
    1STR    N0Y69037  45.070  30.122  29.065
    1STR   BCK269038  45.145  30.111  29.175
    1STR    O1069039  45.157  30.197  29.261
    1STR    C1369040  44.986  30.291  28.911
    1STR    C1469041  44.767  30.168  16.315
    1STR    C1569042  44.749  30.201  16.180
    1STR    C1669043  44.855  30.193  16.088
    1STR    C1769044  44.827  30.249  15.950
    1STR    H1B69045  45.182  30.126  16.091
    1STR    H1C69046  45.093  30.074  16.302
    1STR    H1D69047  45.008  30.072  16.529
    1STR    H1E69048  44.747  30.167  16.844
    1STR    H1F69049  44.816  29.869  16.869
    1STR    H1G69050  44.685  29.952  16.953
    1STR    H1H69051  44.680  29.935  16.778
    1STR    H1I69052  44.959  30.211  16.959
    1STR    H1J69053  44.988  30.039  16.981
    1STR    H1K69054  44.992  30.092  17.218
    1STR    H1M69055  44.830  30.353  17.217
    1STR    H1N69056  44.990  30.333  17.146
    1STR    H1O69057  44.969  30.322  17.319
    1STR    H1P69058  44.716  30.150  17.336
    1STR    H1Q69059  44.790  29.992  17.322
    1STR   C01069060  44.813  30.085  17.578
    1STR   H01169061  44.711  30.122  17.574
    1STR   C01269062  44.813  29.933  17.596
    1STR   H01369063  44.915  29.893  17.596
    1STR   H01469064  44.757  29.882  17.519
    1STR   H01569065  44.768  29.906  17.692
    1STR   C01669066  44.884  30.155  17.697
    1STR   H01769067  44.987  30.122  17.703
    1STR   H01869068  44.886  30.263  17.678
    1STR   O01969069  44.816  30.128  17.820
    1STR   C02069070  44.875  30.185  17.937
    1STR   H02169071  44.983  30.170  17.935
    1STR   C02269072  44.842  30.335  17.945
    1STR   H02369073  44.735  30.352  17.943
    1STR   H02469074  44.887  30.391  17.863
    1STR   H02569075  44.881  30.377  18.038
    1STR   C02669076  44.820  30.110  18.061
    1STR   H02769077  44.712  30.122  18.067
    1STR   H02869078  44.839  30.003  18.049
    1STR   O02969079  44.883  30.159  18.180
    1STR   C03069080  44.838  30.101  18.302
    1STR   H03169081  44.729  30.093  18.302
    1STR   C03269082  44.901  29.962  18.321
    1STR   H03369083  45.009  29.968  18.317
    1STR   H03469084  44.868  29.892  18.245
    1STR   H03569085  44.873  29.920  18.417
    1STR   C03669086  44.877  30.195  18.418
    1STR   H03769087  44.986  30.206  18.422
    1STR   H03869088  44.836  30.295  18.398
    1STR   O03969089  44.827  30.145  18.542
    1STR   C04069090  44.860  30.221  18.658
    1STR   H04169091  44.965  30.251  18.654
    1STR   C04269092  44.770  30.345  18.666
    1STR   H04369093  44.665  30.318  18.666
    1STR   H04469094  44.788  30.415  18.584
    1STR   H04569095  44.789  30.400  18.759
    1STR   C04669096  44.842  30.130  18.781
    1STR   H04769097  44.737  30.099  18.789
    1STR   H04869098  44.901  30.040  18.768
    1STR   O04969099  44.882  30.200  18.899
    1STR   C05069100  44.866  30.128  19.021
    1STR   H05169101  44.769  30.077  19.022
    1STR   C05269102  44.979  30.025  19.037
    1STR   H05369103  45.077  30.074  19.031
    1STR   H05469104  44.976  29.948  18.961
    1STR   H05569105  44.973  29.976  19.134
    1STR   C05669106  44.867  30.230  19.136
    1STR   H05769107  44.962  30.282  19.139
    1STR   H05869108  44.790  30.305  19.117
    1STR   O05969109  44.842  30.164  19.260
    1STR   C06069110  44.844  30.247  19.375
    1STR   H06169111  44.928  30.316  19.370
    1STR   C06269112  44.712  30.325  19.386
    1STR   H06369113  44.626  30.257  19.387
    1STR   H06469114  44.698  30.395  19.304
    1STR   H06569115  44.709  30.383  19.479
    1STR   C06669116  44.865  30.156  19.498
    1STR   H06769117  44.782  30.086  19.507
    1STR   H06869118  44.956  30.097  19.483
    1STR   O06969119  44.877  30.236  19.615
    1STR   C07069120  44.893  30.163  19.737
    1STR   H07169121  44.825  30.078  19.739
    1STR   C07269122  45.039  30.115  19.750
    1STR   H07369123  45.108  30.199  19.743
    1STR   H07469124  45.065  30.043  19.673
    1STR   H07569125  45.054  30.067  19.847
    1STR   C07669126  44.855  30.258  19.852
    1STR   H07769127  44.922  30.344  19.854
    1STR   H07869128  44.754  30.296  19.835
    1STR   O07969129  44.860  30.187  19.976
    1STR   C08069130  44.831  30.264  20.092
    1STR   H08169131  44.880  30.361  20.086
    1STR   C08269132  44.679  30.282  20.105
    1STR   H08369133  44.627  30.186  20.106
    1STR   H08469134  44.637  30.342  20.023
    1STR   H08569135  44.654  30.334  20.198
    1STR   C08669136  44.889  30.189  20.213
    1STR   H08769137  44.841  30.092  20.223
    1STR   H08869138  44.995  30.171  20.196
    1STR   O08969139  44.870  30.267  20.331
    1STR   C09069140  44.916  30.207  20.451
    1STR   H09169141  44.887  30.102  20.454
    1STR   C09269142  45.068  30.221  20.462
    1STR   H09369143  45.099  30.325  20.455
    1STR   H09469144  45.120  30.165  20.384
    1STR   H09569145  45.104  30.182  20.558
    1STR   C09669146  44.845  30.278  20.568
    1STR   H09769147  44.872  30.384  20.569
    1STR   H09869148  44.737  30.273  20.552
    1STR   O09969149  44.880  30.215  20.691
    1STR   C10069150  44.824  30.274  20.807
    1STR   H10169151  44.830  30.383  20.802
    1STR   C10269152  44.677  30.230  20.823
    1STR   H10369153  44.669  30.122  20.824
    1STR   H10469154  44.614  30.268  20.742
    1STR   H10569155  44.636  30.268  20.916
    1STR   C10669156  44.909  30.228  20.927
    1STR   H10769157  44.904  30.120  20.937
    1STR   H10869158  45.013  30.254  20.908
    1STR   O10969159  44.862  30.292  21.046
    1STR   C11069160  44.930  30.256  21.165
    1STR   H11169161  44.947  30.148  21.168
    1STR   C11269162  45.065  30.330  21.174
    1STR   H11369163  45.051  30.437  21.166
    1STR   H11469164  45.134  30.299  21.095
    1STR   H11569165  45.114  30.309  21.269
    1STR   C11669166  44.839  30.292  21.283
    1STR   H11769167  44.822  30.400  21.285
    1STR   H11869168  44.742  30.245  21.269
    1STR   O11969169  44.899  30.249  21.405
    1STR   C12069170  44.826  30.280  21.523
    1STR   H12169171  44.788  30.383  21.518
    1STR   C12269172  44.709  30.182  21.540
    1STR   H12369173  44.744  30.079  21.541
    1STR   H12469174  44.635  30.191  21.461
    1STR   H12569175  44.657  30.200  21.635
    1STR   C12669176  44.924  30.272  21.641
    1STR   H12769177  44.962  30.171  21.651
    1STR   H12869178  45.009  30.337  21.621
    1STR   O12969179  44.857  30.313  21.761
    1STR   C13069180  44.936  30.306  21.879
    1STR   H13169181  44.994  30.213  21.880
    1STR   C13269182  45.031  30.427  21.886
    1STR   H13369183  44.975  30.521  21.879
    1STR   H13469184  45.104  30.427  21.806
    1STR   H13569185  45.086  30.428  21.980
    1STR   C13669186  44.840  30.303  21.998
    1STR   H13769187  44.781  30.395  22.001
    1STR   H13869188  44.770  30.221  21.985
    1STR   O13969189  44.914  30.287  22.119
    1STR   C14069190  44.836  30.287  22.238
    1STR   H14169191  44.761  30.366  22.234
    1STR   C14269192  44.769  30.150  22.257
    1STR   H14369193  44.843  30.070  22.256
    1STR   H14469194  44.696  30.129  22.179
    1STR   H14569195  44.716  30.145  22.352
    1STR   C14669196  44.931  30.319  22.355
    1STR   H14769197  45.008  30.241  22.363
    1STR   H14869198  44.983  30.413  22.334
    1STR   O14969199  44.856  30.329  22.476
    1STR   C15069200  44.933  30.355  22.593
    1STR   H15169201  45.024  30.293  22.593
    1STR   C15269202  44.971  30.504  22.599
    1STR   H15369203  44.883  30.567  22.594
    1STR   H15469204  45.038  30.533  22.518
    1STR   H15569205  45.023  30.527  22.692
    1STR   C15669206  44.848  30.314  22.714
    1STR   H15769207  44.757  30.375  22.718
    1STR   H15869208  44.816  30.210  22.701
    1STR   O15969209  44.924  30.329  22.833
    1STR   C16069210  44.855  30.297  22.953
    1STR   H16169211  44.754  30.339  22.951
    1STR   C16269212  44.849  30.145  22.972
    1STR   H16369213  44.948  30.101  22.970
    1STR   H16469214  44.789  30.096  22.895
    1STR   H16569215  44.803  30.120  23.068
    1STR   C16669216  44.931  30.365  23.069
    1STR   H16769217  45.032  30.324  23.075
    1STR   H16869218  44.941  30.471  23.047
    1STR   O16969219  44.861  30.344  23.191
    1STR   C17069220  44.923  30.398  23.307
    1STR   H17169221  45.030  30.378  23.305
    1STR   C17269222  44.898  30.550  23.313
    1STR   H17369223  44.792  30.573  23.310
    1STR   H17469224  44.946  30.603  23.231
    1STR   H17569225  44.938  30.591  23.406
    1STR   C17669226  44.863  30.326  23.428
    1STR   H17769227  44.756  30.346  23.434
    1STR   H17869228  44.875  30.219  23.416
    1STR   O17969229  44.929  30.370  23.547
    1STR   C18069230  44.880  30.314  23.668
    1STR   H18169231  44.771  30.312  23.667
    1STR   C18269232  44.935  30.172  23.686
    1STR   H18369233  45.044  30.171  23.682
    1STR   H18469234  44.899  30.104  23.609
    1STR   H18569235  44.906  30.131  23.782
    1STR   C18669236  44.925  30.406  23.783
    1STR   H18769237  45.034  30.409  23.787
    1STR   H18869238  44.891  30.508  23.762
    1STR   O18969239  44.871  30.359  23.906
    1STR   C19069240  44.908  30.434  24.021
    1STR   H19169241  45.015  30.458  24.017
    1STR   C19269242  44.825  30.563  24.029
    1STR   H19369243  44.718  30.542  24.028
    1STR   H19469244  44.847  30.631  23.946
    1STR   H19569245  44.847  30.617  24.121
    1STR   C19669246  44.884  30.344  24.143
    1STR   H19769247  44.778  30.320  24.151
    1STR   H19869248  44.938  30.250  24.130
    1STR   O19969249  44.929  30.411  24.261
    1STR   C20069250  44.909  30.340  24.382
    1STR   H20169251  44.809  30.294  24.383
    1STR   C20269252  45.017  30.232  24.398
    1STR   H20369253  45.116  30.275  24.393
    1STR   H20469254  45.009  30.154  24.322
    1STR   H20569255  45.007  30.182  24.495
    1STR   C20669256  44.915  30.442  24.497
    1STR   H20769257  45.013  30.489  24.500
    1STR   H20869258  44.842  30.522  24.477
    1STR   O20969259  44.885  30.377  24.620
    1STR   C21069260  44.892  30.461  24.735
    1STR   H21169261  44.980  30.525  24.731
    1STR   C21269262  44.764  30.546  24.746
    1STR   H21369263  44.675  30.483  24.746
    1STR   H21469264  44.755  30.617  24.663
    1STR   H21569265  44.764  30.604  24.838
    1STR   C21669266  44.907  30.369  24.858
    1STR   H21769267  44.820  30.304  24.867
    1STR   H21869268  44.994  30.304  24.843
    1STR   O21969269  44.924  30.448  24.975
    1STR   C22069270  44.936  30.375  25.096
    1STR   H22169271  44.863  30.293  25.099
    1STR   C22269272  45.078  30.319  25.110
    1STR   H22369273  45.153  30.398  25.103
    1STR   H22469274  45.101  30.245  25.033
    1STR   H22569275  45.092  30.269  25.206
    1STR   C22669276  44.902  30.471  25.211
    1STR   H22769277  44.974  30.553  25.213
    1STR   H22869278  44.804  30.515  25.194
    1STR   O22969279  44.904  30.400  25.335
    1STR   C23069280  44.878  30.479  25.450
    1STR   H23169281  44.933  30.573  25.445
    1STR   C23269282  44.727  30.505  25.463
    1STR   H23369283  44.671  30.412  25.464
    1STR   H23469284  44.689  30.567  25.382
    1STR   H23569285  44.705  30.558  25.556
    1STR   C23669286  44.931  30.401  25.572
    1STR   H23769287  44.878  30.306  25.582
    1STR   H23869288  45.036  30.376  25.555
    1STR   O23969289  44.917  30.480  25.689
    1STR   C24069290  44.959  30.417  25.810
    1STR   H24169291  44.925  30.314  25.813
    1STR   C24269292  45.112  30.423  25.821
    1STR   H24369293  45.149  30.525  25.814
    1STR   H24469294  45.161  30.364  25.743
    1STR   H24569295  45.146  30.383  25.917
    1STR   C24669296  44.892  30.492  25.926
    1STR   H24769297  44.925  30.596  25.928
    1STR   H24869298  44.784  30.493  25.910
    1STR   O24969299  44.923  30.427  26.049
    1STR   C25069300  44.870  30.490  26.166
    1STR   H25169301  44.883  30.598  26.160
    1STR   C25269302  44.721  30.454  26.181
    1STR   H25369303  44.707  30.346  26.182
    1STR   H25469304  44.661  30.495  26.100
    1STR   H25569305  44.682  30.494  26.274
    1STR   C25669306  44.952  30.439  26.286
    1STR   H25769307  44.941  30.331  26.296
    1STR   H25869308  45.058  30.459  26.267
    1STR   O25969309  44.909  30.506  26.404
    1STR   C26069310  44.975  30.465  26.524
    1STR   H26169311  44.985  30.357  26.527
    1STR   C26269312  45.113  30.531  26.532
    1STR   H26369313  45.106  30.640  26.525
    1STR   H26469314  45.180  30.497  26.454
    1STR   H26569315  45.161  30.508  26.627
    1STR   C26669316  44.885  30.508  26.642
    1STR   H26769317  44.874  30.616  26.643
    1STR   H26869318  44.786  30.465  26.627
    1STR   O26969319  44.942  30.461  26.764
    1STR   C27069320  44.871  30.497  26.882
    1STR   H27169321  44.839  30.601  26.876
    1STR   C27269322  44.749  30.405  26.899
    1STR   H27369323  44.778  30.300  26.899
    1STR   H27469324  44.676  30.418  26.819
    1STR   H27569325  44.698  30.425  26.993
    1STR   C27669326  44.968  30.483  27.000
    1STR   H27769327  45.001  30.380  27.010
    1STR   H27869328  45.056  30.544  26.980
    1STR   O27969329  44.904  30.527  27.120
    1STR   C28069330  44.982  30.516  27.238
    1STR   H28169331  45.035  30.420  27.240
    1STR   C28269332  45.083  30.632  27.245
    1STR   H28369333  45.032  30.728  27.238
    1STR   H28469334  45.157  30.627  27.165
    1STR   H28569335  45.137  30.630  27.339
    1STR   C28669336  44.885  30.519  27.357
    1STR   H28769337  44.831  30.614  27.359
    1STR   H28869338  44.811  30.440  27.344
    1STR   O28969339  44.958  30.499  27.478
    1STR   C29069340  44.879  30.503  27.597
    1STR   H29169341  44.808  30.586  27.593
    1STR   C29269342  44.805  30.370  27.616
    1STR   H29369343  44.874  30.286  27.615
    1STR   H29469344  44.731  30.353  27.537
    1STR   H29569345  44.752  30.368  27.711
    1STR   C29669346  44.975  30.530  27.714
    1STR   H29769347  45.048  30.449  27.723
    1STR   H29869348  45.032  30.621  27.694
    1STR   O29969349  44.901  30.544  27.835
    1STR   C30069350  44.979  30.565  27.952
    1STR   H30169351  45.066  30.499  27.951
    1STR   C30269352  45.024  30.712  27.960
    1STR   H30369353  44.938  30.779  27.955
    1STR   H30469354  45.092  30.738  27.879
    1STR   H30569355  45.077  30.731  28.053
    1STR   C30669356  44.893  30.526  28.073
    1STR   H30769357  44.806  30.592  28.081
    1STR   H30869358  44.854  30.425  28.058
    1STR   O30969359  44.972  30.532  28.192
    1STR    H1R69360  44.807  30.545  28.316
    1STR    H1S69361  44.844  30.316  28.417
    1STR    H1T69362  44.987  30.295  28.318
    1STR    H1U69363  44.828  30.303  28.243
    1STR    H1V69364  45.007  30.659  28.412
    1STR    H1W69365  45.090  30.507  28.428
    1STR    H1X69366  44.820  30.530  28.740
    1STR    H1Y69367  44.702  30.480  28.933
    1STR    H1Z69368  44.683  30.357  29.144
    1STR    H2069369  44.878  30.062  29.234
    1STR    H2169370  44.899  30.210  29.327
    1STR    H2269371  44.738  30.160  29.273
    1STR    H2369372  45.084  30.049  28.997
    1STR    H2769373  45.071  30.272  28.846
    1STR    H2869374  44.681  30.179  16.378
    1STR    H2969375  44.652  30.237  16.148
    1STR    H2A69376  44.916  30.298  15.909
    1STR    H2B69377  44.749  30.324  15.953
    1STR    H2C69378  44.795  30.170  15.882
    1STR   BCK169379  45.264  30.071  30.983
    1STR    O0369380  45.384  30.052  30.967
    1STR    N0469381  45.195  30.031  31.090
    1STR    C0569382  45.239  29.940  31.186
    1STR    C0669383  45.241  29.974  31.324
    1STR    C0769384  45.281  29.881  31.423
    1STR    N0869385  45.278  29.917  31.559
    1STR    C0969386  45.330  29.854  31.665
    1STR    O0A69387  45.399  29.753  31.660
    1STR    O0B69388  45.299  29.918  31.781
    1STR    C0C69389  45.351  29.868  31.905
    1STR    C0D69390  45.494  29.921  31.924
    1STR    C0E69391  45.260  29.909  32.023
    1STR    O0F69392  45.314  29.853  32.144
    1STR    C0G69393  45.241  29.880  32.263
    1STR    C0H69394  45.119  29.786  32.271
    1STR    C0I69395  45.335  29.857  32.383
    1STR    O0J69396  45.268  29.890  32.505
    1STR    C0K69397  44.986  29.638  43.342
    1STR    C0M69398  45.107  29.732  43.355
    1STR    C0N69399  44.883  29.663  43.453
    1STR    O0O69400  44.934  29.615  43.576
    1STR    C0P69401  44.982  29.699  43.669
    1STR    O0Q69402  44.976  29.821  43.667
    1STR    N0R69403  45.038  29.624  43.763
    1STR    C0S69404  45.103  29.654  43.882
    1STR    C0T69405  45.164  29.546  43.947
    1STR    C0U69406  45.225  29.562  44.072
    1STR    C0V69407  45.223  29.687  44.136
    1STR    C0W69408  45.277  29.689  44.277
    1STR    C0X69409  45.165  29.800  44.073
    1STR    N0Y69410  45.143  29.923  44.137
    1STR   BCK269411  45.211  30.004  44.221
    1STR    O1069412  45.151  30.097  44.274
    1STR    C1369413  45.105  29.782  43.945
    1STR    C1469414  45.320  29.752  31.380
    1STR    C1569415  45.317  29.716  31.244
    1STR    C1669416  45.274  29.808  31.147
    1STR    C1769417  45.264  29.762  31.002
    1STR    H1B69418  45.100  30.065  31.096
    1STR    H1C69419  45.211  30.074  31.352
    1STR    H1D69420  45.232  30.003  31.584
    1STR    H1E69421  45.353  29.759  31.902
    1STR    H1F69422  45.497  30.029  31.928
    1STR    H1G69423  45.538  29.882  32.016
    1STR    H1H69424  45.559  29.888  31.842
    1STR    H1I69425  45.159  29.871  32.005
    1STR    H1J69426  45.253  30.017  32.031
    1STR    H1K69427  45.208  29.984  32.265
    1STR    H1M69428  45.149  29.682  32.265
    1STR    H1N69429  45.047  29.805  32.191
    1STR    H1O69430  45.066  29.800  32.365
    1STR    H1P69431  45.369  29.753  32.385
    1STR    H1Q69432  45.424  29.919  32.371
    1STR   C01069433  45.343  29.869  32.625
    1STR   H01169434  45.393  29.773  32.621
    1STR   C01269435  45.446  29.982  32.643
    1STR   H01369436  45.398  30.080  32.642
    1STR   H01469437  45.522  29.981  32.565
    1STR   H01569438  45.497  29.972  32.738
    1STR   C01669439  45.243  29.866  32.742
    1STR   H01769440  45.190  29.961  32.749
    1STR   H01869441  45.168  29.789  32.723
    1STR   O01969442  45.311  29.838  32.865
    1STR   C02069443  45.229  29.837  32.982
    1STR   H02169444  45.159  29.920  32.980
    1STR   C02269445  45.152  29.704  32.989
    1STR   H02369446  45.220  29.619  32.987
    1STR   H02469447  45.081  29.693  32.907
    1STR   H02569448  45.095  29.698  33.082
    1STR   C02669449  45.320  29.854  33.105
    1STR   H02769450  45.391  29.772  33.111
    1STR   H02869451  45.379  29.946  33.093
    1STR   O02969452  45.241  29.861  33.223
    1STR   C03069453  45.314  29.874  33.345
    1STR   H03169454  45.400  29.806  33.345
    1STR   C03269455  45.362  30.019  33.363
    1STR   H03369456  45.278  30.088  33.359
    1STR   H03469457  45.434  30.048  33.287
    1STR   H03569458  45.411  30.032  33.460
    1STR   C03669459  45.221  29.831  33.460
    1STR   H03769460  45.134  29.898  33.465
    1STR   H03869461  45.183  29.731  33.440
    1STR   O03969462  45.292  29.834  33.584
    1STR   C04069463  45.216  29.801  33.700
    1STR   H04169464  45.119  29.850  33.696
    1STR   C04269465  45.198  29.648  33.708
    1STR   H04369466  45.295  29.597  33.707
    1STR   H04469467  45.139  29.609  33.626
    1STR   H04569468  45.147  29.620  33.800
    1STR   C04669469  45.291  29.855  33.822
    1STR   H04769470  45.389  29.807  33.830
    1STR   H04869471  45.309  29.961  33.809
    1STR   O04969472  45.214  29.831  33.940
    1STR   C05069473  45.275  29.873  34.062
    1STR   H05169474  45.380  29.846  34.063
    1STR   C05269475  45.260  30.026  34.078
    1STR   H05369476  45.156  30.056  34.072
    1STR   H05469477  45.315  30.080  34.002
    1STR   H05569478  45.299  30.058  34.175
    1STR   C05669479  45.205  29.798  34.177
    1STR   H05769480  45.099  29.825  34.180
    1STR   H05869481  45.211  29.691  34.158
    1STR   O05969482  45.269  29.831  34.301
    1STR   C06069483  45.211  29.770  34.416
    1STR   H06169484  45.102  29.776  34.411
    1STR   C06269485  45.256  29.624  34.427
    1STR   H06369486  45.364  29.616  34.427
    1STR   H06469487  45.218  29.563  34.345
    1STR   H06569488  45.219  29.579  34.519
    1STR   C06669489  45.257  29.852  34.538
    1STR   H06769490  45.365  29.847  34.548
    1STR   H06869491  45.230  29.957  34.523
    1STR   O06969492  45.194  29.801  34.656
    1STR   C07069493  45.231  29.865  34.777
    1STR   H07169494  45.339  29.882  34.780
    1STR   C07269495  45.156  29.999  34.791
    1STR   H07369496  45.048  29.985  34.784
    1STR   H07469497  45.186  30.071  34.714
    1STR   H07569498  45.177  30.046  34.887
    1STR   C07669499  45.195  29.770  34.893
    1STR   H07769500  45.088  29.752  34.895
    1STR   H07869501  45.244  29.674  34.875
    1STR   O07969502  45.239  29.826  35.016
    1STR   C08069503  45.209  29.749  35.132
    1STR   H08169504  45.107  29.711  35.126
    1STR   C08269505  45.308  29.633  35.145
    1STR   H08369506  45.411  29.669  35.147
    1STR   H08469507  45.299  29.561  35.064
    1STR   H08569508  45.291  29.578  35.238
    1STR   C08669509  45.217  29.844  35.253
    1STR   H08769510  45.318  29.883  35.263
    1STR   H08869511  45.151  29.929  35.236
    1STR   O08969512  45.178  29.773  35.371
    1STR   C09069513  45.185  29.848  35.492
    1STR   H09169514  45.277  29.907  35.494
    1STR   C09269515  45.063  29.941  35.502
    1STR   H09369516  44.970  29.885  35.495
    1STR   H09469517  45.062  30.018  35.425
    1STR   H09569518  45.063  29.994  35.598
    1STR   C09669519  45.189  29.748  35.608
    1STR   H09769520  45.097  29.689  35.609
    1STR   H09869521  45.272  29.679  35.592
    1STR   O09969522  45.206  29.818  35.731
    1STR   C10069523  45.207  29.737  35.848
    1STR   H10169524  45.129  29.661  35.842
    1STR   C10269525  45.345  29.670  35.863
    1STR   H10369526  45.425  29.745  35.864
    1STR   H10469527  45.366  29.600  35.782
    1STR   H10569528  45.350  29.614  35.956
    1STR   C10669529  45.175  29.828  35.967
    1STR   H10769530  45.252  29.905  35.977
    1STR   H10869531  45.081  29.880  35.948
    1STR   O10969532  45.166  29.749  36.086
    1STR   C11069533  45.141  29.822  36.205
    1STR   H11169534  45.202  29.913  36.208
    1STR   C11269535  44.992  29.859  36.214
    1STR   H11369536  44.929  29.770  36.206
    1STR   H11469537  44.962  29.928  36.135
    1STR   H11569538  44.969  29.907  36.308
    1STR   C11669539  45.184  29.733  36.323
    1STR   H11769540  45.123  29.642  36.325
    1STR   H11869541  45.287  29.703  36.309
    1STR   O11969542  45.169  29.806  36.445
    1STR   C12069543  45.202  29.733  36.563
    1STR   H12169544  45.161  29.632  36.558
    1STR   C12269545  45.354  29.727  36.580
    1STR   H12369546  45.398  29.827  36.581
    1STR   H12469547  45.403  29.670  36.501
    1STR   H12569548  45.381  29.679  36.675
    1STR   C12669549  45.135  29.806  36.681
    1STR   H12769550  45.175  29.907  36.691
    1STR   H12869551  45.028  29.815  36.661
    1STR   O12969552  45.156  29.731  36.801
    1STR   C13069553  45.102  29.789  36.919
    1STR   H13169554  45.122  29.897  36.920
    1STR   C13269555  44.951  29.763  36.926
    1STR   H13369556  44.929  29.657  36.919
    1STR   H13469557  44.897  29.814  36.846
    1STR   H13569558  44.910  29.800  37.020
    1STR   C13669559  45.176  29.726  37.038
    1STR   H13769560  45.157  29.619  37.041
    1STR   H13869561  45.283  29.740  37.025
    1STR   O13969562  45.132  29.788  37.159
    1STR   C14069563  45.189  29.736  37.278
    1STR   H14169564  45.192  29.627  37.274
    1STR   C14269565  45.331  29.791  37.297
    1STR   H14369566  45.331  29.900  37.296
    1STR   H14469567  45.399  29.757  37.219
    1STR   H14569568  45.374  29.759  37.392
    1STR   C14669569  45.098  29.776  37.395
    1STR   H14769570  45.094  29.885  37.403
    1STR   H14869571  44.996  29.742  37.374
    1STR   O14969572  45.146  29.718  37.516
    1STR   C15069573  45.072  29.751  37.633
    1STR   H15169574  45.047  29.858  37.633
    1STR   C15269575  44.943  29.667  37.639
    1STR   H15369576  44.966  29.561  37.634
    1STR   H15469577  44.875  29.691  37.557
    1STR   H15569578  44.890  29.685  37.732
    1STR   C15669579  45.163  29.724  37.754
    1STR   H15769580  45.188  29.618  37.758
    1STR   H15869581  45.256  29.779  37.741
    1STR   O15969582  45.096  29.765  37.873
    1STR   C16069583  45.168  29.741  37.993
    1STR   H16169584  45.215  29.642  37.991
    1STR   C16269585  45.276  29.849  38.012
    1STR   H16369586  45.232  29.949  38.010
    1STR   H16469587  45.353  29.844  37.935
    1STR   H16569588  45.327  29.837  38.108
    1STR   C16669589  45.067  29.743  38.109
    1STR   H16769590  45.020  29.841  38.115
    1STR   H16869591  44.988  29.670  38.087
    1STR   O16969592  45.133  29.710  38.231
    1STR   C17069593  45.050  29.712  38.347
    1STR   H17169594  44.985  29.799  38.345
    1STR   C17269595  44.966  29.583  38.353
    1STR   H17369596  45.030  29.495  38.350
    1STR   H17469597  44.895  29.576  38.271
    1STR   H17569598  44.909  29.580  38.446
    1STR   C17669599  45.143  29.725  38.469
    1STR   H17769600  45.209  29.638  38.474
    1STR   H17869601  45.206  29.812  38.456
    1STR   O17969602  45.064  29.737  38.587
    1STR   C18069603  45.139  29.745  38.708
    1STR   H18169604  45.220  29.673  38.707
    1STR   C18269605  45.194  29.888  38.726
    1STR   H18369606  45.114  29.962  38.722
    1STR   H18469607  45.267  29.913  38.649
    1STR   H18569608  45.244  29.898  38.822
    1STR   C18669609  45.043  29.708  38.823
    1STR   H18769610  44.961  29.779  38.827
    1STR   H18869611  45.000  29.610  38.802
    1STR   O18969612  45.115  29.705  38.945
    1STR   C19069613  45.037  29.676  39.061
    1STR   H19169614  44.942  29.730  39.057
    1STR   C19269615  45.011  29.524  39.069
    1STR   H19369616  45.105  29.468  39.068
    1STR   H19469617  44.950  29.489  38.986
    1STR   H19569618  44.959  29.499  39.161
    1STR   C19669619  45.116  29.726  39.183
    1STR   H19769620  45.211  29.672  39.191
    1STR   H19869621  45.139  29.831  39.170
    1STR   O19969622  45.037  29.707  39.301
    1STR   C20069623  45.100  29.746  39.422
    1STR   H20169624  45.204  29.712  39.423
    1STR   C20269625  45.094  29.898  39.438
    1STR   H20369626  44.991  29.934  39.433
    1STR   H20469627  45.151  29.950  39.362
    1STR   H20569628  45.134  29.929  39.535
    1STR   C20669629  45.027  29.674  39.537
    1STR   H20769630  44.922  29.706  39.540
    1STR   H20869631  45.026  29.567  39.517
    1STR   O20969632  45.092  29.702  39.660
    1STR   C21069633  45.031  29.645  39.775
    1STR   H21169634  44.923  29.657  39.771
    1STR   C21269635  45.068  29.496  39.785
    1STR   H21369636  45.176  29.482  39.786
    1STR   H21469637  45.027  29.438  39.703
    1STR   H21569638  45.029  29.453  39.878
    1STR   C21669639  45.082  29.724  39.897
    1STR   H21769640  45.190  29.713  39.907
    1STR   H21869641  45.061  29.830  39.882
    1STR   O21969642  45.016  29.676  40.015
    1STR   C22069643  45.057  29.738  40.136
    1STR   H22169644  45.166  29.749  40.138
    1STR   C22269645  44.990  29.876  40.150
    1STR   H22369646  44.881  29.868  40.143
    1STR   H22469647  45.023  29.946  40.073
    1STR   H22569648  45.013  29.921  40.246
    1STR   C22669649  45.016  29.645  40.251
    1STR   H22769650  44.908  29.633  40.253
    1STR   H22869651  45.059  29.546  40.233
    1STR   O22969652  45.064  29.698  40.375
    1STR   C23069653  45.029  29.623  40.490
    1STR   H23169654  44.925  29.590  40.484
    1STR   C23269655  45.122  29.501  40.503
    1STR   H23369656  45.227  29.531  40.504
    1STR   H23469657  45.109  29.430  40.421
    1STR   H23569658  45.102  29.447  40.596
    1STR   C23669659  45.042  29.716  40.611
    1STR   H23769660  45.146  29.750  40.622
    1STR   H23869661  44.981  29.805  40.595
    1STR   O23969662  45.000  29.648  40.729
    1STR   C24069663  45.011  29.723  40.850
    1STR   H24169664  45.106  29.776  40.852
    1STR   C24269665  44.894  29.822  40.861
    1STR   H24369666  44.798  29.771  40.853
    1STR   H24469667  44.897  29.898  40.783
    1STR   H24569668  44.897  29.874  40.957
    1STR   C24669669  45.010  29.622  40.966
    1STR   H24769670  44.915  29.568  40.967
    1STR   H24869671  45.089  29.548  40.950
    1STR   O24969672  45.030  29.691  41.088
    1STR   C25069673  45.028  29.609  41.205
    1STR   H25169674  44.945  29.538  41.199
    1STR   C25269675  45.161  29.535  41.220
    1STR   H25369676  45.245  29.605  41.222
    1STR   H25469677  45.178  29.464  41.140
    1STR   H25569678  45.164  29.479  41.314
    1STR   C25669679  45.001  29.702  41.325
    1STR   H25769680  45.082  29.774  41.335
    1STR   H25869681  44.910  29.759  41.306
    1STR   O25969682  44.987  29.624  41.443
    1STR   C26069683  44.966  29.698  41.562
    1STR   H26169684  45.032  29.785  41.565
    1STR   C26269685  44.820  29.743  41.571
    1STR   H26369686  44.752  29.657  41.564
    1STR   H26469687  44.793  29.813  41.493
    1STR   H26569688  44.800  29.792  41.666
    1STR   C26669689  45.004  29.606  41.680
    1STR   H26769690  44.939  29.519  41.681
    1STR   H26869691  45.106  29.570  41.665
    1STR   O26969692  44.994  29.680  41.801
    1STR   C27069693  45.023  29.605  41.919
    1STR   H27169694  44.976  29.506  41.913
    1STR   C27269695  45.175  29.590  41.937
    1STR   H27369696  45.224  29.688  41.938
    1STR   H27469697  45.220  29.531  41.857
    1STR   H27569698  45.198  29.541  42.031
    1STR   C27669699  44.960  29.680  42.037
    1STR   H27769700  45.005  29.779  42.047
    1STR   H27869701  44.853  29.696  42.017
    1STR   O27969702  44.977  29.604  42.156
    1STR   C28069703  44.927  29.665  42.274
    1STR   H28169704  44.953  29.771  42.276
    1STR   C28269705  44.775  29.647  42.283
    1STR   H28369706  44.747  29.542  42.276
    1STR   H28469707  44.723  29.701  42.203
    1STR   H28569708  44.737  29.686  42.377
    1STR   C28669709  44.998  29.597  42.392
    1STR   H28769710  44.974  29.491  42.395
    1STR   H28869711  45.106  29.605  42.379
    1STR   O28969712  44.959  29.662  42.513
    1STR   C29069713  45.013  29.605  42.632
    1STR   H29169714  45.009  29.496  42.627
    1STR   C29269715  45.157  29.653  42.652
    1STR   H29369716  45.163  29.762  42.653
    1STR   H29469717  45.224  29.617  42.574
    1STR   H29569718  45.197  29.618  42.747
    1STR   C29669719  44.922  29.651  42.747
    1STR   H29769720  44.924  29.759  42.755
    1STR   H29869721  44.819  29.622  42.725
    1STR   O29969722  44.966  29.590  42.868
    1STR   C30069723  44.892  29.630  42.983
    1STR   H30169724  44.871  29.737  42.980
    1STR   C30269725  44.761  29.550  42.992
    1STR   H30369726  44.780  29.443  42.990
    1STR   H30469727  44.694  29.574  42.909
    1STR   H30569728  44.708  29.573  43.084
    1STR   C30669729  44.982  29.604  43.105
    1STR   H30769730  45.000  29.497  43.117
    1STR   H30869731  45.079  29.651  43.088
    1STR   O30969732  44.919  29.660  43.219
    1STR    H1R69733  45.018  29.534  43.349
    1STR    H1S69734  45.157  29.718  43.451
    1STR    H1T69735  45.076  29.837  43.350
    1STR    H1U69736  45.181  29.715  43.277
    1STR    H1V69737  44.792  29.607  43.432
    1STR    H1W69738  44.853  29.768  43.458
    1STR    H1X69739  45.030  29.528  43.738
    1STR    H1Y69740  45.164  29.447  43.902
    1STR    H1Z69741  45.269  29.477  44.120
    1STR    H2069742  45.382  29.719  44.275
    1STR    H2169743  45.218  29.756  44.339
    1STR    H2269744  45.273  29.591  44.324
    1STR    H2369745  45.053  29.965  44.118
    1STR    H2769746  45.057  29.865  43.896
    1STR    H2869747  45.351  29.675  31.449
    1STR    H2969748  45.346  29.616  31.215
    1STR    H2A69749  45.174  29.801  30.955
    1STR    H2B69750  45.260  29.653  30.996
    1STR    H2C69751  45.351  29.796  30.946
    1STR   BCK169752  45.182  30.153  46.003
    1STR    O0369753  45.100  30.226  45.948
    1STR    N0469754  45.221  30.163  46.130
    1STR    C0569755  45.198  30.267  46.221
    1STR    C0669756  45.166  30.237  46.357
    1STR    C0769757  45.151  30.339  46.455
    1STR    N0869758  45.127  30.305  46.590
    1STR    C0969759  45.136  30.382  46.700
    1STR    O0A69760  45.168  30.500  46.700
    1STR    O0B69761  45.107  30.313  46.814
    1STR    C0C69762  45.098  30.384  46.939
    1STR    C0D69763  44.957  30.444  46.953
    1STR    C0E69764  45.134  30.294  47.060
    1STR    O0F69765  45.130  30.373  47.180
    1STR    C0G69766  45.166  30.306  47.301
    1STR    C0H69767  45.319  30.294  47.309
    1STR    C0I69768  45.111  30.387  47.420
    1STR    O0J69769  45.139  30.319  47.543
    1STR    C0K69770  45.526  30.339  58.383
    1STR    C0M69771  45.373  30.335  58.400
    1STR    C0N69772  45.600  30.267  58.497
    1STR    O0O69773  45.584  30.337  58.620
    1STR    C0P69774  45.496  30.294  58.711
    1STR    O0Q69775  45.422  30.197  58.697
    1STR    N0R69776  45.500  30.375  58.817
    1STR    C0S69777  45.429  30.370  58.937
    1STR    C0T69778  45.437  30.482  59.023
    1STR    C0U69779  45.366  30.485  59.145
    1STR    C0V69780  45.285  30.376  59.183
    1STR    C0W69781  45.204  30.384  59.312
    1STR    C0X69782  45.278  30.262  59.100
    1STR    N0Y69783  45.198  30.153  59.132
    1STR   BCK269784  45.215  30.061  59.227
    1STR    O1069785  45.135  29.970  59.239
    1STR    C1369786  45.349  30.260  58.978
    1STR    C1469787  45.162  30.473  46.412
    1STR    C1569788  45.197  30.504  46.280
    1STR    C1669789  45.218  30.403  46.185
    1STR    C1769790  45.271  30.445  46.049
    1STR    H1B69791  45.279  30.087  46.161
    1STR    H1C69792  45.155  30.133  46.386
    1STR    H1D69793  45.102  30.210  46.612
    1STR    H1E69794  45.171  30.466  46.939
    1STR    H1F69795  44.881  30.366  46.956
    1STR    H1G69796  44.949  30.502  47.045
    1STR    H1H69797  44.935  30.511  46.870
    1STR    H1I69798  45.234  30.253  47.044
    1STR    H1J69799  45.065  30.210  47.067
    1STR    H1K69800  45.120  30.207  47.304
    1STR    H1M69801  45.367  30.392  47.302
    1STR    H1N69802  45.360  30.231  47.230
    1STR    H1O69803  45.349  30.250  47.404
    1STR    H1P69804  45.156  30.487  47.422
    1STR    H1Q69805  45.004  30.401  47.408
    1STR   C01069806  45.098  30.385  47.663
    1STR   H01169807  45.126  30.491  47.658
    1STR   C01269808  44.946  30.372  47.681
    1STR   H01369809  44.915  30.268  47.681
    1STR   H01469810  44.891  30.424  47.603
    1STR   H01569811  44.915  30.415  47.776
    1STR   C01669812  45.174  30.321  47.781
    1STR   H01769813  45.149  30.215  47.787
    1STR   H01869814  45.281  30.327  47.761
    1STR   O01969815  45.142  30.387  47.903
    1STR   C02069816  45.203  30.333  48.020
    1STR   H02169817  45.198  30.224  48.018
    1STR   C02269818  45.350  30.379  48.028
    1STR   H02369819  45.358  30.487  48.025
    1STR   H02469820  45.410  30.339  47.946
    1STR   H02569821  45.396  30.345  48.121
    1STR   C02669822  45.124  30.382  48.144
    1STR   H02769823  45.127  30.491  48.150
    1STR   H02869824  45.020  30.354  48.132
    1STR   O02969825  45.178  30.323  48.262
    1STR   C03069826  45.116  30.363  48.384
    1STR   H03169827  45.099  30.471  48.384
    1STR   C03269828  44.983  30.288  48.402
    1STR   H03369829  44.998  30.181  48.399
    1STR   H03469830  44.910  30.315  48.326
    1STR   H03569831  44.939  30.312  48.499
    1STR   C03669832  45.214  30.332  48.500
    1STR   H03769833  45.233  30.225  48.504
    1STR   H03869834  45.309  30.381  48.480
    1STR   O03969835  45.159  30.378  48.623
    1STR   C04069836  45.238  30.351  48.739
    1STR   H04169837  45.277  30.249  48.735
    1STR   C04269838  45.354  30.451  48.748
    1STR   H04369839  45.317  30.554  48.747
    1STR   H04469840  45.424  30.440  48.666
    1STR   H04569841  45.410  30.437  48.840
    1STR   C04669842  45.146  30.362  48.862
    1STR   H04769843  45.106  30.463  48.870
    1STR   H04869844  45.061  30.295  48.849
    1STR   O04969845  45.218  30.327  48.980
    1STR   C05069846  45.145  30.337  49.102
    1STR   H05169847  45.086  30.429  49.103
    1STR   C05269848  45.053  30.215  49.118
    1STR   H05369849  45.110  30.122  49.112
    1STR   H05469850  44.976  30.212  49.041
    1STR   H05569851  45.003  30.217  49.214
    1STR   C05669852  45.247  30.345  49.217
    1STR   H05769853  45.307  30.254  49.220
    1STR   H05869854  45.316  30.428  49.198
    1STR   O05969855  45.179  30.364  49.340
    1STR   C06069856  45.262  30.370  49.456
    1STR   H06169857  45.339  30.292  49.451
    1STR   C06269858  45.328  30.508  49.467
    1STR   H06369859  45.253  30.587  49.467
    1STR   H06469860  45.397  30.527  49.385
    1STR   H06569861  45.385  30.516  49.559
    1STR   C06669862  45.173  30.340  49.578
    1STR   H06769863  45.096  30.417  49.588
    1STR   H06869864  45.122  30.245  49.563
    1STR   O06969865  45.254  30.336  49.696
    1STR   C07069866  45.183  30.313  49.817
    1STR   H07169867  45.092  30.374  49.820
    1STR   C07269868  45.148  30.164  49.831
    1STR   H07369869  45.237  30.102  49.824
    1STR   H07469870  45.078  30.131  49.754
    1STR   H07569871  45.101  30.144  49.927
    1STR   C07669872  45.274  30.360  49.933
    1STR   H07769873  45.365  30.300  49.934
    1STR   H07869874  45.303  30.463  49.915
    1STR   O07969875  45.203  30.348  50.056
    1STR   C08069876  45.278  30.384  50.172
    1STR   H08169877  45.379  30.343  50.166
    1STR   C08269878  45.283  30.537  50.185
    1STR   H08369879  45.183  30.580  50.187
    1STR   H08469880  45.339  30.584  50.104
    1STR   H08569881  45.333  30.566  50.278
    1STR   C08669882  45.208  30.320  50.293
    1STR   H08769883  45.107  30.359  50.303
    1STR   H08869884  45.199  30.213  50.276
    1STR   O08969885  45.285  30.345  50.411
    1STR   C09069886  45.229  30.295  50.532
    1STR   H09169887  45.121  30.314  50.534
    1STR   C09269888  45.256  30.144  50.542
    1STR   H09369889  45.362  30.122  50.535
    1STR   H09469890  45.205  30.087  50.465
    1STR   H09569891  45.221  30.105  50.638
    1STR   C09669892  45.293  30.371  50.648
    1STR   H09769893  45.401  30.353  50.649
    1STR   H09869894  45.279  30.478  50.632
    1STR   O09969895  45.234  30.331  50.771
    1STR   C10069896  45.288  30.392  50.888
    1STR   H10169897  45.397  30.395  50.882
    1STR   C10269898  45.231  30.534  50.903
    1STR   H10369899  45.122  30.533  50.904
    1STR   H10469900  45.263  30.600  50.822
    1STR   H10569901  45.265  30.579  50.996
    1STR   C10669902  45.249  30.303  51.007
    1STR   H10769903  45.141  30.299  51.017
    1STR   H10869904  45.284  30.202  50.989
    1STR   O10969905  45.309  30.355  51.126
    1STR   C11069906  45.278  30.284  51.245
    1STR   H11169907  45.172  30.259  51.248
    1STR   C11269908  45.364  30.157  51.254
    1STR   H11369909  45.470  30.180  51.247
    1STR   H11469910  45.340  30.086  51.175
    1STR   H11569911  45.347  30.105  51.349
    1STR   C11669912  45.307  30.379  51.363
    1STR   H11769913  45.413  30.405  51.365
    1STR   H11869914  45.251  30.471  51.349
    1STR   O11969915  45.269  30.315  51.485
    1STR   C12069916  45.294  30.391  51.603
    1STR   H12169917  45.393  30.438  51.598
    1STR   C12269918  45.185  30.498  51.620
    1STR   H12369919  45.086  30.454  51.621
    1STR   H12469920  45.188  30.573  51.541
    1STR   H12569921  45.199  30.552  51.715
    1STR   C12669922  45.295  30.292  51.721
    1STR   H12769923  45.197  30.245  51.731
    1STR   H12869924  45.367  30.213  51.701
    1STR   O12969925  45.329  30.362  51.841
    1STR   C13069926  45.329  30.283  51.959
    1STR   H13169927  45.242  30.217  51.960
    1STR   C13269928  45.458  30.199  51.966
    1STR   H13369929  45.547  30.263  51.959
    1STR   H13469930  45.464  30.126  51.885
    1STR   H13569931  45.464  30.145  52.060
    1STR   C13669932  45.318  30.379  52.078
    1STR   H13769933  45.405  30.445  52.081
    1STR   H13869934  45.230  30.441  52.065
    1STR   O13969935  45.309  30.303  52.199
    1STR   C14069936  45.301  30.381  52.318
    1STR   H14169937  45.373  30.463  52.314
    1STR   C14269938  45.159  30.435  52.337
    1STR   H14369939  45.086  30.355  52.336
    1STR   H14469940  45.132  30.506  52.259
    1STR   H14569941  45.150  30.488  52.432
    1STR   C14669942  45.342  30.289  52.435
    1STR   H14769943  45.271  30.206  52.443
    1STR   H14869944  45.440  30.246  52.414
    1STR   O14969945  45.346  30.364  52.556
    1STR   C15069946  45.378  30.290  52.673
    1STR   H15169947  45.324  30.195  52.673
    1STR   C15269948  45.529  30.265  52.679
    1STR   H15369949  45.585  30.359  52.674
    1STR   H15469950  45.564  30.202  52.598
    1STR   H15569951  45.556  30.216  52.772
    1STR   C15669952  45.329  30.372  52.793
    1STR   H15769953  45.382  30.467  52.798
    1STR   H15869954  45.223  30.394  52.781
    1STR   O15969955  45.350  30.297  52.913
    1STR   C16069956  45.313  30.363  53.033
    1STR   H16169957  45.346  30.467  53.031
    1STR   C16269958  45.161  30.356  53.052
    1STR   H16369959  45.125  30.253  53.050
    1STR   H16469960  45.107  30.412  52.975
    1STR   H16569961  45.132  30.399  53.148
    1STR   C16669962  45.387  30.293  53.149
    1STR   H16769963  45.355  30.189  53.155
    1STR   H16869964  45.494  30.292  53.127
    1STR   O16969965  45.360  30.362  53.271
    1STR   C17069966  45.420  30.304  53.387
    1STR   H17169967  45.409  30.196  53.385
    1STR   C17269968  45.569  30.342  53.393
    1STR   H17369969  45.582  30.450  53.390
    1STR   H17469970  45.626  30.298  53.311
    1STR   H17569971  45.614  30.306  53.486
    1STR   C17669972  45.343  30.358  53.508
    1STR   H17769973  45.353  30.466  53.514
    1STR   H17869974  45.237  30.336  53.496
    1STR   O17969975  45.393  30.296  53.627
    1STR   C18069976  45.332  30.340  53.748
    1STR   H18169977  45.321  30.448  53.747
    1STR   C18269978  45.195  30.272  53.766
    1STR   H18369979  45.204  30.164  53.762
    1STR   H18469980  45.124  30.303  53.689
    1STR   H18569981  45.152  30.299  53.862
    1STR   C18669982  45.428  30.303  53.863
    1STR   H18769983  45.440  30.195  53.867
    1STR   H18869984  45.526  30.346  53.842
    1STR   O18969985  45.376  30.353  53.986
    1STR   C19069986  45.454  30.322  54.101
    1STR   H19169987  45.487  30.218  54.097
    1STR   C19269988  45.576  30.416  54.109
    1STR   H19369989  45.545  30.521  54.108
    1STR   H19469990  45.645  30.401  54.026
    1STR   H19569991  45.631  30.399  54.201
    1STR   C19669992  45.363  30.339  54.223
    1STR   H19769993  45.329  30.442  54.231
    1STR   H19869994  45.274  30.277  54.210
    1STR   O19969995  45.433  30.300  54.341
    1STR   C20069996  45.360  30.314  54.462
    1STR   H20169997  45.306  30.408  54.463
    1STR   C20269998  45.262  30.196  54.478
    1STR   H20369999  45.314  30.101  54.473
    1STR   H20470000  45.184  30.197  54.402
    1STR   H20570001  45.212  30.201  54.575
    1STR   C20670002  45.463  30.316  54.577
    1STR   H20770003  45.518  30.222  54.580
    1STR   H20870004  45.535  30.395  54.557
    1STR   O20970005  45.396  30.340  54.700
    1STR   C21070006  45.479  30.341  54.816
    1STR   H21170007  45.551  30.259  54.811
    1STR   C21270008  45.553  30.475  54.826
    1STR   H21370009  45.483  30.559  54.826
    1STR   H21470010  45.623  30.490  54.743
    1STR   H21570011  45.611  30.481  54.918
    1STR   C21670012  45.389  30.317  54.938
    1STR   H21770013  45.316  30.398  54.947
    1STR   H21870014  45.332  30.225  54.922
    1STR   O21970015  45.469  30.307  55.055
    1STR   C22070016  45.397  30.289  55.176
    1STR   H22170017  45.310  30.355  55.179
    1STR   C22270018  45.354  30.142  55.190
    1STR   H22370019  45.440  30.075  55.183
    1STR   H22470020  45.282  30.113  55.113
    1STR   H22570021  45.306  30.125  55.286
    1STR   C22670022  45.490  30.331  55.291
    1STR   H22770023  45.578  30.267  55.293
    1STR   H22870024  45.525  30.433  55.273
    1STR   O22970025  45.419  30.323  55.415
    1STR   C23070026  45.496  30.356  55.530
    1STR   H23170027  45.595  30.309  55.525
    1STR   C23270028  45.510  30.508  55.543
    1STR   H23370029  45.412  30.557  55.544
    1STR   H23470030  45.567  30.551  55.461
    1STR   H23570031  45.561  30.535  55.636
    1STR   C23670032  45.423  30.296  55.651
    1STR   H23770033  45.324  30.341  55.662
    1STR   H23870034  45.408  30.189  55.635
    1STR   O23970035  45.501  30.317  55.769
    1STR   C24070036  45.442  30.270  55.890
    1STR   H24170037  45.336  30.295  55.893
    1STR   C24270038  45.461  30.118  55.901
    1STR   H24370039  45.566  30.091  55.894
    1STR   H24470040  45.407  30.064  55.823
    1STR   H24570041  45.424  30.081  55.997
    1STR   C24670042  45.511  30.343  56.006
    1STR   H24770043  45.617  30.320  56.007
    1STR   H24870044  45.502  30.451  55.990
    1STR   O24970045  45.449  30.306  56.129
    1STR   C25070046  45.506  30.365  56.245
    1STR   H25170047  45.615  30.362  56.239
    1STR   C25270048  45.458  30.510  56.260
    1STR   H25370049  45.349  30.515  56.262
    1STR   H25470050  45.493  30.574  56.180
    1STR   H25570051  45.494  30.553  56.354
    1STR   C25670052  45.463  30.278  56.365
    1STR   H25770053  45.355  30.280  56.375
    1STR   H25870054  45.492  30.175  56.346
    1STR   O25970055  45.526  30.327  56.483
    1STR   C26070056  45.491  30.258  56.603
    1STR   H26170057  45.384  30.238  56.605
    1STR   C26270058  45.570  30.126  56.612
    1STR   H26370059  45.677  30.143  56.605
    1STR   H26470060  45.542  30.056  56.533
    1STR   H26570061  45.550  30.076  56.707
    1STR   C26670062  45.525  30.351  56.720
    1STR   H26770063  45.632  30.372  56.722
    1STR   H26870064  45.474  30.447  56.705
    1STR   O26970065  45.483  30.291  56.842
    1STR   C27070066  45.513  30.365  56.959
    1STR   H27170067  45.614  30.406  56.954
    1STR   C27270068  45.411  30.478  56.977
    1STR   H27370069  45.309  30.440  56.978
    1STR   H27470070  45.417  30.552  56.898
    1STR   H27570071  45.427  30.531  57.071
    1STR   C27670072  45.508  30.266  57.077
    1STR   H27770073  45.408  30.225  57.087
    1STR   H27870074  45.576  30.183  57.057
    1STR   O27970075  45.547  30.334  57.196
    1STR   C28070076  45.543  30.255  57.315
    1STR   H28170077  45.452  30.194  57.316
    1STR   C28270078  45.667  30.166  57.322
    1STR   H28370079  45.759  30.225  57.316
    1STR   H28470080  45.670  30.092  57.243
    1STR   H28570081  45.670  30.111  57.417
    1STR   C28670082  45.536  30.353  57.433
    1STR   H28770083  45.626  30.414  57.436
    1STR   H28870084  45.451  30.420  57.420
    1STR   O28970085  45.522  30.278  57.554
    1STR   C29070086  45.520  30.357  57.672
    1STR   H29170087  45.596  30.435  57.668
    1STR   C29270088  45.381  30.419  57.692
    1STR   H29370089  45.303  30.342  57.693
    1STR   H29470090  45.357  30.491  57.614
    1STR   H29570091  45.376  30.472  57.787
    1STR   C29670092  45.556  30.263  57.788
    1STR   H29770093  45.481  30.184  57.798
    1STR   H29870094  45.651  30.214  57.767
    1STR   O29970095  45.566  30.339  57.908
    1STR   C30070096  45.593  30.263  58.025
    1STR   H30170097  45.534  30.171  58.025
    1STR   C30270098  45.743  30.230  58.033
    1STR   H30370099  45.803  30.321  58.029
    1STR   H30470100  45.775  30.165  57.952
    1STR   H30570101  45.766  30.179  58.127
    1STR   C30670102  45.547  30.348  58.144
    1STR   H30770103  45.605  30.441  58.149
    1STR   H30870104  45.443  30.376  58.130
    1STR   O30970105  45.564  30.272  58.264
    1STR    H1R70106  45.561  30.443  58.381
    1STR    H1S70107  45.342  30.382  58.493
    1STR    H1T70108  45.337  30.232  58.403
    1STR    H1U70109  45.321  30.386  58.319
    1STR    H1V70110  45.706  30.263  58.475
    1STR    H1W70111  45.567  30.163  58.505
    1STR    H1X70112  45.566  30.450  58.803
    1STR    H1Y70113  45.497  30.568  58.997
    1STR    H1Z70114  45.372  30.572  59.208
    1STR    H2070115  45.107  30.336  59.299
    1STR    H2170116  45.257  30.334  59.392
    1STR    H2270117  45.187  30.488  59.341
    1STR    H2370118  45.120  30.133  59.072
    1STR    H2770119  45.342  30.172  58.916
    1STR    H2870120  45.148  30.556  46.479
    1STR    H2970121  45.209  30.607  46.252
    1STR    H2A70122  45.340  30.371  46.008
    1STR    H2B70123  45.325  30.539  46.055
    1STR    H2C70124  45.188  30.459  45.979
    1STR   BCK170125  45.141  45.094   0.897
    1STR    O0370126  45.154  44.980   0.853
    1STR    N0470127  45.079  45.125   1.012
    1STR    C0570128  45.005  45.042   1.097
    1STR    C0670129  45.032  45.041   1.236
    1STR    C0770130  44.953  44.965   1.328
    1STR    N0870131  44.981  44.969   1.466
    1STR    C0970132  44.916  44.914   1.571
    1STR    O0A70133  44.814  44.846   1.562
    1STR    O0B70134  44.977  44.943   1.689
    1STR    C0C70135  44.929  44.883   1.811
    1STR    C0D70136  44.990  44.743   1.826
    1STR    C0E70137  44.961  44.971   1.934
    1STR    O0F70138  44.911  44.910   2.054
    1STR    C0G70139  44.931  44.983   2.176
    1STR    C0H70140  44.827  45.096   2.185
    1STR    C0I70141  44.917  44.886   2.296
    1STR    O0J70142  44.943  44.956   2.419
    1STR    C0K70143  44.660  45.206  13.272
    1STR    C0M70144  44.770  45.099  13.282
    1STR    C0N70145  44.670  45.310  13.385
    1STR    O0O70146  44.641  45.251  13.511
    1STR    C0P70147  44.739  45.219  13.596
    1STR    O0Q70148  44.859  45.233  13.575
    1STR    N0R70149  44.685  45.167  13.706
    1STR    C0S70150  44.741  45.116  13.823
    1STR    C0T70151  44.653  45.054  13.914
    1STR    C0U70152  44.701  44.995  14.032
    1STR    C0V70153  44.838  44.999  14.063
    1STR    C0W70154  44.886  44.926  14.187
    1STR    C0X70155  44.928  45.068  13.976
    1STR    N0Y70156  45.064  45.077  14.006
    1STR   BCK270157  45.116  45.129  14.118
    1STR    O1070158  45.053  45.186  14.206
    1STR    C1370159  44.879  45.122  13.855
    1STR    C1470160  44.847  44.888   1.274
    1STR    C1570161  44.818  44.891   1.136
    1STR    C1670162  44.894  44.969   1.048
    1STR    C1770163  44.850  44.975   0.902
    1STR    H1B70164  45.087  45.222   1.038
    1STR    H1C70165  45.114  45.099   1.273
    1STR    H1D70166  45.062  45.021   1.496
    1STR    H1E70167  44.820  44.874   1.806
    1STR    H1F70168  45.099  44.747   1.832
    1STR    H1G70169  44.953  44.694   1.916
    1STR    H1H70170  44.963  44.680   1.741
    1STR    H1I70171  44.915  45.069   1.920
    1STR    H1J70172  45.069  44.987   1.942
    1STR    H1K70173  45.032  45.024   2.178
    1STR    H1M70174  44.726  45.056   2.179
    1STR    H1N70175  44.839  45.170   2.107
    1STR    H1O70176  44.836  45.148   2.280
    1STR    H1P70177  44.817  44.843   2.298
    1STR    H1Q70178  44.987  44.803   2.284
    1STR   C01070179  44.929  44.880   2.539
    1STR   H01170180  44.837  44.821   2.535
    1STR   C01270181  45.050  44.787   2.557
    1STR   H01370182  45.143  44.843   2.557
    1STR   H01470183  45.056  44.711   2.480
    1STR   H01570184  45.044  44.734   2.653
    1STR   C01670185  44.917  44.978   2.657
    1STR   H01770186  45.006  45.040   2.664
    1STR   H01870187  44.833  45.046   2.639
    1STR   O01970188  44.897  44.908   2.780
    1STR   C02070189  44.888  44.989   2.898
    1STR   H02170190  44.965  45.066   2.896
    1STR   C02270191  44.749  45.055   2.906
    1STR   H02370192  44.670  44.980   2.903
    1STR   H02470193  44.731  45.125   2.824
    1STR   H02570194  44.738  45.111   2.998
    1STR   C02670195  44.914  44.900   3.021
    1STR   H02770196  44.838  44.822   3.027
    1STR   H02870197  45.010  44.851   3.010
    1STR   O02970198  44.913  44.980   3.140
    1STR   C03070199  44.931  44.909   3.263
    1STR   H03170200  44.872  44.817   3.262
    1STR   C03270201  45.080  44.874   3.281
    1STR   H03370202  45.142  44.964   3.277
    1STR   H03470203  45.116  44.805   3.205
    1STR   H03570204  45.097  44.827   3.378
    1STR   C03670205  44.881  44.998   3.378
    1STR   H03770206  44.939  45.090   3.382
    1STR   H03870207  44.777  45.026   3.358
    1STR   O03970208  44.890  44.927   3.502
    1STR   C04070209  44.850  45.000   3.618
    1STR   H04170210  44.890  45.101   3.614
    1STR   C04270211  44.697  45.004   3.627
    1STR   H04370212  44.654  44.904   3.626
    1STR   H04470213  44.652  45.060   3.544
    1STR   H04570214  44.665  45.053   3.719
    1STR   C04670215  44.911  44.930   3.741
    1STR   H04770216  44.872  44.828   3.749
    1STR   H04870217  45.019  44.922   3.728
    1STR   O04970218  44.880  45.004   3.859
    1STR   C05070219  44.928  44.948   3.981
    1STR   H05170220  44.909  44.840   3.982
    1STR   C05270221  45.078  44.975   3.997
    1STR   H05370222  45.099  45.082   3.992
    1STR   H05470223  45.137  44.925   3.921
    1STR   H05570224  45.114  44.940   4.094
    1STR   C05670225  44.847  45.010   4.096
    1STR   H05770226  44.864  45.118   4.099
    1STR   H05870227  44.740  44.995   4.077
    1STR   O05970228  44.884  44.950   4.220
    1STR   C06070229  44.819  45.002   4.336
    1STR   H06170230  44.816  45.111   4.330
    1STR   C06270231  44.677  44.945   4.346
    1STR   H06370232  44.679  44.836   4.347
    1STR   H06470233  44.614  44.977   4.264
    1STR   H06570234  44.629  44.978   4.439
    1STR   C06670235  44.905  44.964   4.458
    1STR   H06770236  44.910  44.855   4.467
    1STR   H06870237  45.006  45.000   4.443
    1STR   O06970238  44.848  45.022   4.575
    1STR   C07070239  44.916  44.991   4.697
    1STR   H07170240  44.942  44.885   4.699
    1STR   C07270241  45.043  45.076   4.710
    1STR   H07370242  45.019  45.183   4.703
    1STR   H07470243  45.116  45.053   4.633
    1STR   H07570244  45.091  45.059   4.807
    1STR   C07670245  44.818  45.018   4.812
    1STR   H07770246  44.790  45.123   4.814
    1STR   H07870247  44.726  44.961   4.795
    1STR   O07970248  44.878  44.979   4.936
    1STR   C08070249  44.798  45.002   5.052
    1STR   H08170250  44.751  45.101   5.046
    1STR   C08270251  44.691  44.893   5.065
    1STR   H08370252  44.736  44.794   5.066
    1STR   H08470253  44.619  44.896   4.984
    1STR   H08570254  44.635  44.905   5.158
    1STR   C08670255  44.893  45.003   5.173
    1STR   H08770256  44.941  44.905   5.183
    1STR   H08870257  44.972  45.076   5.156
    1STR   O08970258  44.819  45.035   5.291
    1STR   C09070259  44.895  45.035   5.411
    1STR   H09170260  44.961  44.948   5.414
    1STR   C09270261  44.977  45.164   5.422
    1STR   H09370262  44.913  45.252   5.415
    1STR   H09470263  45.053  45.172   5.344
    1STR   H09570264  45.029  45.169   5.518
    1STR   C09670265  44.795  45.022   5.528
    1STR   H09770266  44.728  45.108   5.529
    1STR   H09870267  44.734  44.934   5.512
    1STR   O09970268  44.867  45.012   5.651
    1STR   C10070269  44.786  45.003   5.767
    1STR   H10170270  44.703  45.074   5.762
    1STR   C10270271  44.732  44.860   5.783
    1STR   H10370272  44.813  44.787   5.784
    1STR   H10470273  44.663  44.833   5.702
    1STR   H10570274  44.676  44.850   5.876
    1STR   C10670275  44.874  45.043   5.887
    1STR   H10770276  44.957  44.973   5.897
    1STR   H10870277  44.917  45.141   5.868
    1STR   O10970278  44.795  45.045   6.006
    1STR   C11070279  44.865  45.077   6.125
    1STR   H11170280  44.961  45.024   6.128
    1STR   C11270281  44.888  45.228   6.134
    1STR   H11370282  44.794  45.283   6.126
    1STR   H11470283  44.954  45.264   6.055
    1STR   H11570284  44.935  45.255   6.229
    1STR   C11670285  44.780  45.026   6.243
    1STR   H11770286  44.685  45.078   6.245
    1STR   H11870287  44.759  44.920   6.229
    1STR   O11970288  44.851  45.047   6.365
    1STR   C12070289  44.782  45.008   6.483
    1STR   H12170290  44.678  45.040   6.478
    1STR   C12270291  44.789  44.856   6.500
    1STR   H12370292  44.893  44.821   6.501
    1STR   H12470293  44.737  44.803   6.421
    1STR   H12570294  44.744  44.825   6.595
    1STR   C12670295  44.848  45.081   6.601
    1STR   H12770296  44.952  45.050   6.611
    1STR   H12870297  44.848  45.188   6.581
    1STR   O12970298  44.776  45.053   6.721
    1STR   C13070299  44.829  45.112   6.839
    1STR   H13170300  44.938  45.102   6.840
    1STR   C13270301  44.790  45.261   6.846
    1STR   H13370302  44.682  45.273   6.839
    1STR   H13470303  44.835  45.319   6.765
    1STR   H13570304  44.823  45.305   6.940
    1STR   C13670305  44.772  45.034   6.958
    1STR   H13770306  44.664  45.043   6.961
    1STR   H13870307  44.795  44.928   6.945
    1STR   O13970308  44.830  45.083   7.079
    1STR   C14070309  44.783  45.021   7.198
    1STR   H14170310  44.675  45.009   7.194
    1STR   C14270311  44.851  44.884   7.217
    1STR   H14370312  44.960  44.894   7.216
    1STR   H14470313  44.824  44.814   7.139
    1STR   H14570314  44.822  44.840   7.312
    1STR   C14670315  44.816  45.116   7.315
    1STR   H14770316  44.923  45.129   7.323
    1STR   H14870317  44.773  45.214   7.294
    1STR   O14970318  44.762  45.063   7.436
    1STR   C15070319  44.788  45.139   7.553
    1STR   H15170320  44.892  45.173   7.553
    1STR   C15270321  44.693  45.260   7.559
    1STR   H15370322  44.589  45.228   7.554
    1STR   H15470323  44.711  45.330   7.478
    1STR   H15570324  44.707  45.315   7.652
    1STR   C15670325  44.769  45.046   7.674
    1STR   H15770326  44.666  45.012   7.678
    1STR   H15870327  44.832  44.958   7.661
    1STR   O15970328  44.804  45.116   7.793
    1STR   C16070329  44.786  45.042   7.913
    1STR   H16170330  44.692  44.987   7.911
    1STR   C16270331  44.903  44.944   7.932
    1STR   H16370332  44.999  44.996   7.930
    1STR   H16470333  44.906  44.867   7.855
    1STR   H16570334  44.896  44.893   8.028
    1STR   C16670335  44.779  45.143   8.029
    1STR   H16770336  44.873  45.199   8.035
    1STR   H16870337  44.701  45.216   8.007
    1STR   O16970338  44.752  45.075   8.151
    1STR   C17070339  44.747  45.157   8.267
    1STR   H17170340  44.829  45.230   8.265
    1STR   C17270341  44.612  45.230   8.273
    1STR   H17370342  44.529  45.159   8.270
    1STR   H17470343  44.599  45.300   8.191
    1STR   H17570344  44.603  45.287   8.366
    1STR   C17670345  44.768  45.066   8.389
    1STR   H17770346  44.687  44.993   8.395
    1STR   H17870347  44.861  45.010   8.376
    1STR   O17970348  44.773  45.145   8.507
    1STR   C18070349  44.788  45.072   8.628
    1STR   H18170350  44.723  44.984   8.628
    1STR   C18270351  44.935  45.029   8.646
    1STR   H18370352  45.002  45.115   8.642
    1STR   H18470353  44.967  44.959   8.569
    1STR   H18570354  44.949  44.981   8.742
    1STR   C18670355  44.742  45.164   8.743
    1STR   H18770356  44.806  45.252   8.747
    1STR   H18870357  44.641  45.199   8.722
    1STR   O18970358  44.746  45.092   8.866
    1STR   C19070359  44.710  45.167   8.981
    1STR   H19170360  44.756  45.266   8.977
    1STR   C19270361  44.557  45.180   8.989
    1STR   H19370362  44.509  45.082   8.988
    1STR   H19470363  44.516  45.238   8.906
    1STR   H19570364  44.527  45.230   9.081
    1STR   C19670365  44.767  45.093   9.103
    1STR   H19770366  44.722  44.994   9.111
    1STR   H19870367  44.874  45.079   9.090
    1STR   O19970368  44.741  45.170   9.221
    1STR   C20070369  44.785  45.110   9.342
    1STR   H20170370  44.761  45.004   9.343
    1STR   C20270371  44.937  45.130   9.358
    1STR   H20370372  44.963  45.236   9.353
    1STR   H20470373  44.993  45.077   9.282
    1STR   H20570374  44.971  45.092   9.455
    1STR   C20670375  44.708  45.177   9.457
    1STR   H20770376  44.731  45.284   9.460
    1STR   H20870377  44.601  45.168   9.437
    1STR   O20970378  44.741  45.115   9.580
    1STR   C21070379  44.679  45.170   9.696
    1STR   H21170380  44.681  45.280   9.691
    1STR   C21270381  44.534  45.121   9.706
    1STR   H21370382  44.529  45.012   9.706
    1STR   H21470383  44.472  45.157   9.623
    1STR   H21570384  44.488  45.156   9.798
    1STR   C21670385  44.762  45.127   9.818
    1STR   H21770386  44.760  45.018   9.827
    1STR   H21870387  44.865  45.157   9.803
    1STR   O21970388  44.709  45.188   9.935
    1STR   C22070389  44.774  45.153  10.056
    1STR   H22170390  44.795  45.046  10.059
    1STR   C22270391  44.906  45.232  10.070
    1STR   H22370392  44.888  45.339  10.063
    1STR   H22470393  44.978  45.205   9.993
    1STR   H22570394  44.953  45.212  10.166
    1STR   C22670395  44.678  45.185  10.171
    1STR   H22770396  44.656  45.292  10.173
    1STR   H22870397  44.583  45.134  10.154
    1STR   O22970398  44.735  45.143  10.295
    1STR   C23070399  44.657  45.171  10.411
    1STR   H23170400  44.615  45.271  10.405
    1STR   C23270401  44.543  45.067  10.423
    1STR   H23370402  44.583  44.966  10.424
    1STR   H23470403  44.472  45.075  10.342
    1STR   H23570404  44.488  45.082  10.516
    1STR   C23670405  44.751  45.165  10.532
    1STR   H23770406  44.793  45.065  10.542
    1STR   H23870407  44.834  45.234  10.515
    1STR   O23970408  44.679  45.202  10.649
    1STR   C24070409  44.754  45.198  10.770
    1STR   H24170410  44.816  45.107  10.773
    1STR   C24270411  44.843  45.323  10.781
    1STR   H24370412  44.784  45.414  10.774
    1STR   H24470413  44.920  45.326  10.703
    1STR   H24570414  44.895  45.325  10.877
    1STR   C24670415  44.654  45.190  10.886
    1STR   H24770416  44.592  45.279  10.888
    1STR   H24870417  44.588  45.105  10.870
    1STR   O24970418  44.725  45.175  11.009
    1STR   C25070419  44.643  45.171  11.126
    1STR   H25170420  44.565  45.247  11.120
    1STR   C25270421  44.581  45.031  11.141
    1STR   H25370422  44.658  44.954  11.142
    1STR   H25470423  44.511  45.008  11.060
    1STR   H25570424  44.525  45.024  11.234
    1STR   C25670425  44.733  45.205  11.246
    1STR   H25770426  44.812  45.131  11.256
    1STR   H25870427  44.782  45.301  11.227
    1STR   O25970428  44.654  45.212  11.364
    1STR   C26070429  44.726  45.240  11.484
    1STR   H26170430  44.818  45.181  11.487
    1STR   C26270431  44.758  45.390  11.493
    1STR   H26370432  44.667  45.449  11.485
    1STR   H26470433  44.825  45.422  11.414
    1STR   H26570434  44.805  45.414  11.588
    1STR   C26670435  44.638  45.194  11.602
    1STR   H26770436  44.545  45.251  11.603
    1STR   H26870437  44.611  45.089  11.588
    1STR   O26970438  44.710  45.211  11.724
    1STR   C27070439  44.638  45.176  11.842
    1STR   H27170440  44.536  45.213  11.836
    1STR   C27270441  44.637  45.023  11.859
    1STR   H27370442  44.739  44.983  11.860
    1STR   H27470443  44.582  44.973  11.779
    1STR   H27570444  44.590  44.995  11.953
    1STR   C27670445  44.708  45.245  11.960
    1STR   H27770446  44.810  45.208  11.970
    1STR   H27870447  44.713  45.352  11.940
    1STR   O27970448  44.634  45.220  12.080
    1STR   C28070449  44.690  45.276  12.198
    1STR   H28170450  44.798  45.260  12.200
    1STR   C28270451  44.659  45.426  12.205
    1STR   H28370452  44.551  45.445  12.198
    1STR   H28470453  44.707  45.482  12.125
    1STR   H28570454  44.693  45.468  12.300
    1STR   C28670455  44.629  45.200  12.317
    1STR   H28770456  44.521  45.215  12.320
    1STR   H28870457  44.646  45.094  12.304
    1STR   O28970458  44.688  45.246  12.438
    1STR   C29070459  44.637  45.187  12.557
    1STR   H29170460  44.528  45.180  12.553
    1STR   C29270461  44.698  45.047  12.576
    1STR   H29370462  44.807  45.050  12.576
    1STR   H29470463  44.667  44.978  12.497
    1STR   H29570464  44.667  45.003  12.671
    1STR   C29670465  44.675  45.279  12.674
    1STR   H29770466  44.783  45.287  12.682
    1STR   H29870467  44.637  45.380  12.654
    1STR   O29970468  44.618  45.229  12.795
    1STR   C30070469  44.650  45.304  12.912
    1STR   H30170470  44.755  45.333  12.910
    1STR   C30270471  44.561  45.429  12.920
    1STR   H30370472  44.455  45.402  12.916
    1STR   H30470473  44.581  45.499  12.839
    1STR   H30570474  44.578  45.482  13.013
    1STR   C30670475  44.629  45.211  13.033
    1STR   H30770476  44.523  45.184  13.041
    1STR   H30870477  44.685  45.119  13.017
    1STR   O30970478  44.674  45.278  13.150
    1STR    H1R70479  44.562  45.159  13.277
    1STR    H1S70480  44.763  45.045  13.376
    1STR    H1T70481  44.869  45.144  13.278
    1STR    H1U70482  44.764  45.025  13.203
    1STR    H1V70483  44.597  45.389  13.368
    1STR    H1W70484  44.768  45.359  13.384
    1STR    H1X70485  44.585  45.165  13.697
    1STR    H1Y70486  44.547  45.048  13.894
    1STR    H1Z70487  44.633  44.946  14.099
    1STR    H2070488  44.982  44.879  14.169
    1STR    H2170489  44.896  44.995  14.271
    1STR    H2270490  44.817  44.848  14.217
    1STR    H2370491  45.129  45.047  13.936
    1STR    H2770492  44.948  45.172  13.789
    1STR    H2870493  44.783  44.827   1.335
    1STR    H2970494  44.734  44.833   1.100
    1STR    H2A70495  44.864  45.075   0.861
    1STR    H2B70496  44.744  44.950   0.892
    1STR    H2C70497  44.907  44.905   0.842
    1STR   BCK170498  45.251  45.194  15.942
    1STR    O0370499  45.340  45.277  15.926
    1STR    N0470500  45.235  45.121  16.053
    1STR    C0570501  45.332  45.105  16.152
    1STR    C0670502  45.300  45.132  16.287
    1STR    C0770503  45.396  45.115  16.390
    1STR    N0870504  45.359  45.138  16.524
    1STR    C0970505  45.437  45.149  16.633
    1STR    O0A70506  45.560  45.148  16.632
    1STR    O0B70507  45.363  45.162  16.745
    1STR    C0C70508  45.430  45.176  16.871
    1STR    C0D70509  45.472  45.323  16.890
    1STR    C0E70510  45.341  45.128  16.987
    1STR    O0F70511  45.416  45.136  17.108
    1STR    C0G70512  45.351  45.094  17.227
    1STR    C0H70513  45.351  44.940  17.234
    1STR    C0I70514  45.426  45.155  17.346
    1STR    O0J70515  45.359  45.122  17.468
    1STR    C0K70516  45.401  44.731  28.308
    1STR    C0M70517  45.392  44.883  28.327
    1STR    C0N70518  45.325  44.653  28.417
    1STR    O0O70519  45.391  44.662  28.542
    1STR    C0P70520  45.355  44.755  28.631
    1STR    O0Q70521  45.259  44.830  28.620
    1STR    N0R70522  45.444  44.756  28.730
    1STR    C0S70523  45.454  44.846  28.836
    1STR    C0T70524  45.583  44.875  28.885
    1STR    C0U70525  45.601  44.972  28.985
    1STR    C0V70526  45.491  45.041  29.039
    1STR    C0W70527  45.513  45.153  29.139
    1STR    C0X70528  45.360  45.005  28.998
    1STR    N0Y70529  45.250  45.060  29.062
    1STR   BCK270530  45.212  45.033  29.187
    1STR    O1070531  45.130  45.102  29.245
    1STR    C1370532  45.342  44.910  28.895
    1STR    C1470533  45.525  45.070  16.354
    1STR    C1570534  45.556  45.041  16.220
    1STR    C1670535  45.460  45.055  16.119
    1STR    C1770536  45.497  45.013  15.977
    1STR    H1B70537  45.151  45.066  16.057
    1STR    H1C70538  45.201  45.168  16.311
    1STR    H1D70539  45.262  45.151  16.545
    1STR    H1E70540  45.519  45.113  16.872
    1STR    H1F70541  45.386  45.390  16.891
    1STR    H1G70542  45.526  45.336  16.983
    1STR    H1H70543  45.538  45.355  16.809
    1STR    H1I70544  45.310  45.025  16.968
    1STR    H1J70545  45.250  45.188  16.994
    1STR    H1K70546  45.248  45.131  17.229
    1STR    H1M70547  45.453  44.901  17.227
    1STR    H1N70548  45.293  44.895  17.154
    1STR    H1O70549  45.309  44.906  17.328
    1STR    H1P70550  45.529  45.118  17.348
    1STR    H1Q70551  45.431  45.263  17.333
    1STR   C01070552  45.422  45.169  17.587
    1STR   H01170553  45.530  45.150  17.583
    1STR   C01270554  45.396  45.319  17.605
    1STR   H01370555  45.289  45.340  17.604
    1STR   H01470556  45.442  45.379  17.527
    1STR   H01570557  45.435  45.354  17.700
    1STR   C01670558  45.364  45.087  17.704
    1STR   H01770559  45.256  45.103  17.711
    1STR   H01870560  45.379  44.981  17.684
    1STR   O01970561  45.428  45.125  17.826
    1STR   C02070562  45.380  45.058  17.943
    1STR   H02170563  45.271  45.054  17.941
    1STR   C02270564  45.438  44.916  17.951
    1STR   H02370565  45.547  44.918  17.948
    1STR   H02470566  45.404  44.853  17.869
    1STR   H02570567  45.409  44.867  18.043
    1STR   C02670568  45.421  45.142  18.066
    1STR   H02770569  45.530  45.148  18.072
    1STR   H02870570  45.384  45.244  18.054
    1STR   O02970571  45.367  45.083  18.184
    1STR   C03070572  45.402  45.149  18.306
    1STR   H03170573  45.507  45.176  18.306
    1STR   C03270574  45.315  45.275  18.324
    1STR   H03370575  45.209  45.250  18.320
    1STR   H03470576  45.335  45.350  18.248
    1STR   H03570577  45.335  45.321  18.421
    1STR   C03670578  45.379  45.049  18.421
    1STR   H03770579  45.273  45.020  18.425
    1STR   H03870580  45.436  44.958  18.401
    1STR   O03970581  45.420  45.107  18.545
    1STR   C04070582  45.400  45.026  18.660
    1STR   H04170583  45.302  44.978  18.656
    1STR   C04270584  45.511  44.919  18.669
    1STR   H04370585  45.610  44.965  18.668
    1STR   H04470586  45.506  44.848  18.586
    1STR   H04570587  45.502  44.862  18.761
    1STR   C04670588  45.403  45.119  18.783
    1STR   H04770589  45.500  45.167  18.791
    1STR   H04870590  45.329  45.198  18.769
    1STR   O04970591  45.375  45.043  18.901
    1STR   C05070592  45.378  45.117  19.023
    1STR   H05170593  45.465  45.184  19.024
    1STR   C05270594  45.249  45.198  19.038
    1STR   H05370595  45.161  45.134  19.033
    1STR   H05470596  45.239  45.275  18.962
    1STR   H05570597  45.246  45.249  19.135
    1STR   C05670598  45.395  45.016  19.137
    1STR   H05770599  45.310  44.949  19.140
    1STR   H05870600  45.484  44.955  19.118
    1STR   O05970601  45.408  45.086  19.261
    1STR   C06070602  45.421  45.004  19.376
    1STR   H06170603  45.350  44.921  19.371
    1STR   C06270604  45.565  44.950  19.387
    1STR   H06370605  45.637  45.032  19.387
    1STR   H06470606  45.590  44.883  19.305
    1STR   H06570607  45.578  44.894  19.479
    1STR   C06670608  45.384  45.090  19.499
    1STR   H06770609  45.454  45.173  19.508
    1STR   H06870610  45.285  45.132  19.483
    1STR   O06970611  45.387  45.009  19.616
    1STR   C07070612  45.358  45.077  19.737
    1STR   H07170613  45.410  45.173  19.740
    1STR   C07270614  45.206  45.099  19.751
    1STR   H07370615  45.152  45.005  19.744
    1STR   H07470616  45.168  45.166  19.674
    1STR   H07570617  45.182  45.144  19.847
    1STR   C07670618  45.412  44.991  19.853
    1STR   H07770619  45.361  44.895  19.855
    1STR   H07870620  45.518  44.971  19.835
    1STR   O07970621  45.394  45.060  19.976
    1STR   C08070622  45.437  44.989  20.092
    1STR   H08170623  45.405  44.885  20.086
    1STR   C08270624  45.590  44.998  20.105
    1STR   H08370625  45.624  45.101  20.107
    1STR   H08470626  45.641  44.947  20.024
    1STR   H08570627  45.623  44.951  20.198
    1STR   C08670628  45.367  45.053  20.213
    1STR   H08770629  45.397  45.157  20.223
    1STR   H08870630  45.259  45.053  20.196
    1STR   O08970631  45.399  44.979  20.331
    1STR   C09070632  45.343  45.031  20.452
    1STR   H09170633  45.353  45.139  20.454
    1STR   C09270634  45.195  44.991  20.462
    1STR   H09370635  45.183  44.882  20.455
    1STR   H09470636  45.135  45.037  20.384
    1STR   H09570637  45.154  45.022  20.558
    1STR   C09670638  45.426  44.973  20.568
    1STR   H09770639  45.417  44.864  20.569
    1STR   H09870640  45.531  44.996  20.552
    1STR   O09970641  45.380  45.029  20.691
    1STR   C10070642  45.445  44.981  20.808
    1STR   H10170643  45.458  44.872  20.802
    1STR   C10270644  45.582  45.049  20.823
    1STR   H10370645  45.572  45.158  20.824
    1STR   H10470646  45.651  45.023  20.742
    1STR   H10570647  45.630  45.019  20.916
    1STR   C10670648  45.354  45.011  20.927
    1STR   H10770649  45.340  45.118  20.937
    1STR   H10870650  45.256  44.967  20.908
    1STR   O10970651  45.411  44.956  21.046
    1STR   C11070652  45.337  44.980  21.165
    1STR   H11170653  45.303  45.083  21.168
    1STR   C11270654  45.218  44.884  21.174
    1STR   H11370655  45.250  44.780  21.166
    1STR   H11470656  45.145  44.902  21.095
    1STR   H11570657  45.165  44.896  21.268
    1STR   C11670658  45.434  44.960  21.283
    1STR   H11770659  45.469  44.857  21.285
    1STR   H11870660  45.521  45.023  21.269
    1STR   O11970661  45.367  44.992  21.405
    1STR   C12070662  45.445  44.974  21.523
    1STR   H12170663  45.500  44.880  21.518
    1STR   C12270664  45.543  45.091  21.540
    1STR   H12370665  45.490  45.187  21.541
    1STR   H12470666  45.617  45.095  21.461
    1STR   H12570667  45.597  45.083  21.635
    1STR   C12670668  45.347  44.965  21.641
    1STR   H12770669  45.291  45.058  21.651
    1STR   H12870670  45.274  44.886  21.621
    1STR   O12970671  45.419  44.937  21.761
    1STR   C13070672  45.340  44.929  21.879
    1STR   H13170673  45.267  45.010  21.880
    1STR   C13270674  45.269  44.793  21.886
    1STR   H13370675  45.340  44.711  21.879
    1STR   H13470676  45.196  44.781  21.806
    1STR   H13570677  45.214  44.783  21.980
    1STR   C13670678  45.435  44.949  21.998
    1STR   H13770679  45.509  44.869  22.001
    1STR   H13870680  45.489  45.042  21.985
    1STR   O13970681  45.359  44.952  22.119
    1STR   C14070682  45.435  44.966  22.238
    1STR   H14170683  45.524  44.902  22.234
    1STR   C14270684  45.477  45.112  22.257
    1STR   H14370685  45.391  45.178  22.256
    1STR   H14470686  45.546  45.146  22.179
    1STR   H14570687  45.529  45.126  22.352
    1STR   C14670688  45.347  44.917  22.355
    1STR   H14770689  45.259  44.980  22.363
    1STR   H14870690  45.313  44.816  22.334
    1STR   O14970691  45.423  44.920  22.476
    1STR   C15070692  45.352  44.882  22.593
    1STR   H15170693  45.252  44.927  22.593
    1STR   C15270694  45.340  44.729  22.599
    1STR   H15370695  45.439  44.682  22.594
    1STR   H15470696  45.280  44.688  22.518
    1STR   H15570697  45.293  44.697  22.692
    1STR   C15670698  45.429  44.937  22.714
    1STR   H15770699  45.528  44.893  22.718
    1STR   H15870700  45.442  45.045  22.701
    1STR   O15970701  45.356  44.909  22.833
    1STR   C16070702  45.419  44.952  22.953
    1STR   H16170703  45.525  44.929  22.951
    1STR   C16270704  45.399  45.103  22.972
    1STR   H16370705  45.293  45.129  22.970
    1STR   H16470706  45.449  45.162  22.895
    1STR   H16570707  45.439  45.136  23.068
    1STR   C16670708  45.355  44.873  23.069
    1STR   H16770709  45.249  44.895  23.075
    1STR   H16870710  45.364  44.766  23.047
    1STR   O16970711  45.422  44.905  23.191
    1STR   C17070712  45.370  44.841  23.307
    1STR   H17170713  45.260  44.842  23.305
    1STR   C17270714  45.420  44.696  23.313
    1STR   H17370715  45.529  44.692  23.310
    1STR   H17470716  45.382  44.635  23.231
    1STR   H17570717  45.388  44.648  23.406
    1STR   C17670718  45.416  44.922  23.429
    1STR   H17770719  45.525  44.921  23.435
    1STR   H17870720  45.385  45.026  23.416
    1STR   O17970721  45.359  44.867  23.547
    1STR   C18070722  45.397  44.931  23.668
    1STR   H18170723  45.504  44.952  23.668
    1STR   C18270724  45.318  45.062  23.686
    1STR   H18370725  45.210  45.043  23.682
    1STR   H18470726  45.342  45.135  23.609
    1STR   H18570727  45.340  45.107  23.782
    1STR   C18670728  45.369  44.832  23.783
    1STR   H18770729  45.262  44.811  23.787
    1STR   H18870730  45.420  44.738  23.762
    1STR   O18970731  45.414  44.888  23.906
    1STR   C19070732  45.390  44.808  24.021
    1STR   H19170733  45.290  44.766  24.017
    1STR   C19270734  45.494  44.695  24.029
    1STR   H19370735  45.596  44.735  24.028
    1STR   H19470736  45.485  44.625  23.946
    1STR   H19570737  45.482  44.638  24.121
    1STR   C19670738  45.399  44.901  24.143
    1STR   H19770739  45.499  44.944  24.151
    1STR   H19870740  45.329  44.984  24.130
    1STR   O19970741  45.366  44.827  24.261
    1STR   C20070742  45.373  44.901  24.382
    1STR   H20170743  45.463  44.963  24.383
    1STR   C20270744  45.248  44.989  24.398
    1STR   H20370745  45.157  44.929  24.393
    1STR   H20470746  45.242  45.066  24.322
    1STR   H20570747  45.249  45.040  24.495
    1STR   C20670748  45.385  44.799  24.497
    1STR   H20770749  45.296  44.736  24.500
    1STR   H20870750  45.470  44.733  24.477
    1STR   O20970751  45.403  44.868  24.620
    1STR   C21070752  45.411  44.785  24.735
    1STR   H21170753  45.336  44.706  24.731
    1STR   C21270754  45.552  44.723  24.746
    1STR   H21370755  45.629  44.801  24.746
    1STR   H21470756  45.573  44.655  24.663
    1STR   H21570757  45.562  44.666  24.838
    1STR   C21670758  45.379  44.873  24.858
    1STR   H21770759  45.454  44.952  24.867
    1STR   H21870760  45.283  44.921  24.842
    1STR   O21970761  45.377  44.792  24.975
    1STR   C22070762  45.353  44.862  25.096
    1STR   H22170763  45.410  44.955  25.099
    1STR   C22270764  45.202  44.892  25.110
    1STR   H22370765  45.143  44.801  25.103
    1STR   H22470766  45.167  44.961  25.033
    1STR   H22570767  45.181  44.939  25.206
    1STR   C22670768  45.402  44.773  25.211
    1STR   H22770769  45.346  44.680  25.213
    1STR   H22870770  45.507  44.747  25.193
    1STR   O22970771  45.389  44.843  25.335
    1STR   C23070772  45.428  44.770  25.450
    1STR   H23170773  45.390  44.667  25.445
    1STR   C23270774  45.581  44.769  25.463
    1STR   H23370775  45.620  44.871  25.464
    1STR   H23470776  45.629  44.716  25.381
    1STR   H23570777  45.612  44.721  25.556
    1STR   C23670778  45.361  44.837  25.572
    1STR   H23770779  45.398  44.939  25.582
    1STR   H23870780  45.254  44.843  25.555
    1STR   O23970781  45.390  44.762  25.689
    1STR   C24070782  45.337  44.816  25.810
    1STR   H24170783  45.353  44.924  25.813
    1STR   C24270784  45.187  44.784  25.821
    1STR   H24370785  45.169  44.676  25.814
    1STR   H24470786  45.129  44.833  25.743
    1STR   H24570787  45.148  44.817  25.917
    1STR   C24670788  45.416  44.754  25.926
    1STR   H24770789  45.402  44.645  25.927
    1STR   H24870790  45.523  44.771  25.910
    1STR   O24970791  45.374  44.812  26.049
    1STR   C25070792  45.437  44.760  26.165
    1STR   H25170793  45.444  44.651  26.159
    1STR   C25270794  45.578  44.821  26.180
    1STR   H25370795  45.573  44.930  26.182
    1STR   H25470796  45.644  44.791  26.100
    1STR   H25570797  45.624  44.789  26.274
    1STR   C25670798  45.348  44.795  26.285
    1STR   H25770799  45.340  44.904  26.295
    1STR   H25870800  45.247  44.758  26.266
    1STR   O25970801  45.402  44.737  26.403
    1STR   C26070802  45.330  44.766  26.523
    1STR   H26170803  45.301  44.871  26.525
    1STR   C26270804  45.205  44.676  26.532
    1STR   H26370805  45.232  44.571  26.525
    1STR   H26470806  45.133  44.698  26.453
    1STR   H26570807  45.154  44.691  26.627
    1STR   C26670808  45.426  44.740  26.640
    1STR   H26770809  45.455  44.635  26.642
    1STR   H26870810  45.516  44.799  26.626
    1STR   O26970811  45.361  44.776  26.762
    1STR   C27070812  45.438  44.753  26.880
    1STR   H27170813  45.488  44.656  26.874
    1STR   C27270814  45.542  44.865  26.897
    1STR   H27370815  45.495  44.963  26.899
    1STR   H27470816  45.617  44.865  26.818
    1STR   H27570817  45.596  44.854  26.991
    1STR   C27670818  45.340  44.749  26.998
    1STR   H27770819  45.289  44.846  27.008
    1STR   H27870820  45.263  44.675  26.978
    1STR   O27970821  45.411  44.717  27.117
    1STR   C28070822  45.332  44.714  27.235
    1STR   H28170823  45.263  44.799  27.237
    1STR   C28270824  45.253  44.583  27.243
    1STR   H28370825  45.320  44.497  27.237
    1STR   H28470826  45.180  44.574  27.163
    1STR   H28570827  45.199  44.575  27.338
    1STR   C28670828  45.428  44.729  27.354
    1STR   H28770829  45.498  44.645  27.357
    1STR   H28870830  45.488  44.820  27.341
    1STR   O28970831  45.353  44.737  27.475
    1STR   C29070832  45.431  44.746  27.594
    1STR   H29170833  45.516  44.677  27.589
    1STR   C29270834  45.481  44.890  27.613
    1STR   H29370835  45.398  44.961  27.613
    1STR   H29470836  45.550  44.920  27.534
    1STR   H29570837  45.534  44.900  27.708
    1STR   C29670838  45.341  44.702  27.710
    1STR   H29770839  45.256  44.770  27.718
    1STR   H29870840  45.301  44.603  27.688
    1STR   O29970841  45.416  44.700  27.830
    1STR   C30070842  45.342  44.665  27.946
    1STR   H30170843  45.244  44.714  27.945
    1STR   C30270844  45.324  44.512  27.953
    1STR   H30370845  45.420  44.461  27.950
    1STR   H30470846  45.263  44.475  27.871
    1STR   H30570847  45.274  44.483  28.045
    1STR   C30670848  45.419  44.717  28.068
    1STR   H30770849  45.516  44.668  28.075
    1STR   H30870850  45.438  44.824  28.055
    1STR   O30970851  45.341  44.694  28.185
    1STR    H1R70852  45.505  44.699  28.310
    1STR    H1S70853  45.436  44.914  28.421
    1STR    H1T70854  45.288  44.917  28.326
    1STR    H1U70855  45.445  44.938  28.249
    1STR    H1V70856  45.321  44.548  28.390
    1STR    H1W70857  45.221  44.686  28.424
    1STR    H1X70858  45.515  44.686  28.719
    1STR    H1Y70859  45.670  44.825  28.845
    1STR    H1Z70860  45.701  44.995  29.019
    1STR    H2070861  45.446  45.236  29.118
    1STR    H2170862  45.494  45.118  29.240
    1STR    H2270863  45.615  45.190  29.135
    1STR    H2370864  45.193  45.128  29.013
    1STR    H2770865  45.242  44.886  28.862
    1STR    H2870866  45.603  45.054  16.426
    1STR    H2970867  45.655  45.005  16.196
    1STR    H2A70868  45.413  44.964  15.928
    1STR    H2B70869  45.581  44.943  15.977
    1STR    H2C70870  45.526  45.100  15.918
    1STR   BCK170871  45.160  45.200  30.967
    1STR    O0370872  45.069  45.138  30.913
    1STR    N0470873  45.157  45.251  31.091
    1STR    C0570874  45.048  45.278  31.176
    1STR    C0670875  45.052  45.242  31.314
    1STR    C0770876  44.953  45.286  31.407
    1STR    N0870877  44.963  45.253  31.544
    1STR    C0970878  44.901  45.309  31.650
    1STR    O0A70879  44.823  45.404  31.644
    1STR    O0B70880  44.935  45.249  31.768
    1STR    C0C70881  44.870  45.289  31.891
    1STR    C0D70882  44.736  45.215  31.904
    1STR    C0E70883  44.960  45.264  32.015
    1STR    O0F70884  44.894  45.308  32.134
    1STR    C0G70885  44.967  45.296  32.257
    1STR    C0H70886  45.070  45.409  32.266
    1STR    C0I70887  44.870  45.301  32.377
    1STR    O0J70888  44.941  45.281  32.499
    1STR    C0K70889  45.163  45.591  43.351
    1STR    C0M70890  45.070  45.470  43.363
    1STR    C0N70891  45.265  45.596  43.467
    1STR    O0O70892  45.200  45.622  43.591
    1STR    C0P70893  45.186  45.525  43.682
    1STR    O0Q70894  45.224  45.409  43.669
    1STR    N0R70895  45.125  45.575  43.789
    1STR    C0S70896  45.088  45.516  43.910
    1STR    C0T70897  45.001  45.588  43.994
    1STR    C0U70898  44.957  45.534  44.116
    1STR    C0V70899  45.000  45.406  44.158
    1STR    C0W70900  44.944  45.347  44.286
    1STR    C0X70901  45.091  45.334  44.077
    1STR    N0Y70902  45.134  45.207  44.113
    1STR   BCK270903  45.205  45.173  44.221
    1STR    O1070904  45.252  45.252  44.303
    1STR    C1370905  45.133  45.388  43.954
    1STR    C1470906  44.846  45.363  31.356
    1STR    C1570907  44.841  45.399  31.220
    1STR    C1670908  44.941  45.359  31.130
    1STR    C1770909  44.936  45.413  30.988
    1STR    H1B70910  45.246  45.283  31.124
    1STR    H1C70911  45.135  45.182  31.349
    1STR    H1D70912  45.025  45.179  31.571
    1STR    H1E70913  44.850  45.397  31.888
    1STR    H1F70914  44.750  45.107  31.909
    1STR    H1G70915  44.683  45.246  31.995
    1STR    H1H70916  44.670  45.237  31.820
    1STR    H1I70917  45.054  45.318  32.001
    1STR    H1J70918  44.985  45.158  32.022
    1STR    H1K70919  45.018  45.199  32.259
    1STR    H1M70920  45.022  45.507  32.260
    1STR    H1N70921  45.146  45.404  32.188
    1STR    H1O70922  45.123  45.405  32.362
    1STR    H1P70923  44.818  45.397  32.378
    1STR    H1Q70924  44.794  45.224  32.364
    1STR   C01070925  44.864  45.289  32.620
    1STR   H01170926  44.798  45.375  32.616
    1STR   C01270927  44.782  45.160  32.638
    1STR   H01370928  44.847  45.072  32.638
    1STR   H01470929  44.707  45.148  32.561
    1STR   H01570930  44.729  45.162  32.734
    1STR   C01670931  44.961  45.310  32.738
    1STR   H01770932  45.031  45.226  32.745
    1STR   H01870933  45.021  45.399  32.719
    1STR   O01970934  44.889  45.324  32.861
    1STR   C02070935  44.970  45.340  32.979
    1STR   H02170936  45.053  45.270  32.976
    1STR   C02270937  45.023  45.484  32.986
    1STR   H02370938  44.941  45.556  32.984
    1STR   H02470939  45.091  45.507  32.905
    1STR   H02570940  45.078  45.500  33.079
    1STR   C02670941  44.883  45.306  33.102
    1STR   H02770942  44.799  45.375  33.108
    1STR   H02870943  44.842  45.206  33.090
    1STR   O02970944  44.963  45.314  33.221
    1STR   C03070945  44.893  45.289  33.343
    1STR   H03170946  44.797  45.341  33.343
    1STR   C03270947  44.872  45.138  33.361
    1STR   H03370948  44.966  45.084  33.358
    1STR   H03470949  44.806  45.096  33.285
    1STR   H03570950  44.826  45.117  33.458
    1STR   C03670951  44.977  45.348  33.459
    1STR   H03770952  45.074  45.298  33.463
    1STR   H03870953  44.996  45.453  33.439
    1STR   O03970954  44.907  45.332  33.582
    1STR   C04070955  44.976  45.378  33.698
    1STR   H04170956  45.081  45.347  33.695
    1STR   C04270957  44.968  45.532  33.707
    1STR   H04370958  44.864  45.565  33.706
    1STR   H04470959  45.019  45.581  33.625
    1STR   H04570960  45.013  45.568  33.799
    1STR   C04670961  44.912  45.312  33.821
    1STR   H04770962  44.807  45.342  33.829
    1STR   H04870963  44.913  45.204  33.808
    1STR   O04970964  44.984  45.349  33.939
    1STR   C05070965  44.931  45.297  34.061
    1STR   H05170966  44.822  45.306  34.063
    1STR   C05270967  44.972  45.150  34.077
    1STR   H05370968  45.080  45.138  34.072
    1STR   H05470969  44.928  45.086  34.001
    1STR   H05570970  44.940  45.111  34.174
    1STR   C05670971  44.987  45.383  34.176
    1STR   H05770972  45.096  45.375  34.179
    1STR   H05870973  44.962  45.487  34.158
    1STR   O05970974  44.930  45.340  34.300
    1STR   C06070975  44.976  45.409  34.416
    1STR   H06170976  45.085  45.423  34.411
    1STR   C06270977  44.907  45.546  34.426
    1STR   H06370978  44.798  45.534  34.427
    1STR   H06470979  44.933  45.612  34.344
    1STR   H06570980  44.935  45.596  34.519
    1STR   C06670981  44.946  45.321  34.538
    1STR   H06770982  44.838  45.306  34.547
    1STR   H06870983  44.990  45.223  34.523
    1STR   O06970984  44.999  45.382  34.656
    1STR   C07070985  44.973  45.312  34.777
    1STR   H07170986  44.870  45.277  34.780
    1STR   C07270987  45.070  45.193  34.790
    1STR   H07370988  45.174  45.226  34.783
    1STR   H07470989  45.053  45.118  34.714
    1STR   H07570990  45.057  45.144  34.887
    1STR   C07670991  44.992  45.412  34.892
    1STR   H07770992  45.095  45.449  34.894
    1STR   H07870993  44.928  45.499  34.875
    1STR   O07970994  44.958  45.349  35.016
    1STR   C08070995  44.975  45.430  35.132
    1STR   H08170996  45.069  45.486  35.126
    1STR   C08270997  44.857  45.528  35.145
    1STR   H08370998  44.762  45.474  35.146
    1STR   H08470999  44.853  45.600  35.064
    1STR   H08571000  44.864  45.585  35.238
    1STR   C08671001  44.983  45.336  35.253
    1STR   H08771002  44.890  45.280  35.263
    1STR   H08871003  45.063  45.264  35.236
    1STR   O08971004  45.010  45.412  35.371
    1STR   C09071005  45.016  45.337  35.491
    1STR   H09171006  44.935  45.263  35.494
    1STR   C09271007  45.152  45.266  35.502
    1STR   H09371008  45.234  45.338  35.495
    1STR   H09471009  45.166  45.191  35.424
    1STR   H09571010  45.161  45.215  35.598
    1STR   C09671011  44.994  45.435  35.608
    1STR   H09771012  45.074  45.509  35.609
    1STR   H09871013  44.901  45.489  35.592
    1STR   O09971014  44.990  45.363  35.731
    1STR   C10071015  44.974  45.443  35.848
    1STR   H10171016  45.038  45.531  35.842
    1STR   C10271017  44.827  45.484  35.863
    1STR   H10371018  44.762  45.397  35.864
    1STR   H10471019  44.794  45.550  35.782
    1STR   H10571020  44.812  45.539  35.956
    1STR   C10671021  45.021  45.359  35.967
    1STR   H10771022  44.959  45.270  35.977
    1STR   H10871023  45.123  45.324  35.948
    1STR   O10971024  45.017  45.438  36.086
    1STR   C11071025  45.054  45.370  36.205
    1STR   H11171026  45.010  45.270  36.208
    1STR   C11271027  45.208  45.360  36.214
    1STR   H11371028  45.254  45.459  36.206
    1STR   H11471029  45.249  45.298  36.135
    1STR   H11571030  45.238  45.316  36.308
    1STR   C11671031  44.997  45.450  36.323
    1STR   H11771032  45.040  45.550  36.325
    1STR   H11871033  44.890  45.462  36.309
    1STR   O11971034  45.024  45.381  36.445
    1STR   C12071035  44.979  45.447  36.563
    1STR   H12171036  45.002  45.554  36.558
    1STR   C12271037  44.828  45.427  36.580
    1STR   H12371038  44.802  45.321  36.581
    1STR   H12471039  44.770  45.474  36.501
    1STR   H12571040  44.794  45.470  36.675
    1STR   C12671041  45.058  45.388  36.681
    1STR   H12771042  45.036  45.281  36.691
    1STR   H12871043  45.164  45.397  36.661
    1STR   O12971044  45.023  45.457  36.801
    1STR   C13071045  45.087  45.409  36.919
    1STR   H13171046  45.086  45.300  36.920
    1STR   C13271047  45.231  45.461  36.926
    1STR   H13371048  45.234  45.570  36.920
    1STR   H13471049  45.293  45.421  36.845
    1STR   H13571050  45.278  45.432  37.020
    1STR   C13671051  45.004  45.459  37.038
    1STR   H13771052  45.004  45.568  37.041
    1STR   H13871053  44.900  45.427  37.025
    1STR   O13971054  45.058  45.405  37.159
    1STR   C14071055  44.992  45.447  37.278
    1STR   H14171056  44.970  45.554  37.274
    1STR   C14271057  44.862  45.367  37.297
    1STR   H14371058  44.881  45.260  37.296
    1STR   H14471059  44.789  45.388  37.218
    1STR   H14571060  44.814  45.392  37.392
    1STR   C14671061  45.089  45.423  37.395
    1STR   H14771062  45.112  45.317  37.403
    1STR   H14871063  45.183  45.474  37.374
    1STR   O14971064  45.031  45.472  37.516
    1STR   C15071065  45.110  45.452  37.633
    1STR   H15171066  45.153  45.351  37.633
    1STR   C15271067  45.222  45.557  37.639
    1STR   H15371068  45.181  45.658  37.634
    1STR   H15471069  45.294  45.546  37.558
    1STR   H15571070  45.278  45.548  37.732
    1STR   C15671071  45.016  45.463  37.753
    1STR   H15771072  44.972  45.563  37.758
    1STR   H15871073  44.933  45.393  37.741
    1STR   O15971074  45.088  45.435  37.873
    1STR   C16071075  45.013  45.446  37.993
    1STR   H16171076  44.950  45.535  37.991
    1STR   C16271077  44.926  45.320  38.012
    1STR   H16371078  44.986  45.230  38.010
    1STR   H16471079  44.849  45.311  37.935
    1STR   H16571080  44.874  45.323  38.108
    1STR   C16671081  45.113  45.461  38.109
    1STR   H16771082  45.177  45.373  38.115
    1STR   H16871083  45.179  45.546  38.087
    1STR   O16971084  45.043  45.482  38.231
    1STR   C17071085  45.124  45.495  38.347
    1STR   H17171086  45.204  45.420  38.345
    1STR   C17271087  45.185  45.636  38.353
    1STR   H17371088  45.107  45.712  38.350
    1STR   H17471089  45.254  45.655  38.271
    1STR   H17571090  45.241  45.649  38.446
    1STR   C17671091  45.035  45.466  38.469
    1STR   H17771092  44.956  45.540  38.475
    1STR   H17871093  44.988  45.369  38.456
    1STR   O17971094  45.115  45.468  38.587
    1STR   C18071095  45.043  45.446  38.708
    1STR   H18171096  44.950  45.503  38.708
    1STR   C18271097  45.013  45.297  38.726
    1STR   H18371098  45.105  45.238  38.722
    1STR   H18471099  44.946  45.259  38.649
    1STR   H18571100  44.966  45.278  38.822
    1STR   C18671101  45.131  45.500  38.823
    1STR   H18771102  45.224  45.444  38.827
    1STR   H18871103  45.157  45.604  38.802
    1STR   O18971104  45.059  45.490  38.945
    1STR   C19071105  45.131  45.533  39.061
    1STR   H19171106  45.234  45.496  39.057
    1STR   C19271107  45.130  45.686  39.069
    1STR   H19371108  45.028  45.725  39.068
    1STR   H19471109  45.185  45.732  38.986
    1STR   H19571110  45.178  45.720  39.161
    1STR   C19671111  45.062  45.470  39.183
    1STR   H19771112  44.960  45.506  39.191
    1STR   H19871113  45.058  45.362  39.170
    1STR   O19971114  45.136  45.502  39.301
    1STR   C20071115  45.081  45.453  39.422
    1STR   H20171116  44.973  45.467  39.423
    1STR   C20271117  45.114  45.303  39.438
    1STR   H20371118  45.222  45.286  39.433
    1STR   H20471119  45.067  45.242  39.362
    1STR   H20571120  45.080  45.266  39.535
    1STR   C20671121  45.141  45.536  39.537
    1STR   H20771122  45.249  45.522  39.540
    1STR   H20871123  45.123  45.641  39.517
    1STR   O20971124  45.082  45.497  39.660
    1STR   C21071125  45.132  45.564  39.776
    1STR   H21171126  45.241  45.571  39.771
    1STR   C21271127  45.070  45.704  39.786
    1STR   H21371128  44.961  45.699  39.786
    1STR   H21471129  45.100  45.768  39.703
    1STR   H21571130  45.101  45.753  39.878
    1STR   C21671131  45.096  45.477  39.898
    1STR   H21771132  44.987  45.469  39.907
    1STR   H21871133  45.134  45.377  39.882
    1STR   O21971134  45.152  45.535  40.015
    1STR   C22071135  45.123  45.467  40.136
    1STR   H22171136  45.018  45.438  40.139
    1STR   C22271137  45.213  45.343  40.150
    1STR   H22371138  45.318  45.370  40.143
    1STR   H22471139  45.192  45.269  40.073
    1STR   H22571140  45.197  45.295  40.246
    1STR   C22671141  45.146  45.566  40.251
    1STR   H22771142  45.251  45.597  40.253
    1STR   H22871143  45.087  45.656  40.233
    1STR   O22971144  45.109  45.506  40.375
    1STR   C23071145  45.130  45.586  40.490
    1STR   H23171146  45.227  45.636  40.485
    1STR   C23271147  45.017  45.690  40.503
    1STR   H23371148  44.920  45.642  40.504
    1STR   H23471149  45.018  45.762  40.421
    1STR   H23571150  45.027  45.747  40.596
    1STR   C23671151  45.133  45.492  40.612
    1STR   H23771152  45.037  45.441  40.622
    1STR   H23871153  45.208  45.415  40.595
    1STR   O23971154  45.163  45.566  40.729
    1STR   C24071155  45.165  45.491  40.850
    1STR   H24171156  45.081  45.422  40.853
    1STR   C24271157  45.298  45.413  40.861
    1STR   H24371158  45.383  45.480  40.854
    1STR   H24471159  45.308  45.338  40.783
    1STR   H24571160  45.304  45.362  40.957
    1STR   C24671161  45.149  45.590  40.966
    1STR   H24771162  45.233  45.660  40.968
    1STR   H24871163  45.058  45.649  40.950
    1STR   O24971164  45.141  45.518  41.089
    1STR   C25071165  45.129  45.599  41.206
    1STR   H25171166  45.198  45.684  41.200
    1STR   C25271167  44.985  45.649  41.221
    1STR   H25371168  44.914  45.566  41.222
    1STR   H25471169  44.956  45.716  41.140
    1STR   H25571170  44.972  45.704  41.314
    1STR   C25671171  45.171  45.513  41.326
    1STR   H25771172  45.104  45.428  41.336
    1STR   H25871173  45.271  45.473  41.307
    1STR   O25971174  45.171  45.593  41.444
    1STR   C26071175  45.205  45.523  41.564
    1STR   H26171176  45.155  45.426  41.566
    1STR   C26271177  45.357  45.505  41.572
    1STR   H26371178  45.409  45.600  41.565
    1STR   H26471179  45.395  45.440  41.493
    1STR   H26571180  45.385  45.459  41.667
    1STR   C26671181  45.152  45.607  41.681
    1STR   H26771182  45.200  45.704  41.683
    1STR   H26871183  45.045  45.624  41.667
    1STR   O26971184  45.174  45.537  41.803
    1STR   C27071185  45.133  45.605  41.921
    1STR   H27171186  45.162  45.710  41.916
    1STR   C27271187  44.981  45.593  41.938
    1STR   H27371188  44.950  45.488  41.939
    1STR   H27471189  44.926  45.643  41.859
    1STR   H27571190  44.949  45.638  42.032
    1STR   C27671191  45.208  45.542  42.039
    1STR   H27771192  45.181  45.437  42.049
    1STR   H27871193  45.315  45.546  42.020
    1STR   O27971194  45.177  45.613  42.159
    1STR   C28071195  45.238  45.562  42.277
    1STR   H28171196  45.231  45.453  42.279
    1STR   C28271197  45.385  45.606  42.285
    1STR   H28371198  45.393  45.715  42.278
    1STR   H28471199  45.445  45.563  42.205
    1STR   H28571200  45.430  45.576  42.379
    1STR   C28671201  45.157  45.616  42.397
    1STR   H28771202  45.162  45.725  42.399
    1STR   H28871203  45.052  45.589  42.384
    1STR   O28971204  45.208  45.561  42.518
    1STR   C29071205  45.144  45.606  42.637
    1STR   H29171206  45.128  45.714  42.632
    1STR   C29271207  45.010  45.533  42.655
    1STR   H29371208  45.024  45.425  42.656
    1STR   H29471209  44.939  45.558  42.577
    1STR   H29571210  44.965  45.561  42.751
    1STR   C29671211  45.240  45.578  42.753
    1STR   H29771212  45.258  45.470  42.762
    1STR   H29871213  45.337  45.624  42.733
    1STR   O29971214  45.185  45.630  42.874
    1STR   C30071215  45.262  45.605  42.991
    1STR   H30171216  45.301  45.503  42.990
    1STR   C30271217  45.379  45.705  42.999
    1STR   H30371218  45.343  45.808  42.994
    1STR   H30471219  45.450  45.691  42.918
    1STR   H30571220  45.434  45.693  43.092
    1STR   C30671221  45.168  45.619  43.112
    1STR   H30771222  45.131  45.721  43.118
    1STR   H30871223  45.082  45.554  43.097
    1STR   O30971224  45.238  45.583  43.231
    1STR    H1R71225  45.105  45.684  43.353
    1STR    H1S71226  45.015  45.472  43.457
    1STR    H1T71227  45.126  45.376  43.361
    1STR    H1U71228  44.995  45.466  43.284
    1STR    H1V71229  45.336  45.677  43.449
    1STR    H1W71230  45.325  45.505  43.469
    1STR    H1X71231  45.102  45.672  43.776
    1STR    H1Y71232  44.965  45.686  43.966
    1STR    H1Z71233  44.888  45.590  44.178
    1STR    H2071234  44.929  45.240  44.276
    1STR    H2171235  45.014  45.364  44.369
    1STR    H2271236  44.848  45.392  44.312
    1STR    H2371237  45.115  45.131  44.050
    1STR    H2771238  45.201  45.331  43.893
    1STR    H2871239  44.766  45.398  31.419
    1STR    H2971240  44.759  45.461  31.186
    1STR    H2A71241  45.034  45.446  30.956
    1STR    H2B71242  44.869  45.498  30.980
    1STR    H2C71243  44.901  45.336  30.920
    1STR   BCK171244  45.224  45.073  46.018
    1STR    O0371245  45.313  44.993  45.990
    1STR    N0471246  45.148  45.066  46.128
    1STR    C0571247  45.142  44.961  46.219
    1STR    C0671248  45.161  44.985  46.358
    1STR    C0771249  45.151  44.881  46.455
    1STR    N0871250  45.166  44.909  46.592
    1STR    C0971251  45.175  44.826  46.698
    1STR    O0A71252  45.177  44.704  46.691
    1STR    O0B71253  45.182  44.894  46.815
    1STR    C0C71254  45.199  44.822  46.939
    1STR    C0D71255  45.348  44.786  46.957
    1STR    C0E71256  45.145  44.902  47.059
    1STR    O0F71257  45.161  44.826  47.179
    1STR    C0G71258  45.114  44.886  47.300
    1STR    C0H71259  44.961  44.873  47.308
    1STR    C0I71260  45.182  44.817  47.420
    1STR    O0J71261  45.143  44.880  47.542
    1STR    C0K71262  44.770  44.812  58.387
    1STR    C0M71263  44.922  44.830  58.399
    1STR    C0N71264  44.695  44.886  58.499
    1STR    O0O71265  44.716  44.823  58.624
    1STR    C0P71266  44.802  44.872  58.713
    1STR    O0Q71267  44.871  44.973  58.699
    1STR    N0R71268  44.801  44.793  58.820
    1STR    C0S71269  44.871  44.794  58.940
    1STR    C0T71270  44.846  44.687  59.027
    1STR    C0U71271  44.915  44.674  59.148
    1STR    C0V71272  45.012  44.769  59.185
    1STR    C0W71273  45.094  44.743  59.310
    1STR    C0X71274  45.034  44.883  59.103
    1STR    N0Y71275  45.129  44.978  59.139
    1STR   BCK271276  45.134  45.045  59.255
    1STR    O1071277  45.043  45.051  59.336
    1STR    C1371278  44.965  44.893  58.979
    1STR    C1471279  45.121  44.751  46.407
    1STR    C1571280  45.100  44.726  46.271
    1STR    C1671281  45.108  44.830  46.177
    1STR    C1771282  45.074  44.798  46.032
    1STR    H1B71283  45.088  45.145  46.142
    1STR    H1C71284  45.185  45.085  46.390
    1STR    H1D71285  45.174  45.005  46.619
    1STR    H1E71286  45.141  44.729  46.934
    1STR    H1F71287  45.410  44.876  46.963
    1STR    H1G71288  45.363  44.728  47.048
    1STR    H1H71289  45.384  44.726  46.874
    1STR    H1I71290  45.040  44.925  47.042
    1STR    H1J71291  45.198  44.997  47.067
    1STR    H1K71292  45.143  44.992  47.302
    1STR    H1M71293  44.931  44.768  47.302
    1STR    H1N71294  44.911  44.927  47.228
    1STR    H1O71295  44.924  44.912  47.403
    1STR    H1P71296  45.155  44.711  47.422
    1STR    H1Q71297  45.290  44.822  47.408
    1STR   C01071298  45.195  44.823  47.662
    1STR   H01171299  45.185  44.714  47.658
    1STR   C01271300  45.342  44.862  47.680
    1STR   H01371301  45.354  44.971  47.680
    1STR   H01471302  45.406  44.821  47.603
    1STR   H01571303  45.380  44.826  47.776
    1STR   C01671304  45.109  44.873  47.780
    1STR   H01771305  45.115  44.982  47.786
    1STR   H01871306  45.004  44.848  47.761
    1STR   O01971307  45.152  44.814  47.903
    1STR   C02071308  45.082  44.856  48.020
    1STR   H02171309  45.068  44.964  48.018
    1STR   C02271310  44.945  44.786  48.028
    1STR   H02371311  44.957  44.677  48.025
    1STR   H02471312  44.879  44.814  47.946
    1STR   H02571313  44.894  44.811  48.120
    1STR   C02671314  45.168  44.822  48.143
    1STR   H02771315  45.184  44.715  48.149
    1STR   H02871316  45.266  44.868  48.131
    1STR   O02971317  45.105  44.870  48.262
    1STR   C03071318  45.173  44.842  48.384
    1STR   H03171319  45.209  44.739  48.384
    1STR   C03271320  45.291  44.939  48.402
    1STR   H03371321  45.258  45.042  48.398
    1STR   H03471322  45.368  44.925  48.326
    1STR   H03571323  45.339  44.923  48.499
    1STR   C03671324  45.072  44.856  48.499
    1STR   H03771325  45.034  44.958  48.504
    1STR   H03871326  44.986  44.791  48.480
    1STR   O03971327  45.134  44.820  48.623
    1STR   C04071328  45.051  44.833  48.739
    1STR   H04171329  44.995  44.926  48.735
    1STR   C04271330  44.954  44.714  48.747
    1STR   H04371331  45.008  44.619  48.747
    1STR   H04471332  44.883  44.713  48.665
    1STR   H04571333  44.896  44.718  48.840
    1STR   C04671334  45.144  44.838  48.862
    1STR   H04771335  45.201  44.745  48.870
    1STR   H04871336  45.216  44.919  48.849
    1STR   O04971337  45.066  44.859  48.980
    1STR   C05071338  45.140  44.862  49.102
    1STR   H05171339  45.214  44.782  49.103
    1STR   C05271340  45.209  44.999  49.118
    1STR   H05371341  45.137  45.080  49.112
    1STR   H05471342  45.285  45.015  49.041
    1STR   H05571343  45.259  45.005  49.214
    1STR   C05671344  45.041  44.836  49.217
    1STR   H05771345  44.966  44.916  49.220
    1STR   H05871346  44.988  44.743  49.198
    1STR   O05971347  45.112  44.830  49.340
    1STR   C06071348  45.031  44.810  49.456
    1STR   H06171349  44.942  44.873  49.451
    1STR   C06271350  44.990  44.662  49.466
    1STR   H06371351  45.077  44.597  49.467
    1STR   H06471352  44.925  44.631  49.384
    1STR   H06571353  44.935  44.644  49.559
    1STR   C06671354  45.113  44.854  49.578
    1STR   H06771355  45.202  44.792  49.588
    1STR   H06871356  45.147  44.957  49.563
    1STR   O06971357  45.032  44.845  49.696
    1STR   C07071358  45.098  44.879  49.817
    1STR   H07171359  45.198  44.836  49.820
    1STR   C07271360  45.107  45.032  49.830
    1STR   H07371361  45.009  45.078  49.824
    1STR   H07471362  45.170  45.077  49.754
    1STR   H07571363  45.150  45.060  49.927
    1STR   C07671364  45.017  44.818  49.933
    1STR   H07771365  44.917  44.860  49.934
    1STR   H07871366  45.006  44.711  49.915
    1STR   O07971367  45.085  44.842  50.056
    1STR   C08071368  45.018  44.793  50.172
    1STR   H08171369  44.911  44.815  50.166
    1STR   C08271370  45.039  44.641  50.185
    1STR   H08371371  45.145  44.617  50.186
    1STR   H08471372  44.993  44.586  50.104
    1STR   H08571373  44.995  44.604  50.278
    1STR   C08671374  45.075  44.868  50.293
    1STR   H08771375  45.181  44.847  50.303
    1STR   H08871376  45.065  44.975  50.276
    1STR   O08971377  45.004  44.830  50.411
    1STR   C09071378  45.050  44.890  50.532
    1STR   H09171379  45.160  44.889  50.534
    1STR   C09271380  44.998  45.034  50.542
    1STR   H09371381  44.889  45.036  50.535
    1STR   H09471382  45.038  45.098  50.464
    1STR   H09571383  45.025  45.078  50.638
    1STR   C09671384  45.000  44.803  50.648
    1STR   H09771385  44.891  44.802  50.649
    1STR   H09871386  45.033  44.700  50.632
    1STR   O09971387  45.052  44.853  50.771
    1STR   C10071388  45.009  44.784  50.888
    1STR   H10171389  44.903  44.762  50.882
    1STR   C10271390  45.089  44.653  50.903
    1STR   H10371391  45.197  44.673  50.904
    1STR   H10471392  45.069  44.583  50.822
    1STR   H10571393  45.064  44.603  50.996
    1STR   C10671394  45.032  44.878  51.007
    1STR   H10771395  45.138  44.901  51.017
    1STR   H10871396  44.980  44.972  50.988
    1STR   O10971397  44.982  44.816  51.126
    1STR   C11071398  45.000  44.891  51.245
    1STR   H11171399  45.100  44.935  51.248
    1STR   C11271400  44.893  45.002  51.254
    1STR   H11371401  44.793  44.961  51.247
    1STR   H11471402  44.905  45.076  51.175
    1STR   H11571403  44.901  45.055  51.348
    1STR   C11671404  44.988  44.794  51.363
    1STR   H11771405  44.888  44.749  51.365
    1STR   H11871406  45.059  44.712  51.349
    1STR   O11971407  45.015  44.863  51.485
    1STR   C12071408  45.003  44.784  51.603
    1STR   H12171409  44.914  44.721  51.598
    1STR   C12271410  45.129  44.697  51.620
    1STR   H12371411  45.219  44.758  51.621
    1STR   H12471412  45.139  44.623  51.541
    1STR   H12571413  45.125  44.642  51.715
    1STR   C12671414  44.985  44.881  51.721
    1STR   H12771415  45.073  44.944  51.731
    1STR   H12871416  44.900  44.946  51.701
    1STR   O12971417  44.964  44.806  51.841
    1STR   C13071418  44.949  44.884  51.959
    1STR   H13171419  45.024  44.964  51.961
    1STR   C13271420  44.808  44.944  51.966
    1STR   H13371421  44.732  44.865  51.959
    1STR   H13471422  44.789  45.015  51.886
    1STR   H13571423  44.793  44.997  52.060
    1STR   C13671424  44.977  44.791  52.078
    1STR   H13771425  44.903  44.711  52.081
    1STR   H13871426  45.075  44.745  52.065
    1STR   O13971427  44.973  44.867  52.199
    1STR   C14071428  44.994  44.792  52.318
    1STR   H14171429  44.937  44.699  52.314
    1STR   C14271430  45.144  44.763  52.337
    1STR   H14371431  45.202  44.855  52.336
    1STR   H14471432  45.183  44.698  52.259
    1STR   H14571433  45.162  44.713  52.432
    1STR   C14671434  44.938  44.876  52.435
    1STR   H14771435  44.993  44.969  52.443
    1STR   H14871436  44.834  44.901  52.414
    1STR   O14971437  44.948  44.801  52.556
    1STR   C15071438  44.903  44.868  52.673
    1STR   H15171439  44.939  44.971  52.673
    1STR   C15271440  44.749  44.866  52.679
    1STR   H15371441  44.711  44.764  52.674
    1STR   H15471442  44.704  44.923  52.598
    1STR   H15571443  44.714  44.910  52.772
    1STR   C15671444  44.965  44.797  52.794
    1STR   H15771445  44.930  44.693  52.798
    1STR   H15871446  45.073  44.793  52.781
    1STR   O15971447  44.931  44.867  52.913
    1STR   C16071448  44.979  44.808  53.033
    1STR   H16171449  44.965  44.700  53.031
    1STR   C16271450  45.128  44.841  53.052
    1STR   H16371451  45.145  44.949  53.050
    1STR   H16471452  45.190  44.796  52.975
    1STR   H16571453  45.164  44.804  53.148
    1STR   C16671454  44.894  44.864  53.149
    1STR   H16771455  44.907  44.972  53.155
    1STR   H16871456  44.789  44.846  53.127
    1STR   O16971457  44.932  44.801  53.271
    1STR   C17071458  44.864  44.847  53.387
    1STR   H17171459  44.856  44.956  53.385
    1STR   C17271460  44.724  44.784  53.393
    1STR   H17371461  44.729  44.675  53.390
    1STR   H17471462  44.660  44.817  53.311
    1STR   H17571463  44.673  44.812  53.486
    1STR   C17671464  44.949  44.808  53.508
    1STR   H17771465  44.957  44.699  53.514
    1STR   H17871466  45.049  44.847  53.496
    1STR   O17971467  44.889  44.860  53.627
    1STR   C18071468  44.956  44.828  53.748
    1STR   H18171469  44.986  44.723  53.747
    1STR   C18271470  45.079  44.918  53.766
    1STR   H18371471  45.052  45.023  53.762
    1STR   H18471472  45.155  44.900  53.689
    1STR   H18571473  45.127  44.900  53.862
    1STR   C18671474  44.855  44.847  53.863
    1STR   H18771475  44.824  44.952  53.867
    1STR   H18871476  44.766  44.788  53.842
    1STR   O18971477  44.915  44.806  53.985
    1STR   C19071478  44.833  44.823  54.101
    1STR   H19171479  44.783  44.920  54.097
    1STR   C19271480  44.730  44.710  54.109
    1STR   H19371481  44.779  44.612  54.108
    1STR   H19471482  44.659  44.713  54.026
    1STR   H19571483  44.672  44.717  54.201
    1STR   C19671484  44.926  44.823  54.223
    1STR   H19771485  44.978  44.727  54.231
    1STR   H19871486  45.003  44.900  54.210
    1STR   O19971487  44.850  44.849  54.341
    1STR   C20071488  44.924  44.848  54.462
    1STR   H20171489  44.994  44.764  54.463
    1STR   C20271490  45.001  44.981  54.478
    1STR   H20371491  44.933  45.066  54.473
    1STR   H20471492  45.077  44.993  54.402
    1STR   H20571493  45.051  44.984  54.575
    1STR   C20671494  44.824  44.827  54.577
    1STR   H20771495  44.753  44.911  54.580
    1STR   H20871496  44.766  44.737  54.557
    1STR   O20971497  44.894  44.816  54.700
    1STR   C21071498  44.812  44.800  54.815
    1STR   H21171499  44.727  44.869  54.811
    1STR   C21271500  44.763  44.655  54.825
    1STR   H21371501  44.846  44.585  54.826
    1STR   H21471502  44.697  44.628  54.743
    1STR   H21571503  44.706  44.640  54.918
    1STR   C21671504  44.896  44.840  54.938
    1STR   H21771505  44.982  44.772  54.947
    1STR   H21871506  44.936  44.940  54.923
    1STR   O21971507  44.816  44.835  55.055
    1STR   C22071508  44.883  44.866  55.176
    1STR   H22171509  44.981  44.817  55.179
    1STR   C22271510  44.900  45.018  55.190
    1STR   H22371511  44.804  45.069  55.183
    1STR   H22471512  44.966  45.059  55.113
    1STR   H22571513  44.945  45.043  55.286
    1STR   C22671514  44.799  44.808  55.291
    1STR   H22771515  44.701  44.856  55.293
    1STR   H22871516  44.782  44.702  55.274
    1STR   O22971517  44.868  44.828  55.415
    1STR   C23071518  44.798  44.783  55.530
    1STR   H23171519  44.693  44.811  55.525
    1STR   C23271520  44.811  44.630  55.543
    1STR   H23371521  44.916  44.600  55.544
    1STR   H23471522  44.762  44.578  55.462
    1STR   H23571523  44.765  44.595  55.636
    1STR   C23671524  44.860  44.855  55.652
    1STR   H23771525  44.965  44.828  55.662
    1STR   H23871526  44.856  44.962  55.635
    1STR   O23971527  44.787  44.820  55.769
    1STR   C24071528  44.836  44.877  55.890
    1STR   H24171529  44.945  44.871  55.893
    1STR   C24271530  44.791  45.024  55.901
    1STR   H24371531  44.682  45.032  55.894
    1STR   H24471532  44.834  45.086  55.823
    1STR   H24571533  44.821  45.066  55.997
    1STR   C24671534  44.781  44.793  56.006
    1STR   H24771535  44.672  44.798  56.008
    1STR   H24871536  44.809  44.688  55.990
    1STR   O24971537  44.836  44.840  56.129
    1STR   C25071538  44.790  44.773  56.245
    1STR   H25171539  44.682  44.756  56.239
    1STR   C25271540  44.863  44.638  56.261
    1STR   H25371541  44.971  44.652  56.262
    1STR   H25471542  44.839  44.569  56.180
    1STR   H25571543  44.834  44.589  56.354
    1STR   C25671544  44.817  44.865  56.365
    1STR   H25771545  44.924  44.882  56.376
    1STR   H25871546  44.770  44.962  56.347
    1STR   O25971547  44.763  44.806  56.483
    1STR   C26071548  44.785  44.880  56.603
    1STR   H26171549  44.888  44.918  56.606
    1STR   C26271550  44.686  44.996  56.612
    1STR   H26371551  44.583  44.961  56.605
    1STR   H26471552  44.701  45.070  56.533
    1STR   H26571553  44.696  45.049  56.707
    1STR   C26671554  44.768  44.782  56.721
    1STR   H26771555  44.666  44.744  56.722
    1STR   H26871556  44.835  44.697  56.706
    1STR   O26971557  44.799  44.849  56.843
    1STR   C27071558  44.783  44.771  56.960
    1STR   H27171559  44.690  44.713  56.955
    1STR   C27271560  44.903  44.677  56.978
    1STR   H27371561  44.997  44.733  56.979
    1STR   H27471562  44.909  44.603  56.898
    1STR   H27571563  44.896  44.623  57.072
    1STR   C27671564  44.770  44.868  57.078
    1STR   H27771565  44.861  44.927  57.088
    1STR   H27871566  44.689  44.938  57.058
    1STR   O27971567  44.744  44.795  57.197
    1STR   C28071568  44.734  44.873  57.316
    1STR   H28171569  44.813  44.949  57.318
    1STR   C28271570  44.596  44.940  57.323
    1STR   H28371571  44.516  44.866  57.317
    1STR   H28471572  44.581  45.013  57.244
    1STR   H28571573  44.584  44.993  57.418
    1STR   C28671574  44.757  44.779  57.435
    1STR   H28771575  44.680  44.702  57.437
    1STR   H28871576  44.853  44.727  57.421
    1STR   O28971577  44.758  44.854  57.555
    1STR   C29071578  44.774  44.777  57.674
    1STR   H29171579  44.713  44.687  57.670
    1STR   C29271580  44.922  44.740  57.693
    1STR   H29371581  44.985  44.829  57.694
    1STR   H29471582  44.958  44.673  57.615
    1STR   H29571583  44.937  44.689  57.788
    1STR   C29671584  44.722  44.864  57.790
    1STR   H29771585  44.782  44.954  57.799
    1STR   H29871586  44.620  44.895  57.769
    1STR   O29971587  44.727  44.788  57.911
    1STR   C30071588  44.687  44.860  58.027
    1STR   H30171589  44.728  44.961  58.025
    1STR   C30271590  44.534  44.865  58.036
    1STR   H30371591  44.491  44.764  58.032
    1STR   H30471592  44.490  44.922  57.954
    1STR   H30571593  44.502  44.911  58.129
    1STR   C30671594  44.748  44.788  58.148
    1STR   H30771595  44.706  44.688  58.158
    1STR   H30871596  44.855  44.776  58.132
    1STR   O30971597  44.723  44.867  58.264
    1STR    H1R71598  44.745  44.706  58.392
    1STR    H1S71599  44.959  44.791  58.494
    1STR    H1T71600  44.949  44.936  58.395
    1STR    H1U71601  44.977  44.779  58.320
    1STR    H1V71602  44.588  44.882  58.478
    1STR    H1W71603  44.721  44.992  58.501
    1STR    H1X71604  44.735  44.719  58.806
    1STR    H1Y71605  44.773  44.611  59.002
    1STR    H1Z71606  44.896  44.590  59.212
    1STR    H2071607  45.199  44.756  59.287
    1STR    H2171608  45.066  44.811  59.390
    1STR    H2271609  45.081  44.642  59.346
    1STR    H2371610  45.203  44.998  59.074
    1STR    H2771611  44.985  44.977  58.914
    1STR    H2871612  45.111  44.666  46.474
    1STR    H2971613  45.076  44.626  46.239
    1STR    H2A71614  45.019  44.880  45.986
    1STR    H2B71615  45.013  44.709  46.024
    1STR    H2C71616  45.166  44.782  45.974
    1HEX    C0171617   0.290  60.040  59.467
    1HEX    C0271618   0.214  60.127  59.570
    1HEX    C0371619   0.078  60.072  59.610
    1HEX    O0471620   0.051  59.952  59.599
    1HEX    O0571621  60.157   0.006  59.663
    1HEX    C0671622  60.022  60.133  59.695
    1HEX    C0771623  59.997  60.107  59.847
    1HEX    C0871624  59.982   0.083  59.924
    1HEX    O0971625  59.951   0.213  59.870
    1HEX    C0A71626  59.954   0.317  59.962
    1HEX    O0B71627  59.947   0.301  60.084
    1HEX    C0C71628  59.976   0.459  59.906
    1HEX    C0D71629  59.991   0.568  60.018
    1HEX    C0F71630  59.865  60.021  59.858
    1HEX    O0G71631  59.895  59.879  59.863
    1HEX    C0H71632  59.866  59.795  59.762
    1HEX    O0I71633  59.796  59.825  59.665
    1HEX    C0J71634  59.932  59.656  59.770
    1HEX    C0K71635  59.951  59.590  59.910
    1HEX    C0N71636  60.111  60.018  59.912
    1HEX    O0O71637   0.077  60.075  59.950
    1HEX    C0P71638   0.104  60.143  60.075
    1HEX    C0Q71639   0.050  60.095   0.055
    1HEX    C0R71640   0.104  59.951   0.082
    1HEX    O0S71641   0.246  59.937   0.054
    1HEX    C0T71642   0.341  59.948   0.151
    1HEX    O0U71643   0.319  59.976   0.268
    1HEX    C0V71644   0.484  59.916   0.103
    1HEX    C0W71645   0.569  60.039   0.059
    1HEX    C0Y71646   0.110   0.031   0.160
    1HEX    O0Z71647   0.070  60.158   0.292
    1HEX    C1071648   0.131   0.058   0.395
    1HEX    O1171649   0.221   0.142   0.384
    1HEX    C1271650   0.075   0.016   0.530
    1HEX    C1371651   0.170   0.046   0.649
    1HEX    C1571652  60.054  60.114   0.060
    1HEX    O1671653  59.969  60.067   0.166
    1HEX    C1771654  59.857  59.997   0.132
    1HEX    O1871655  59.854  59.911   0.044
    1HEX    C1971656  59.727  60.042   0.200
    1HEX    C1A71657  59.634  60.114   0.097
    1HEX    H1D71658   0.397  60.055  59.480
    1HEX    H1E71659   0.272  59.935  59.490
    1HEX    H1F71660   0.203   0.070  59.536
    1HEX    H1G71661   0.271  60.130  59.663
    1HEX    H1H71662  59.990  60.046  59.636
    1HEX    H1I71663  59.959   0.054  59.660
    1HEX    H1J71664  60.082   0.106  59.957
    1HEX    H1K71665  59.920   0.069  60.012
    1HEX    H1M71666  59.895   0.484  59.838
    1HEX    H1N71667  60.067   0.456  59.846
    1HEX    H1O71668  60.048   0.530  60.102
    1HEX    H1P71669  59.892   0.592  60.059
    1HEX    H1R71670  59.793  60.045  59.780
    1HEX    H1S71671  59.812  60.043  59.951
    1HEX    H1T71672  60.029  59.665  59.721
    1HEX    H1U71673  59.873  59.590  59.707
    1HEX    H1V71674  59.857  59.594  59.967
    1HEX    H1W71675  60.024  59.646  59.969
    1HEX    H1Y71676  60.137  59.944  59.836
    1HEX    H1Z71677  60.076  59.952  59.991
    1HEX    H2071678   0.087   0.090  60.065
    1HEX    H2171679   0.213  60.140  60.080
    1HEX    H2271680   0.051  59.880   0.019
    1HEX    H2371681   0.082  59.921   0.184
    1HEX    H2471682   0.479  59.841   0.023
    1HEX    H2571683   0.532  59.867   0.187
    1HEX    H2671684   0.516  60.131   0.082
    1HEX    H2771685   0.581  60.038  60.110
    1HEX    H2971686   0.081   0.134   0.141
    1HEX    H2A71687   0.219   0.030   0.154
    1HEX    H2B71688   0.050  60.070   0.527
    1HEX    H2C71689  60.141   0.071   0.541
    1HEX    H2D71690   0.234   0.132   0.626
    1HEX    H2E71691   0.237  60.122   0.667
    1HEX    H2G71692  60.010  60.076  60.130
    1HEX    H2H71693  60.034   0.061   0.055
    1HEX    H2I71694  59.748  60.105   0.286
    1HEX    H2J71695  59.678  59.952   0.237
    1HEX    H2K71696  59.662  60.083  60.156
    1HEX    H2M71697  59.650   0.062   0.100
    1STR    S0071698   0.255  60.068  59.289
    1STR    S0E71699  60.070   0.726  59.965
    1STR    S0M71700  60.004  59.413  59.894
    1STR    S0X71701   0.735  60.046   0.138
    1STR    S1471702   0.077   0.090   0.800
    1STR    S1B71703  59.453  60.084   0.112
    1HEX    C0171704   0.208  60.016  14.280
    1HEX    C0271705   0.209  60.068  14.426
    1HEX    C0371706   0.071  60.053  14.488
    1HEX    O0471707   0.015  59.943  14.491
    1HEX    O0571708   0.020   0.010  14.532
    1HEX    C0671709  60.040   0.020  14.551
    1HEX    C0771710  59.992   0.004  14.697
    1HEX    C0871711  60.013   0.136  14.779
    1HEX    O0971712  59.961   0.268  14.752
    1HEX    C0A71713  59.981   0.361  14.854
    1HEX    O0B71714  60.006   0.329  14.971
    1HEX    C0C71715  59.976   0.511  14.816
    1HEX    C0D71716  60.035   0.602  14.931
    1HEX    C0F71717  59.842  60.116  14.692
    1HEX    O0G71718  59.836  59.972  14.673
    1HEX    C0H71719  59.808  59.916  14.553
    1HEX    O0I71720  59.754  59.975  14.460
    1HEX    C0J71721  59.854  59.770  14.537
    1HEX    C0K71722  59.861  59.685  14.665
    1HEX    C0N71723  60.067  60.049  14.774
    1HEX    O0O71724   0.046  60.059  14.816
    1HEX    C0P71725   0.096  60.135  14.928
    1HEX    C0Q71726   0.070  60.087  15.075
    1HEX    C0R71727   0.143  59.953  15.102
    1HEX    O0S71728   0.283  59.955  15.071
    1HEX    C0T71729   0.377  59.964  15.168
    1HEX    O0U71730   0.355  59.984  15.287
    1HEX    C0V71731   0.520  59.940  15.117
    1HEX    C0W71732   0.606  60.068  15.110
    1HEX    C0Y71733   0.125   0.036  15.170
    1HEX    O0Z71734   0.087  60.160  15.301
    1HEX    C1071735   0.133   0.064  15.406
    1HEX    O1171736   0.217   0.154  15.407
    1HEX    C1271737   0.063   0.015  15.532
    1HEX    C1371738   0.129   0.063  15.661
    1HEX    C1571739  60.077  60.072  15.092
    1HEX    O1671740  60.009  60.058  15.217
    1HEX    C1771741  59.888  59.997  15.212
    1HEX    O1871742  59.856  59.908  15.134
    1HEX    C1971743  59.783  60.057  15.305
    1HEX    C1A71744  59.677  60.136  15.224
    1HEX    H1D71745   0.304  59.972  14.255
    1HEX    H1E71746   0.135  59.936  14.269
    1HEX    H1F71747   0.242   0.011  14.432
    1HEX    H1G71748   0.276  60.008  14.487
    1HEX    H1H71749  59.990  60.109  14.485
    1HEX    H1I71750  60.008   0.117  14.512
    1HEX    H1J71751  60.119   0.154  14.774
    1HEX    H1K71752  59.986   0.111  14.881
    1HEX    H1M71753  59.873   0.538  14.793
    1HEX    H1N71754  60.034   0.524  14.725
    1HEX    H1O71755  60.140   0.577  14.947
    1HEX    H1P71756  59.986   0.577  15.025
    1HEX    H1R71757  59.785   0.009  14.615
    1HEX    H1S71758  59.791  60.138  14.785
    1HEX    H1T71759  59.953  59.774  14.491
    1HEX    H1U71760  59.788  59.723  14.464
    1HEX    H1V71761  59.766  59.690  14.720
    1HEX    H1W71762  59.937  59.723  14.733
    1HEX    H1Y71763  60.070  59.962  14.708
    1HEX    H1Z71764  60.001  60.011  14.851
    1HEX    H2071765   0.073   0.080  14.920
    1HEX    H2171766   0.204  60.133  14.913
    1HEX    H2271767   0.098  59.874  15.041
    1HEX    H2371768   0.126  59.922  15.206
    1HEX    H2471769   0.515  59.890  15.020
    1HEX    H2571770   0.565  59.870  15.187
    1HEX    H2671771   0.599  60.124  15.203
    1HEX    H2771772   0.569  60.135  15.032
    1HEX    H2971773   0.085   0.135  15.148
    1HEX    H2A71774   0.234   0.044  15.164
    1HEX    H2B71775   0.063  60.066  15.527
    1HEX    H2C71776  60.120   0.048  15.526
    1HEX    H2D71777   0.126   0.172  15.666
    1HEX    H2E71778   0.234   0.035  15.664
    1HEX    H2G71779  60.054  59.982  15.036
    1HEX    H2H71780  60.027  60.156  15.046
    1HEX    H2I71781  59.829  60.117  15.383
    1HEX    H2J71782  59.737  59.971  15.354
    1HEX    H2K71783  59.682  60.114  15.117
    1HEX    H2M71784  59.692   0.084  15.235
    1STR    S0071785   0.167  60.144  14.157
    1STR    S0E71786  60.019   0.786  14.912
    1STR    S0M71787  59.894  59.508  14.624
    1STR    S0X71788   0.782  60.028  15.076
    1STR    S1471789   0.041  60.150  15.803
    1STR    S1B71790  59.509  60.096  15.281
    1HEX    C0171791   0.256  59.999  29.391
    1HEX    C0271792   0.198  59.996  29.535
    1HEX    C0371793   0.046  59.992  29.542
    1HEX    O0471794  60.145  59.887  29.525
    1HEX    O0571795  60.154  60.111  29.580
    1HEX    C0671796  60.017  60.119  29.615
    1HEX    C0771797  59.995  60.116  29.769
    1HEX    C0871798  60.018   0.099  29.830
    1HEX    O0971799  59.952   0.223  29.797
    1HEX    C0A71800  59.966   0.326  29.890
    1HEX    O0B71801  59.986   0.308  30.010
    1HEX    C0C71802  59.962   0.470  29.834
    1HEX    C0D71803  59.930   0.583  29.938
    1HEX    C0F71804  59.852  60.056  29.795
    1HEX    O0G71805  59.861  59.913  29.810
    1HEX    C0H71806  59.811  59.824  29.722
    1HEX    O0I71807  59.732  59.852  29.632
    1HEX    C0J71808  59.867  59.682  29.739
    1HEX    C0K71809  59.850  59.617  29.880
    1HEX    C0N71810  60.097  60.017  29.841
    1HEX    O0O71811   0.068  60.062  29.878
    1HEX    C0P71812   0.095  60.140  29.997
    1HEX    C0Q71813   0.054  60.090  30.139
    1HEX    C0R71814   0.117  59.949  30.161
    1HEX    O0S71815   0.259  59.945  30.133
    1HEX    C0T71816   0.353  59.952  30.233
    1HEX    O0U71817   0.327  59.969  30.352
    1HEX    C0V71818   0.499  59.929  30.187
    1HEX    C0W71819   0.559  60.036  30.092
    1HEX    C0Y71820   0.116   0.028  30.243
    1HEX    O0Z71821   0.074  60.159  30.376
    1HEX    C1071822   0.125   0.072  30.477
    1HEX    O1171823   0.209   0.161  30.465
    1HEX    C1271824   0.064   0.038  30.613
    1HEX    C1371825   0.169   0.023  30.726
    1HEX    C1571826  60.057  60.102  30.157
    1HEX    O1671827  59.984  60.025  30.253
    1HEX    C1771828  59.869  59.962  30.211
    1HEX    O1871829  59.854  59.911  30.101
    1HEX    C1971830  59.754  59.966  30.312
    1HEX    C1A71831  59.631  60.048  30.264
    1HEX    H1D71832   0.238  59.891  29.389
    1HEX    H1E71833   0.196  60.088  29.371
    1HEX    H1F71834   0.232  60.083  29.590
    1HEX    H1G71835   0.235  59.910  29.591
    1HEX    H1H71836  59.960  60.039  29.565
    1HEX    H1I71837  59.976   0.051  29.573
    1HEX    H1J71838  60.122   0.123  29.806
    1HEX    H1K71839  60.010   0.088  29.937
    1HEX    H1M71840  59.888   0.472  29.754
    1HEX    H1N71841  60.058   0.489  29.786
    1HEX    H1O71842  59.898   0.539  30.032
    1HEX    H1P71843  59.844   0.642  29.905
    1HEX    H1R71844  59.781  60.084  29.717
    1HEX    H1S71845  59.810  60.095  29.888
    1HEX    H1T71846  59.972  59.686  29.712
    1HEX    H1U71847  59.819  59.619  29.664
    1HEX    H1V71848  59.746  59.615  29.910
    1HEX    H1W71849  59.902  59.676  29.956
    1HEX    H1Y71850  60.112  59.933  29.773
    1HEX    H1Z71851  60.055  59.961  29.924
    1HEX    H2071852   0.064   0.084  29.985
    1HEX    H2171853   0.204  60.148  29.995
    1HEX    H2271854   0.068  59.877  30.095
    1HEX    H2371855   0.095  59.914  30.262
    1HEX    H2471856   0.502  59.831  30.139
    1HEX    H2571857   0.561  59.919  30.276
    1HEX    H2671858   0.482  60.108  30.068
    1HEX    H2771859   0.587  59.989  29.998
    1HEX    H2971860   0.088   0.131  30.220
    1HEX    H2A71861   0.225   0.026  30.238
    1HEX    H2B71862   0.006  60.106  30.603
    1HEX    H2C71863  60.153   0.117  30.636
    1HEX    H2D71864   0.265   0.058  30.690
    1HEX    H2E71865   0.183  60.078  30.752
    1HEX    H2G71866  60.006  60.091  30.063
    1HEX    H2H71867  60.034   0.046  30.180
    1HEX    H2I71868  59.794  60.012  30.403
    1HEX    H2J71869  59.726  59.864  30.339
    1HEX    H2K71870  59.661  60.126  30.194
    1HEX    H2M71871  59.587  60.100  30.349
    1STR    S0071872   0.178  59.948  29.234
    1STR    S0E71873  60.066   0.701  29.982
    1STR    S0M71874  59.915  59.444  29.882
    1STR    S0X71875   0.705  60.132  30.152
    1STR    S1471876   0.133   0.119  30.878
    1STR    S1B71877  59.495  59.952  30.184
    1HEX    C0171878   0.238  60.067  44.366
    1HEX    C0271879   0.196  60.042  44.514
    1HEX    C0371880   0.047  60.030  44.542
    1HEX    O0471881  60.147  59.924  44.522
    1HEX    O0571882  60.156  60.141  44.600
    1HEX    C0671883  60.018  60.145  44.635
    1HEX    C0771884  59.992  60.125  44.787
    1HEX    C0871885  60.002   0.103  44.861
    1HEX    O0971886  59.945   0.231  44.824
    1HEX    C0A71887  59.959   0.333  44.919
    1HEX    O0B71888  59.978   0.311  45.039
    1HEX    C0C71889  59.958   0.479  44.868
    1HEX    C0D71890  59.987   0.583  44.983
    1HEX    C0F71891  59.854  60.052  44.801
    1HEX    O0G71892  59.872  59.909  44.787
    1HEX    C0H71893  59.826  59.839  44.681
    1HEX    O0I71894  59.742  59.880  44.601
    1HEX    C0J71895  59.897  59.703  44.660
    1HEX    C0K71896  59.899  59.601  44.778
    1HEX    C0N71897  60.096  60.025  44.854
    1HEX    O0O71898   0.067  60.068  44.896
    1HEX    C0P71899   0.097  60.142  45.017
    1HEX    C0Q71900   0.052  60.096  45.160
    1HEX    C0R71901   0.108  59.953  45.187
    1HEX    O0S71902   0.249  59.940  45.156
    1HEX    C0T71903   0.346  59.949  45.252
    1HEX    O0U71904   0.327  59.978  45.369
    1HEX    C0V71905   0.488  59.913  45.203
    1HEX    C0W71906   0.583  60.033  45.174
    1HEX    C0Y71907   0.118   0.035  45.259
    1HEX    O0Z71908   0.078   0.004  45.391
    1HEX    C1071909   0.141   0.064  45.493
    1HEX    O1171910   0.236   0.142  45.484
    1HEX    C1271911   0.076   0.029  45.626
    1HEX    C1371912   0.164   0.061  45.748
    1HEX    C1571913  60.056  60.115  45.172
    1HEX    O1671914  59.976  60.073  45.283
    1HEX    C1771915  59.855  60.014  45.254
    1HEX    O1871916  59.840  59.930  45.165
    1HEX    C1971917  59.733  60.068  45.330
    1HEX    C1A71918  59.634  60.140  45.233
    1HEX    H1D71919   0.319  59.998  44.343
    1HEX    H1E71920   0.279   0.007  44.355
    1HEX    H1F71921   0.235  60.122  44.577
    1HEX    H1G71922   0.240  59.950  44.550
    1HEX    H1H71923  59.962  60.072  44.575
    1HEX    H1I71924  59.979   0.081  44.603
    1HEX    H1J71925  60.107   0.129  44.856
    1HEX    H1K71926  59.973   0.086  44.963
    1HEX    H1M71927  59.862   0.499  44.821
    1HEX    H1N71928  60.034   0.488  44.791
    1HEX    H1O71929  60.081   0.558  45.033
    1HEX    H1P71930  59.911   0.574  45.060
    1HEX    H1R71931  59.779  60.092  44.731
    1HEX    H1S71932  59.811  60.069  44.900
    1HEX    H1T71933  59.999  59.727  44.631
    1HEX    H1U71934  59.852  59.656  44.572
    1HEX    H1V71935  59.799  59.560  44.796
    1HEX    H1W71936  59.929  59.649  44.870
    1HEX    H1Y71937  60.117  59.949  44.779
    1HEX    H1Z71938  60.053  59.961  44.930
    1HEX    H2071939   0.074   0.088  45.005
    1HEX    H2171940   0.206  60.143  45.016
    1HEX    H2271941   0.054  59.881  45.126
    1HEX    H2371942   0.089  59.924  45.290
    1HEX    H2471943   0.482  59.846  45.118
    1HEX    H2571944   0.531  59.855  45.284
    1HEX    H2671945   0.557  60.120  45.235
    1HEX    H2771946   0.573  60.064  45.070
    1HEX    H2971947   0.089   0.138  45.238
    1HEX    H2A71948   0.226   0.032  45.251
    1HEX    H2B71949   0.050  60.083  45.625
    1HEX    H2C71950  60.143   0.085  45.630
    1HEX    H2D71951   0.215   0.157  45.737
    1HEX    H2E71952   0.243  60.146  45.758
    1HEX    H2G71953  60.008  60.076  45.084
    1HEX    H2H71954  60.037   0.062  45.167
    1HEX    H2I71955  59.765  60.133  45.411
    1HEX    H2J71956  59.685  59.982  45.376
    1HEX    H2K71957  59.649  60.104  45.131
    1HEX    H2M71958  59.656   0.087  45.230
    1STR    S0071959   0.114  60.044  44.235
    1STR    S0E71960  59.995   0.762  44.935
    1STR    S0M71961  60.015  59.461  44.740
    1STR    S0X71962   0.760  59.990  45.206
    1STR    S1471963   0.059   0.067  45.897
    1STR    S1B71964  59.455  60.119  45.268
    1HEX    C0171965   0.238  14.898  59.412
    1HEX    C0271966   0.196  14.930  59.557
    1HEX    C0371967   0.047  14.923  59.588
    1HEX    O0471968  60.142  14.820  59.569
    1HEX    O0571969   0.001  15.038  59.640
    1HEX    C0671970  60.023  15.053  59.670
    1HEX    C0771971  59.991  15.037  59.821
    1HEX    C0871972  60.018  15.171  59.897
    1HEX    O0971973  59.965  15.301  59.867
    1HEX    C0A71974  59.986  15.398  59.965
    1HEX    O0B71975  60.012  15.371  60.082
    1HEX    C0C71976  59.983  15.546  59.920
    1HEX    C0D71977  60.045  15.640  60.029
    1HEX    C0F71978  59.842  14.987  59.830
    1HEX    O0G71979  59.840  14.844  59.816
    1HEX    C0H71980  59.803  14.781  59.703
    1HEX    O0I71981  59.731  14.830  59.616
    1HEX    C0J71982  59.868  14.643  59.686
    1HEX    C0K71983  59.775  14.521  59.709
    1HEX    C0N71984  60.077  14.925  59.891
    1HEX    O0O71985   0.052  14.946  59.937
    1HEX    C0P71986   0.089  15.018  60.058
    1HEX    C0Q71987   0.058  14.963   0.041
    1HEX    C0R71988   0.132  14.829   0.066
    1HEX    O0S71989   0.273  14.834   0.039
    1HEX    C0T71990   0.365  14.836   0.139
    1HEX    O0U71991   0.340  14.851   0.258
    1HEX    C0V71992   0.509  14.814   0.091
    1HEX    C0W71993   0.594  14.942   0.096
    1HEX    C0Y71994   0.109  15.069   0.142
    1HEX    O0Z71995   0.081  15.031   0.275
    1HEX    C1071996   0.130  15.102   0.377
    1HEX    O1171997   0.204  15.200   0.367
    1HEX    C1271998   0.081  15.051   0.512
    1HEX    C1371999   0.179  15.086   0.625
    1HEX    C1572000  60.064  14.944   0.056
    1HEX    O1672001  60.001  14.933   0.184
    1HEX    C1772002  59.878  14.874   0.188
    1HEX    O1872003  59.837  14.793   0.105
    1HEX    C1972004  59.786  14.923   0.299
    1HEX    C1A72005  59.669  15.006   0.238
    1HEX    H1D72006   0.270  14.794  59.406
    1HEX    H1E72007   0.325  14.959  59.386
    1HEX    H1F72008   0.228  15.031  59.583
    1HEX    H1G72009   0.246  14.863  59.627
    1HEX    H1H72010  59.965  14.983  59.609
    1HEX    H1I72011  59.992  15.151  59.635
    1HEX    H1J72012  60.125  15.188  59.885
    1HEX    H1K72013  59.998  15.150  60.001
    1HEX    H1M72014  59.880  15.573  59.899
    1HEX    H1N72015  60.040  15.555  59.827
    1HEX    H1O72016  60.152  15.619  60.041
    1HEX    H1P72017  60.001  15.616  60.126
    1HEX    H1R72018  59.777  15.037  59.758
    1HEX    H1S72019  59.800  15.010  59.928
    1HEX    H1T72020  59.960  14.637  59.743
    1HEX    H1U72021  59.900  14.641  59.581
    1HEX    H1V72022  59.780  14.454  59.624
    1HEX    H1W72023  59.672  14.555  59.716
    1HEX    H1Y72024  60.087  14.843  59.819
    1HEX    H1Z72025  60.018  14.877  59.968
    1HEX    H2072026   0.059  15.122  60.053
    1HEX    H2172027   0.198  15.024  60.050
    1HEX    H2272028   0.091  14.752   0.001
    1HEX    H2372029   0.113  14.794   0.168
    1HEX    H2472030   0.507  14.770  60.151
    1HEX    H2572031   0.552  14.739   0.158
    1HEX    H2672032   0.591  14.985   0.196
    1HEX    H2772033   0.552  15.018   0.029
    1HEX    H2972034   0.065  15.167   0.123
    1HEX    H2A72035   0.217  15.082   0.131
    1HEX    H2B72036   0.071  14.943   0.504
    1HEX    H2C72037  60.143  15.093   0.532
    1HEX    H2D72038   0.180  15.194   0.643
    1HEX    H2E72039   0.281  15.060   0.595
    1HEX    H2G72040  60.040  14.853   0.003
    1HEX    H2H72041  60.012  15.026   0.009
    1HEX    H2I72042  59.842  14.980   0.373
    1HEX    H2J72043  59.747  14.834   0.348
    1HEX    H2K72044  59.666  14.990   0.130
    1HEX    H2M72045  59.684  15.113   0.252
    1STR    S0072046   0.114  14.922  59.281
    1STR    S0E72047  60.022  15.822  60.009
    1STR    S0M72048  59.806  14.417  59.857
    1STR    S0X72049   0.769  14.911   0.046
    1STR    S1472050   0.140  14.999   0.781
    1STR    S1B72051  59.505  14.958   0.301
    1HEX    C0172052   0.225  14.869  14.312
    1HEX    C0272053   0.207  14.903  14.461
    1HEX    C0372054   0.063  14.881  14.505
    1HEX    O0472055   0.015  14.767  14.504
    1HEX    O0572056   0.000  14.994  14.545
    1HEX    C0672057  60.022  14.988  14.581
    1HEX    C0772058  59.999  14.986  14.735
    1HEX    C0872059  60.021  15.131  14.791
    1HEX    O0972060  59.951  15.252  14.754
    1HEX    C0A72061  59.944  15.351  14.851
    1HEX    O0B72062  59.925  15.328  14.971
    1HEX    C0C72063  59.971  15.495  14.803
    1HEX    C0D72064  59.970  15.604  14.917
    1HEX    C0F72065  59.856  14.926  14.761
    1HEX    O0G72066  59.863  14.783  14.780
    1HEX    C0H72067  59.833  14.694  14.683
    1HEX    O0I72068  59.775  14.723  14.579
    1HEX    C0J72069  59.885  14.551  14.707
    1HEX    C0K72070  59.873  14.491  14.850
    1HEX    C0N72071  60.101  14.890  14.809
    1HEX    O0O72072   0.070  14.939  14.847
    1HEX    C0P72073   0.094  15.019  14.965
    1HEX    C0Q72074   0.046  14.972  15.107
    1HEX    C0R72075   0.104  14.830  15.133
    1HEX    O0S72076   0.245  14.819  15.101
    1HEX    C0T72077   0.343  14.831  15.195
    1HEX    O0U72078   0.324  14.857  15.313
    1HEX    C0V72079   0.485  14.804  15.142
    1HEX    C0W72080   0.558  14.925  15.077
    1HEX    C0Y72081   0.109  15.070  15.209
    1HEX    O0Z72082   0.068  15.039  15.342
    1HEX    C1072083   0.123  15.105  15.444
    1HEX    O1172084   0.209  15.193  15.434
    1HEX    C1272085   0.064  15.065  15.579
    1HEX    C1372086   0.164  15.076  15.697
    1HEX    C1572087  60.050  14.990  15.119
    1HEX    O1672088  59.970  14.930  15.222
    1HEX    C1772089  59.862  14.856  15.182
    1HEX    O1872090  59.865  14.775  15.090
    1HEX    C1972091  59.729  14.892  15.250
    1HEX    C1A72092  59.633  14.964  15.151
    1HEX    H1D72093   0.318  14.815  14.296
    1HEX    H1E72094   0.146  14.803  14.277
    1HEX    H1F72095   0.238  15.005  14.485
    1HEX    H1G72096   0.268  14.836  14.522
    1HEX    H1H72097  59.975  14.902  14.533
    1HEX    H1I72098  59.972  15.074  14.537
    1HEX    H1J72099  60.124  15.156  14.767
    1HEX    H1K72100  60.014  15.124  14.898
    1HEX    H1M72101  59.900  15.521  14.725
    1HEX    H1N72102  60.069  15.493  14.756
    1HEX    H1O72103  59.992  15.560  15.014
    1HEX    H1P72104  59.869  15.645  14.926
    1HEX    H1R72105  59.785  14.952  14.682
    1HEX    H1S72106  59.813  14.968  14.852
    1HEX    H1T72107  59.990  14.551  14.677
    1HEX    H1U72108  59.835  14.486  14.635
    1HEX    H1V72109  59.769  14.493  14.884
    1HEX    H1W72110  59.929  14.550  14.922
    1HEX    H1Y72111  60.119  14.806  14.742
    1HEX    H1Z72112  60.058  14.834  14.892
    1HEX    H2072113   0.066  15.122  14.950
    1HEX    H2172114   0.203  15.025  14.967
    1HEX    H2272115   0.050  14.757  15.071
    1HEX    H2372116   0.085  14.799  15.236
    1HEX    H2472117   0.480  14.721  15.072
    1HEX    H2572118   0.544  14.767  15.226
    1HEX    H2672119   0.491  15.011  15.076
    1HEX    H2772120   0.582  14.904  14.973
    1HEX    H2972121   0.081  15.173  15.188
    1HEX    H2A72122   0.218  15.068  15.204
    1HEX    H2B72123   0.026  14.963  15.572
    1HEX    H2C72124  60.138  15.129  15.595
    1HEX    H2D72125   0.246  15.143  15.671
    1HEX    H2E72126   0.210  14.979  15.718
    1HEX    H2G72127  60.000  14.967  15.027
    1HEX    H2H72128  60.029  15.097  15.129
    1HEX    H2I72129  59.746  14.950  15.340
    1HEX    H2J72130  59.684  14.797  15.281
    1HEX    H2K72131  59.661  14.937  15.049
    1HEX    H2M72132  59.648  15.072  15.156
    1STR    S0072133   0.231  15.021  14.212
    1STR    S0E72134  60.090  15.742  14.895
    1STR    S0M72135  59.933  14.316  14.852
    1STR    S0X72136   0.714  14.979  15.162
    1STR    S1472137   0.087  15.144  15.848
    1STR    S1B72138  59.453  14.929  15.170
    1HEX    C0172139   0.162  14.888  29.303
    1HEX    C0272140   0.187  14.935  29.448
    1HEX    C0372141   0.059  14.915  29.528
    1HEX    O0472142   0.009  14.802  29.535
    1HEX    O0572143   0.007  15.029  29.576
    1HEX    C0672144  60.028  15.034  29.606
    1HEX    C0772145  59.992  15.017  29.756
    1HEX    C0872146  60.007  15.155  29.831
    1HEX    O0972147  59.950  15.285  29.802
    1HEX    C0A72148  59.971  15.384  29.900
    1HEX    O0B72149  60.000  15.357  30.016
    1HEX    C0C72150  59.962  15.534  29.858
    1HEX    C0D72151  60.010  15.631  29.974
    1HEX    C0F72152  59.850  14.951  29.763
    1HEX    O0G72153  59.861  14.807  29.747
    1HEX    C0H72154  59.812  14.739  29.641
    1HEX    O0I72155  59.732  14.786  29.560
    1HEX    C0J72156  59.873  14.599  29.618
    1HEX    C0K72157  59.877  14.497  29.736
    1HEX    C0N72158  60.087  14.911  29.828
    1HEX    O0O72159   0.062  14.945  29.863
    1HEX    C0P72160   0.100  15.024  29.977
    1HEX    C0Q72161   0.063  14.980  30.122
    1HEX    C0R72162   0.123  14.838  30.147
    1HEX    O0S72163   0.263  14.827  30.112
    1HEX    C0T72164   0.363  14.837  30.204
    1HEX    O0U72165   0.346  14.862  30.323
    1HEX    C0V72166   0.504  14.808  30.150
    1HEX    C0W72167   0.596  14.933  30.132
    1HEX    C0Y72168   0.132  15.079  30.218
    1HEX    O0Z72169   0.089  15.048  30.348
    1HEX    C1072170   0.138  15.113  30.452
    1HEX    O1172171   0.227  15.198  30.450
    1HEX    C1272172   0.065  15.072  30.579
    1HEX    C1372173   0.136  15.120  30.706
    1HEX    C1572174  60.068  14.999  30.145
    1HEX    O1672175  59.997  14.948  30.259
    1HEX    C1772176  59.879  14.883  30.235
    1HEX    O1872177  59.862  14.804  30.143
    1HEX    C1972178  59.761  14.926  30.324
    1HEX    C1A72179  59.651  14.995  30.237
    1HEX    H1D72180   0.232  14.809  29.275
    1HEX    H1E72181   0.063  14.843  29.295
    1HEX    H1F72182   0.218  15.039  29.454
    1HEX    H1G72183   0.264  14.874  29.496
    1HEX    H1H72184  59.977  14.959  29.546
    1HEX    H1I72185  59.990  15.129  29.569
    1HEX    H1J72186  60.112  15.180  29.819
    1HEX    H1K72187  59.986  15.136  29.935
    1HEX    H1M72188  59.860  15.556  29.828
    1HEX    H1N72189  60.026  15.548  29.770
    1HEX    H1O72190  60.114  15.610  29.999
    1HEX    H1P72191  59.954  15.608  30.065
    1HEX    H1R72192  59.782  14.995  29.689
    1HEX    H1S72193  59.802  14.970  29.859
    1HEX    H1T72194  59.975  14.616  29.584
    1HEX    H1U72195  59.820  14.554  29.534
    1HEX    H1V72196  59.776  14.465  29.764
    1HEX    H1W72197  59.921  14.541  29.825
    1HEX    H1Y72198  60.100  14.829  29.758
    1HEX    H1Z72199  60.038  14.854  29.906
    1HEX    H2072200   0.077  15.129  29.966
    1HEX    H2172201   0.209  15.024  29.970
    1HEX    H2272202   0.068  14.765  30.086
    1HEX    H2372203   0.107  14.807  30.251
    1HEX    H2472204   0.497  14.751  30.058
    1HEX    H2572205   0.550  14.742  30.224
    1HEX    H2672206   0.586  15.002  30.216
    1HEX    H2772207   0.567  14.989  30.043
    1HEX    H2972208   0.105  15.183  30.196
    1HEX    H2A72209   0.241  15.075  30.211
    1HEX    H2B72210   0.055  14.964  30.578
    1HEX    H2C72211  60.124  15.114  30.572
    1HEX    H2D72212   0.155  15.228  30.703
    1HEX    H2E72213   0.233  15.071  30.715
    1HEX    H2G72214  60.012  14.970  30.059
    1HEX    H2H72215  60.050  15.106  30.149
    1HEX    H2I72216  59.795  14.989  30.405
    1HEX    H2J72217  59.721  14.835  30.369
    1HEX    H2K72218  59.637  14.939  30.145
    1HEX    H2M72219  59.684  15.094  30.208
    1STR    S0072220   0.163  15.021  29.180
    1STR    S0E72221  59.994  15.815  29.948
    1STR    S0M72222  59.976  14.348  29.686
    1STR    S0X72223   0.774  14.884  30.115
    1STR    S1472224   0.032  15.079  30.849
    1STR    S1B72225  59.487  15.012  30.317
    1HEX    C0172226   0.209  14.875  44.413
    1HEX    C0272227   0.179  14.861  44.564
    1HEX    C0372228   0.030  14.870  44.589
    1HEX    O0472229  60.116  14.773  44.569
    1HEX    O0572230  60.151  14.992  44.634
    1HEX    C0672231  60.014  15.018  44.659
    1HEX    C0772232  59.978  15.014  44.810
    1HEX    C0872233  60.007  15.153  44.877
    1HEX    O0972234  59.952  15.281  44.840
    1HEX    C0A72235  59.980  15.387  44.926
    1HEX    O0B72236  60.010  15.373  45.045
    1HEX    C0C72237  59.976  15.529  44.864
    1HEX    C0D72238  59.941  15.647  44.961
    1HEX    C0F72239  59.828  14.968  44.821
    1HEX    O0G72240  59.820  14.824  44.823
    1HEX    C0H72241  59.781  14.750  44.718
    1HEX    O0I72242  59.719  14.792  44.621
    1HEX    C0J72243  59.825  14.603  44.728
    1HEX    C0K72244  59.714  14.504  44.772
    1HEX    C0N72245  60.063  14.903  44.885
    1HEX    O0O72246   0.040  14.930  44.923
    1HEX    C0P72247   0.082  15.011  45.035
    1HEX    C0Q72248   0.051  14.968  45.182
    1HEX    C0R72249   0.109  14.826  45.205
    1HEX    O0S72250   0.250  14.816  45.172
    1HEX    C0T72251   0.348  14.820  45.267
    1HEX    O0U72252   0.329  14.838  45.387
    1HEX    C0V72253   0.491  14.801  45.213
    1HEX    C0W72254   0.566  14.935  45.190
    1HEX    C0Y72255   0.122  15.068  45.278
    1HEX    O0Z72256   0.085  15.046  45.414
    1HEX    C1072257   0.143  15.120  45.511
    1HEX    O1172258   0.231  15.204  45.492
    1HEX    C1272259   0.084  15.095  45.650
    1HEX    C1372260   0.192  15.058  45.755
    1HEX    C1572261  60.057  14.987  45.208
    1HEX    O1672262  59.991  14.916  45.313
    1HEX    C1772263  59.873  14.854  45.285
    1HEX    O1872264  59.844  14.803  45.177
    1HEX    C1972265  59.771  14.861  45.399
    1HEX    C1A72266  59.643  14.940  45.359
    1HEX    H1D72267   0.147  14.807  44.355
    1HEX    H1E72268   0.313  14.853  44.391
    1HEX    H1F72269   0.230  14.937  44.623
    1HEX    H1G72270   0.212  14.764  44.601
    1HEX    H1H72271  59.952  14.949  44.601
    1HEX    H1I72272  59.990  15.116  44.617
    1HEX    H1J72273  60.112  15.170  44.859
    1HEX    H1K72274  59.991  15.141  44.984
    1HEX    H1M72275  59.902  15.525  44.784
    1HEX    H1N72276  60.072  15.547  44.816
    1HEX    H1O72277  59.889  15.606  45.048
    1HEX    H1P72278  59.869  15.715  44.914
    1HEX    H1R72279  59.766  15.011  44.742
    1HEX    H1S72280  59.784  15.003  44.915
    1HEX    H1T72281  59.912  14.597  44.793
    1HEX    H1U72282  59.861  14.575  44.629
    1HEX    H1V72283  59.687  14.439  44.689
    1HEX    H1W72284  59.624  14.561  44.796
    1HEX    H1Y72285  60.071  14.819  44.817
    1HEX    H1Z72286  60.010  14.853  44.965
    1HEX    H2072287   0.057  15.116  45.023
    1HEX    H2172288   0.191  15.011  45.025
    1HEX    H2272289   0.055  14.754  45.143
    1HEX    H2372290   0.092  14.794  45.309
    1HEX    H2472291   0.488  14.740  45.123
    1HEX    H2572292   0.546  14.742  45.288
    1HEX    H2672293   0.567  14.993  45.282
    1HEX    H2772294   0.508  14.992  45.118
    1HEX    H2972295   0.097  15.171  45.252
    1HEX    H2A72296   0.230  15.061  45.268
    1HEX    H2B72297   0.010  15.015  45.643
    1HEX    H2C72298   0.030  15.185  45.679
    1HEX    H2D72299   0.290  15.076  45.712
    1HEX    H2E72300   0.188  14.952  45.778
    1HEX    H2G72301  59.999  14.975  45.118
    1HEX    H2H72302  60.038  15.092  45.229
    1HEX    H2I72303  59.819  14.910  45.483
    1HEX    H2J72304  59.746  14.760  45.432
    1HEX    H2K72305  59.662  15.002  45.272
    1HEX    H2M72306  59.613  15.008  45.438
    1STR    S0072307   0.171  15.046  44.364
    1STR    S0E72308  60.078  15.752  45.028
    1STR    S0M72309  59.751  14.396  44.916
    1STR    S0X72310   0.738  14.922  45.124
    1STR    S1472311   0.187  15.154  45.912
    1STR    S1B72312  59.497  14.836  45.319
    1HEX    C0172313   0.273  29.985  59.491
    1HEX    C0272314   0.198  30.053  59.607
    1HEX    C0372315   0.057  30.000  59.624
    1HEX    O0472316   0.028  29.882  59.603
    1HEX    O0572317  60.133  30.093  59.672
    1HEX    C0672318  60.000  30.056  59.705
    1HEX    C0772319  59.981  30.029  59.857
    1HEX    C0872320  59.965  30.165  59.935
    1HEX    O0972321  59.946  30.295  59.875
    1HEX    C0A72322  59.951  30.402  59.964
    1HEX    O0B72323  59.948  30.388  60.086
    1HEX    C0C72324  59.968  30.543  59.903
    1HEX    C0D72325  59.988  30.653  60.014
    1HEX    C0F72326  59.851  29.939  59.872
    1HEX    O0G72327  59.883  29.798  59.883
    1HEX    C0H72328  59.856  29.710  59.785
    1HEX    O0I72329  59.786  29.734  59.687
    1HEX    C0J72330  59.927  29.573  59.799
    1HEX    C0K72331  59.941  29.511  59.942
    1HEX    C0N72332  60.099  29.940  59.916
    1HEX    O0O72333   0.067  29.997  59.947
    1HEX    C0P72334   0.101  30.065  60.070
    1HEX    C0Q72335   0.050  30.019   0.051
    1HEX    C0R72336   0.103  29.874   0.079
    1HEX    O0S72337   0.244  29.858   0.049
    1HEX    C0T72338   0.341  29.868   0.145
    1HEX    O0U72339   0.321  29.896   0.262
    1HEX    C0V72340   0.483  29.833   0.096
    1HEX    C0W72341   0.574  29.954   0.060
    1HEX    C0Y72342   0.115  30.115   0.154
    1HEX    O0Z72343   0.075  30.083   0.286
    1HEX    C1072344   0.138  30.142   0.388
    1HEX    O1172345   0.231  30.223   0.377
    1HEX    C1272346   0.080  30.103   0.523
    1HEX    C1372347   0.172  30.137   0.642
    1HEX    C1572348  60.054  30.042   0.062
    1HEX    O1672349  59.970  29.996   0.169
    1HEX    C1772350  59.857  29.927   0.136
    1HEX    O1872351  59.853  29.838   0.050
    1HEX    C1972352  59.726  29.975   0.202
    1HEX    C1A72353  59.633  30.042   0.096
    1HEX    H1D72354   0.377  29.969  59.517
    1HEX    H1E72355   0.230  29.886  59.477
    1HEX    H1F72356   0.198  30.161  59.598
    1HEX    H1G72357   0.248  30.028  59.701
    1HEX    H1H72358  59.969  29.970  59.645
    1HEX    H1I72359  59.934  30.136  59.672
    1HEX    H1J72360  60.060  30.182  59.981
    1HEX    H1K72361  59.893  30.155  60.016
    1HEX    H1M72362  59.881  30.566  59.842
    1HEX    H1N72363  60.054  30.540  59.837
    1HEX    H1O72364  60.063  30.622  60.086
    1HEX    H1P72365  59.896  30.664  60.071
    1HEX    H1R72366  59.779  29.959  59.792
    1HEX    H1S72367  59.797  29.964  59.963
    1HEX    H1T72368  60.025  29.584  59.754
    1HEX    H1U72369  59.872  29.504  59.735
    1HEX    H1V72370  59.845  29.513  59.994
    1HEX    H1W72371  60.010  29.570  60.002
    1HEX    H1Y72372  60.120  29.865  59.841
    1HEX    H1Z72373  60.069  29.875  59.998
    1HEX    H2072374   0.086  30.172  60.058
    1HEX    H2172375   0.210  30.059  60.071
    1HEX    H2272376   0.048  29.803   0.017
    1HEX    H2372377   0.082  29.845   0.182
    1HEX    H2472378   0.476  29.762   0.013
    1HEX    H2572379   0.528  29.778   0.178
    1HEX    H2672380   0.532  30.046   0.099
    1HEX    H2772381   0.579  29.965  60.111
    1HEX    H2972382   0.087  30.219   0.134
    1HEX    H2A72383   0.223  30.111   0.147
    1HEX    H2B72384   0.057  29.996   0.522
    1HEX    H2C72385  60.145  30.156   0.531
    1HEX    H2D72386   0.228  30.229   0.623
    1HEX    H2E72387   0.247  30.059   0.657
    1HEX    H2G72388  60.006  30.007  60.132
    1HEX    H2H72389  60.036  30.149   0.058
    1HEX    H2I72390  59.748  30.042   0.285
    1HEX    H2J72391  59.678  29.887   0.243
    1HEX    H2K72392  59.650  29.997  60.158
    1HEX    H2M72393  59.658  30.148   0.085
    1STR    S0072394   0.266  30.069  59.330
    1STR    S0E72395  60.036  30.821  59.953
    1STR    S0M72396  60.000  29.335  59.932
    1STR    S0X72397   0.746  29.936   0.126
    1STR    S1472398   0.074  30.165   0.794
    1STR    S1B72399  59.451  30.030   0.124
    1HEX    C0172400   0.233  29.956  14.301
    1HEX    C0272401   0.221  30.009  14.445
    1HEX    C0372402   0.083  29.984  14.501
    1HEX    O0472403   0.036  29.870  14.506
    1HEX    O0572404   0.021  30.097  14.540
    1HEX    C0672405  60.040  30.096  14.558
    1HEX    C0772406  59.994  30.083  14.705
    1HEX    C0872407  60.016  30.217  14.784
    1HEX    O0972408  59.964  30.348  14.754
    1HEX    C0A72409  59.984  30.444  14.853
    1HEX    O0B72410  60.009  30.415  14.970
    1HEX    C0C72411  59.981  30.593  14.811
    1HEX    C0D72412  60.044  30.685  14.921
    1HEX    C0F72413  59.845  30.034  14.702
    1HEX    O0G72414  59.841  29.890  14.687
    1HEX    C0H72415  59.814  29.830  14.569
    1HEX    O0I72416  59.756  29.885  14.476
    1HEX    C0J72417  59.868  29.687  14.553
    1HEX    C0K72418  59.898  29.605  14.681
    1HEX    C0N72419  60.071  29.969  14.782
    1HEX    O0O72420   0.049  29.981  14.823
    1HEX    C0P72421   0.094  30.055  14.937
    1HEX    C0Q72422   0.066  30.004  15.082
    1HEX    C0R72423   0.143  29.872  15.109
    1HEX    O0S72424   0.284  29.879  15.079
    1HEX    C0T72425   0.377  29.882  15.177
    1HEX    O0U72426   0.354  29.895  15.297
    1HEX    C0V72427   0.520  29.860  15.126
    1HEX    C0W72428   0.605  29.989  15.126
    1HEX    C0Y72429   0.117  30.114  15.178
    1HEX    O0Z72430   0.085  30.076  15.310
    1HEX    C1072431   0.133  30.142  15.414
    1HEX    O1172432   0.216  30.233  15.410
    1HEX    C1272433   0.070  30.091  15.542
    1HEX    C1372434   0.154  30.123  15.666
    1HEX    C1572435  60.072  29.981  15.099
    1HEX    O1672436  60.005  29.987  15.225
    1HEX    C1772437  59.880  29.933  15.229
    1HEX    O1872438  59.840  29.844  15.154
    1HEX    C1972439  59.783  29.999  15.326
    1HEX    C1A72440  59.678  30.081  15.247
    1HEX    H1D72441   0.336  29.931  14.277
    1HEX    H1E72442   0.176  29.863  14.292
    1HEX    H1F72443   0.246  30.115  14.451
    1HEX    H1G72444   0.290  29.955  14.510
    1HEX    H1H72445  59.997  30.018  14.495
    1HEX    H1I72446  60.001  30.188  14.515
    1HEX    H1J72447  60.123  30.235  14.776
    1HEX    H1K72448  59.992  30.195  14.887
    1HEX    H1M72449  59.877  30.620  14.790
    1HEX    H1N72450  60.036  30.603  14.717
    1HEX    H1O72451  60.149  30.659  14.935
    1HEX    H1P72452  59.997  30.664  15.017
    1HEX    H1R72453  59.787  30.084  14.624
    1HEX    H1S72454  59.794  30.059  14.795
    1HEX    H1T72455  59.959  29.696  14.495
    1HEX    H1U72456  59.797  29.633  14.490
    1HEX    H1V72457  59.808  29.591  14.741
    1HEX    H1W72458  59.970  29.655  14.745
    1HEX    H1Y72459  60.074  29.882  14.717
    1HEX    H1Z72460  60.008  29.932  14.862
    1HEX    H2072461   0.066  30.160  14.932
    1HEX    H2172462   0.202  30.059  14.925
    1HEX    H2272463   0.102  29.792  15.047
    1HEX    H2372464   0.126  29.840  15.212
    1HEX    H2472465   0.516  29.814  15.028
    1HEX    H2572466   0.565  29.787  15.193
    1HEX    H2672467   0.600  30.038  15.223
    1HEX    H2772468   0.564  30.061  15.054
    1HEX    H2972469   0.073  30.211  15.158
    1HEX    H2A72470   0.225  30.126  15.169
    1HEX    H2B72471   0.059  29.984  15.532
    1HEX    H2C72472  60.131  30.135  15.550
    1HEX    H2D72473   0.156  30.231  15.682
    1HEX    H2E72474   0.258  30.093  15.651
    1HEX    H2G72475  60.051  29.884  15.055
    1HEX    H2H72476  60.019  30.056  15.041
    1HEX    H2I72477  59.835  30.058  15.401
    1HEX    H2J72478  59.733  29.917  15.378
    1HEX    H2K72479  59.660  30.033  15.151
    1HEX    H2M72480  59.714  30.181  15.225
    1STR    S0072481   0.169  30.071  14.174
    1STR    S0E72482  60.031  30.869  14.898
    1STR    S0M72483  59.963  29.439  14.634
    1STR    S0X72484   0.780  29.954  15.083
    1STR    S1472485   0.084  30.036  15.810
    1STR    S1B72486  59.515  30.092  15.331
    1HEX    C0172487   0.204  29.845  29.368
    1HEX    C0272488   0.183  29.913  29.505
    1HEX    C0372489   0.038  29.909  29.548
    1HEX    O0472490  60.137  29.802  29.549
    1HEX    O0572491  60.149  30.028  29.586
    1HEX    C0672492  60.012  30.038  29.624
    1HEX    C0772493  59.989  30.038  29.778
    1HEX    C0872494  60.017  30.182  29.835
    1HEX    O0972495  59.946  30.303  29.802
    1HEX    C0A72496  59.941  30.400  29.900
    1HEX    O0B72497  59.931  30.375  30.020
    1HEX    C0C72498  59.956  30.546  29.851
    1HEX    C0D72499  59.935  30.656  29.962
    1HEX    C0F72500  59.843  29.986  29.805
    1HEX    O0G72501  59.843  29.845  29.834
    1HEX    C0H72502  59.813  29.750  29.744
    1HEX    O0I72503  59.754  29.769  29.638
    1HEX    C0J72504  59.866  29.610  29.783
    1HEX    C0K72505  59.768  29.524  29.868
    1HEX    C0N72506  60.088  29.938  29.852
    1HEX    O0O72507   0.060  29.981  29.887
    1HEX    C0P72508   0.091  30.062  30.003
    1HEX    C0Q72509   0.049  30.016  30.147
    1HEX    C0R72510   0.108  29.873  30.171
    1HEX    O0S72511   0.250  29.864  30.140
    1HEX    C0T72512   0.347  29.873  30.236
    1HEX    O0U72513   0.326  29.895  30.355
    1HEX    C0V72514   0.490  29.844  30.186
    1HEX    C0W72515   0.556  29.953  30.097
    1HEX    C0Y72516   0.115  30.113  30.249
    1HEX    O0Z72517   0.073  30.082  30.381
    1HEX    C1072518   0.123  30.152  30.484
    1HEX    O1172519   0.206  30.242  30.474
    1HEX    C1272520   0.063  30.110  30.618
    1HEX    C1372521   0.166  30.108  30.734
    1HEX    C1572522  60.054  30.036  30.166
    1HEX    O1672523  59.979  29.971  30.270
    1HEX    C1772524  59.876  29.891  30.233
    1HEX    O1872525  59.880  29.813  30.138
    1HEX    C1972526  59.744  29.916  30.308
    1HEX    C1A72527  59.645  29.996  30.220
    1HEX    H1D72528   0.279  29.767  29.376
    1HEX    H1E72529   0.113  29.796  29.333
    1HEX    H1F72530   0.218  30.016  29.505
    1HEX    H1G72531   0.240  29.861  29.582
    1HEX    H1H72532  59.954  29.958  29.576
    1HEX    H1I72533  59.971  30.129  29.581
    1HEX    H1J72534  60.119  30.206  29.807
    1HEX    H1K72535  60.015  30.173  29.942
    1HEX    H1M72536  59.886  30.563  29.769
    1HEX    H1N72537  60.056  30.555  29.809
    1HEX    H1O72538  59.927  30.611  30.061
    1HEX    H1P72539  59.840  30.708  29.948
    1HEX    H1R72540  59.775  30.009  29.722
    1HEX    H1S72541  59.800  30.037  29.891
    1HEX    H1T72542  59.960  29.624  29.834
    1HEX    H1U72543  59.890  29.556  29.691
    1HEX    H1V72544  59.713  29.455  29.804
    1HEX    H1W72545  59.694  29.590  29.913
    1HEX    H1Y72546  60.100  29.852  29.787
    1HEX    H1Z72547  60.044  29.886  29.937
    1HEX    H2072548   0.065  30.166  29.989
    1HEX    H2172549   0.200  30.065  30.001
    1HEX    H2272550   0.055  29.802  30.107
    1HEX    H2372551   0.088  29.841  30.273
    1HEX    H2472552   0.486  29.750  30.131
    1HEX    H2572553   0.553  29.824  30.273
    1HEX    H2672554   0.481  30.029  30.073
    1HEX    H2772555   0.587  29.910  30.001
    1HEX    H2972556   0.089  30.217  30.227
    1HEX    H2A72557   0.224  30.109  30.243
    1HEX    H2B72558   0.018  30.012  30.608
    1HEX    H2C72559  60.142  30.180  30.639
    1HEX    H2D72560   0.258  30.156  30.702
    1HEX    H2E72561   0.192  30.006  30.761
    1HEX    H2G72562  59.998  30.019  30.076
    1HEX    H2H72563  60.035  30.142  30.182
    1HEX    H2I72564  59.763  29.965  30.404
    1HEX    H2J72565  59.702  29.818  30.330
    1HEX    H2K72566  59.661  29.972  30.115
    1HEX    H2M72567  59.666  30.103  30.229
    1STR    S0072568   0.257  29.965  29.243
    1STR    S0E72569  60.070  30.781  29.979
    1STR    S0M72570  59.844  29.427  30.006
    1STR    S0X72571   0.703  30.041  30.167
    1STR    S1472572   0.110  30.198  30.884
    1STR    S1B72573  59.467  29.970  30.257
    1HEX    C0172574   0.243  29.998  44.368
    1HEX    C0272575   0.204  29.964  44.514
    1HEX    C0372576   0.055  29.954  44.541
    1HEX    O0472577  60.153  29.852  44.513
    1HEX    O0572578   0.005  30.063  44.603
    1HEX    C0672579  60.027  30.068  44.638
    1HEX    C0772580  60.000  30.045  44.789
    1HEX    C0872581  60.001  30.183  44.866
    1HEX    O0972582  59.949  30.312  44.829
    1HEX    C0A72583  59.965  30.413  44.925
    1HEX    O0B72584  59.988  30.390  45.044
    1HEX    C0C72585  59.958  30.562  44.879
    1HEX    C0D72586  59.991  30.663  44.995
    1HEX    C0F72587  59.866  29.964  44.801
    1HEX    O0G72588  59.892  29.822  44.793
    1HEX    C0H72589  59.851  29.743  44.691
    1HEX    O0I72590  59.766  29.775  44.609
    1HEX    C0J72591  59.930  29.610  44.678
    1HEX    C0K72592  59.932  29.513  44.800
    1HEX    C0N72593  60.109  29.949  44.854
    1HEX    O0O72594   0.079  29.996  44.895
    1HEX    C0P72595   0.106  30.068  45.018
    1HEX    C0Q72596   0.059  30.018  45.159
    1HEX    C0R72597   0.117  29.875  45.184
    1HEX    O0S72598   0.257  29.863  45.152
    1HEX    C0T72599   0.355  29.874  45.247
    1HEX    O0U72600   0.336  29.902  45.365
    1HEX    C0V72601   0.496  29.839  45.197
    1HEX    C0W72602   0.590  29.960  45.170
    1HEX    C0Y72603   0.122  30.116  45.260
    1HEX    O0Z72604   0.081  30.085  45.391
    1HEX    C1072605   0.137  30.149  45.493
    1HEX    O1172606   0.230  30.230  45.486
    1HEX    C1272607   0.068  30.116  45.624
    1HEX    C1372608   0.152  30.151  45.748
    1HEX    C1572609  60.063  30.034  45.170
    1HEX    O1672610  59.982  29.989  45.281
    1HEX    C1772611  59.860  29.934  45.251
    1HEX    O1872612  59.838  29.861  45.154
    1HEX    C1972613  59.743  29.978  45.340
    1HEX    C1A72614  59.640  30.066  45.261
    1HEX    H1D72615   0.200  29.900  44.349
    1HEX    H1E72616   0.200  30.098  44.376
    1HEX    H1F72617   0.245  30.039  44.582
    1HEX    H1G72618   0.248  29.870  44.546
    1HEX    H1H72619  59.971  29.998  44.576
    1HEX    H1I72620  59.989  30.166  44.607
    1HEX    H1J72621  60.106  30.209  44.870
    1HEX    H1K72622  59.964  30.164  44.966
    1HEX    H1M72623  59.858  30.581  44.838
    1HEX    H1N72624  60.029  30.574  44.797
    1HEX    H1O72625  60.090  30.641  45.036
    1HEX    H1P72626  59.922  30.647  45.078
    1HEX    H1R72627  59.791  29.996  44.728
    1HEX    H1S72628  59.819  29.982  44.898
    1HEX    H1T72629  60.031  29.639  44.651
    1HEX    H1U72630  59.890  29.558  44.591
    1HEX    H1V72631  59.836  29.462  44.810
    1HEX    H1W72632  59.948  29.567  44.893
    1HEX    H1Y72633  60.132  29.874  44.778
    1HEX    H1Z72634  60.070  29.883  44.931
    1HEX    H2072635   0.084  30.173  45.008
    1HEX    H2172636   0.215  30.069  45.019
    1HEX    H2272637   0.063  29.803  45.123
    1HEX    H2372638   0.098  29.845  45.288
    1HEX    H2472639   0.490  29.774  45.110
    1HEX    H2572640   0.540  29.779  45.277
    1HEX    H2672641   0.571  30.042  45.240
    1HEX    H2772642   0.572  30.000  45.070
    1HEX    H2972643   0.094  30.219  45.239
    1HEX    H2A72644   0.231  30.114  45.254
    1HEX    H2B72645   0.045  30.009  45.624
    1HEX    H2C72646  60.134  30.170  45.624
    1HEX    H2D72647   0.195  30.251  45.741
    1HEX    H2E72648   0.236  30.082  45.757
    1HEX    H2G72649  60.016  29.996  45.082
    1HEX    H2H72650  60.042  30.141  45.167
    1HEX    H2I72651  59.781  30.030  45.428
    1HEX    H2J72652  59.694  29.887  45.376
    1HEX    H2K72653  59.661  30.062  45.154
    1HEX    H2M72654  59.652  30.171  45.289
    1STR    S0072655   0.149  29.990  44.210
    1STR    S0E72656  59.986  30.845  44.957
    1STR    S0M72657  60.065  29.384  44.781
    1STR    S0X72658   0.768  29.912  45.181
    1STR    S1472659   0.045  30.141  45.894
    1STR    S1B72660  59.462  30.025  45.281
    1HEX    C0172661   0.238  45.014  59.411
    1HEX    C0272662   0.188  44.996  59.557
    1HEX    C0372663   0.037  44.999  59.580
    1HEX    O0472664  60.128  44.900  59.556
    1HEX    O0572665  60.156  45.113  59.639
    1HEX    C0672666  60.018  45.129  59.673
    1HEX    C0772667  59.989  45.112  59.825
    1HEX    C0872668  60.017  45.245  59.899
    1HEX    O0972669  59.959  45.374  59.870
    1HEX    C0A72670  59.980  45.472  59.965
    1HEX    O0B72671  60.007  45.447  60.083
    1HEX    C0C72672  59.974  45.620  59.919
    1HEX    C0D72673  60.033  45.717  60.027
    1HEX    C0F72674  59.841  45.064  59.839
    1HEX    O0G72675  59.834  44.920  59.831
    1HEX    C0H72676  59.799  44.854  59.719
    1HEX    O0I72677  59.736  44.902  59.625
    1HEX    C0J72678  59.852  44.710  59.716
    1HEX    C0K72679  59.745  44.600  59.734
    1HEX    C0N72680  60.080  44.999  59.891
    1HEX    O0O72681   0.053  45.027  59.939
    1HEX    C0P72682   0.087  45.101  60.059
    1HEX    C0Q72683   0.051  45.050   0.043
    1HEX    C0R72684   0.113  44.909   0.066
    1HEX    O0S72685   0.253  44.904   0.033
    1HEX    C0T72686   0.351  44.907   0.127
    1HEX    O0U72687   0.334  44.922   0.248
    1HEX    C0V72688   0.492  44.890   0.069
    1HEX    C0W72689   0.598  44.982   0.135
    1HEX    C0Y72690   0.114  45.149   0.145
    1HEX    O0Z72691   0.083  45.113   0.278
    1HEX    C1072692   0.132  45.184   0.380
    1HEX    O1172693   0.206  45.282   0.368
    1HEX    C1272694   0.087  45.133   0.516
    1HEX    C1372695   0.181  45.179   0.629
    1HEX    C1572696  60.056  45.057   0.063
    1HEX    O1672697  59.997  45.012   0.185
    1HEX    C1772698  59.876  44.949   0.179
    1HEX    O1872699  59.837  44.879   0.085
    1HEX    C1972700  59.784  44.978   0.297
    1HEX    C1A72701  59.662  45.063   0.252
    1HEX    H1D72702   0.310  44.936  59.390
    1HEX    H1E72703   0.291  45.109  59.401
    1HEX    H1F72704   0.232  45.073  59.621
    1HEX    H1G72705   0.223  44.901  59.596
    1HEX    H1H72706  59.957  45.061  59.613
    1HEX    H1I72707  59.987  45.228  59.640
    1HEX    H1J72708  60.123  45.265  59.883
    1HEX    H1K72709  60.001  45.224  60.004
    1HEX    H1M72710  59.870  45.644  59.896
    1HEX    H1N72711  60.030  45.629  59.826
    1HEX    H1O72712  60.140  45.701  60.037
    1HEX    H1P72713  59.990  45.690  60.124
    1HEX    H1R72714  59.775  45.112  59.766
    1HEX    H1S72715  59.801  45.091  59.937
    1HEX    H1T72716  59.933  44.700  59.788
    1HEX    H1U72717  59.899  44.697  59.618
    1HEX    H1V72718  59.737  44.540  59.643
    1HEX    H1W72719  59.647  44.646  59.749
    1HEX    H1Y72720  60.094  44.924  59.814
    1HEX    H1Z72721  60.027  44.938  59.962
    1HEX    H2072722   0.061  45.206  60.052
    1HEX    H2172723   0.196  45.104  60.054
    1HEX    H2272724   0.061  44.836   0.003
    1HEX    H2372725   0.096  44.877   0.169
    1HEX    H2472726   0.487  44.908  60.122
    1HEX    H2572727   0.521  44.785   0.082
    1HEX    H2672728   0.558  45.082   0.150
    1HEX    H2772729   0.622  44.944   0.235
    1HEX    H2972730   0.079  45.251   0.127
    1HEX    H2A72731   0.223  45.152   0.133
    1HEX    H2B72732   0.085  45.024   0.511
    1HEX    H2C72733  60.145  45.167   0.534
    1HEX    H2D72734   0.172  45.287   0.643
    1HEX    H2E72735   0.284  45.161   0.599
    1HEX    H2G72736  60.006  45.007  60.142
    1HEX    H2H72737  60.025  45.161   0.054
    1HEX    H2I72738  59.841  45.030   0.374
    1HEX    H2J72739  59.753  44.883   0.339
    1HEX    H2K72740  59.669  45.086   0.146
    1HEX    H2M72741  59.658  45.159   0.304
    1STR    S0072742   0.115  45.007  59.276
    1STR    S0E72743  60.000  45.898  60.009
    1STR    S0M72744  59.770  44.482  59.873
    1STR    S0X72745   0.754  44.996   0.037
    1STR    S1472746   0.151  45.095   0.789
    1STR    S1B72747  59.501  44.978   0.276
    1HEX    C0172748   0.223  44.982  14.302
    1HEX    C0272749   0.213  45.002  14.454
    1HEX    C0372750   0.072  44.971  14.502
    1HEX    O0472751   0.030  44.855  14.501
    1HEX    O0572752   0.003  45.080  14.542
    1HEX    C0672753  60.026  45.066  14.579
    1HEX    C0772754  60.003  45.063  14.732
    1HEX    C0872755  60.020  45.209  14.789
    1HEX    O0972756  59.953  45.330  14.748
    1HEX    C0A72757  59.950  45.432  14.842
    1HEX    O0B72758  59.935  45.414  14.963
    1HEX    C0C72759  59.977  45.575  14.789
    1HEX    C0D72760  59.986  45.683  14.903
    1HEX    C0F72761  59.862  44.997  14.758
    1HEX    O0G72762  59.875  44.854  14.779
    1HEX    C0H72763  59.847  44.763  14.683
    1HEX    O0I72764  59.786  44.788  14.579
    1HEX    C0J72765  59.907  44.622  14.707
    1HEX    C0K72766  59.905  44.563  14.851
    1HEX    C0N72767  60.107  44.970  14.805
    1HEX    O0O72768   0.075  45.023  14.844
    1HEX    C0P72769   0.096  45.101  14.963
    1HEX    C0Q72770   0.047  45.053  15.104
    1HEX    C0R72771   0.103  44.910  15.129
    1HEX    O0S72772   0.244  44.898  15.097
    1HEX    C0T72773   0.341  44.908  15.192
    1HEX    O0U72774   0.322  44.934  15.311
    1HEX    C0V72775   0.484  44.879  15.141
    1HEX    C0W72776   0.565  45.002  15.091
    1HEX    C0Y72777   0.109  45.150  15.207
    1HEX    O0Z72778   0.069  45.118  15.339
    1HEX    C1072779   0.129  45.180  15.441
    1HEX    O1172780   0.219  45.264  15.430
    1HEX    C1272781   0.071  45.139  15.577
    1HEX    C1372782   0.169  45.162  15.695
    1HEX    C1572783  60.050  45.071  15.114
    1HEX    O1672784  59.969  45.016  15.218
    1HEX    C1772785  59.859  44.944  15.179
    1HEX    O1872786  59.860  44.859  15.090
    1HEX    C1972787  59.726  44.987  15.244
    1HEX    C1A72788  59.635  45.059  15.140
    1HEX    H1D72789   0.321  44.946  14.273
    1HEX    H1E72790   0.152  44.906  14.270
    1HEX    H1F72791   0.243  45.102  14.486
    1HEX    H1G72792   0.278  44.931  14.505
    1HEX    H1H72793  59.982  44.978  14.530
    1HEX    H1I72794  59.971  45.150  14.535
    1HEX    H1J72795  60.123  45.235  14.768
    1HEX    H1K72796  60.009  45.202  14.896
    1HEX    H1M72797  59.900  45.602  14.717
    1HEX    H1N72798  60.071  45.571  14.735
    1HEX    H1O72799  60.030  45.642  14.994
    1HEX    H1P72800  59.886  45.715  14.932
    1HEX    H1R72801  59.791  45.019  14.678
    1HEX    H1S72802  59.816  45.037  14.848
    1HEX    H1T72803  60.010  44.625  14.670
    1HEX    H1U72804  59.854  44.554  14.639
    1HEX    H1V72805  59.805  44.566  14.893
    1HEX    H1W72806  59.968  44.622  14.918
    1HEX    H1Y72807  60.129  44.887  14.737
    1HEX    H1Z72808  60.067  44.913  14.889
    1HEX    H2072809   0.066  45.205  14.948
    1HEX    H2172810   0.205  45.109  14.967
    1HEX    H2272811   0.050  44.838  15.067
    1HEX    H2372812   0.084  44.879  15.232
    1HEX    H2472813   0.477  44.803  15.063
    1HEX    H2572814   0.536  44.831  15.224
    1HEX    H2672815   0.506  45.093  15.104
    1HEX    H2772816   0.583  44.993  14.984
    1HEX    H2972817   0.081  45.253  15.186
    1HEX    H2A72818   0.218  45.148  15.201
    1HEX    H2B72819   0.040  45.035  15.572
    1HEX    H2C72820  60.141  45.199  15.589
    1HEX    H2D72821   0.241  45.240  15.671
    1HEX    H2E72822   0.228  45.072  15.714
    1HEX    H2G72823  60.002  45.044  15.022
    1HEX    H2H72824  60.030  45.178  15.120
    1HEX    H2I72825  59.744  45.048  15.332
    1HEX    H2J72826  59.677  44.895  15.278
    1HEX    H2K72827  59.665  45.029  15.040
    1HEX    H2M72828  59.650  45.167  15.144
    1STR    S0072829   0.192  45.139  14.215
    1STR    S0E72830  60.084  45.834  14.860
    1STR    S0M72831  59.965  44.387  14.851
    1STR    S0X72832   0.726  45.027  15.178
    1STR    S1472833   0.082  45.216  15.846
    1STR    S1B72834  59.454  45.025  15.152
    1HEX    C0172835   0.186  44.967  29.314
    1HEX    C0272836   0.192  45.018  29.459
    1HEX    C0372837   0.056  45.000  29.526
    1HEX    O0472838   0.003  44.889  29.530
    1HEX    O0572839   0.004  45.115  29.574
    1HEX    C0672840  60.025  45.120  29.604
    1HEX    C0772841  59.991  45.107  29.755
    1HEX    C0872842  60.016  45.244  29.828
    1HEX    O0972843  59.957  45.374  29.802
    1HEX    C0A72844  59.979  45.471  29.901
    1HEX    O0B72845  60.007  45.443  30.018
    1HEX    C0C72846  59.973  45.621  29.860
    1HEX    C0D72847  60.030  45.715  29.973
    1HEX    C0F72848  59.844  45.053  29.766
    1HEX    O0G72849  59.842  44.908  29.760
    1HEX    C0H72850  59.812  44.841  29.646
    1HEX    O0I72851  59.755  44.890  29.549
    1HEX    C0J72852  59.863  44.695  29.641
    1HEX    C0K72853  59.866  44.611  29.772
    1HEX    C0N72854  60.081  44.996  29.825
    1HEX    O0O72855   0.058  45.024  29.859
    1HEX    C0P72856   0.101  45.103  29.972
    1HEX    C0Q72857   0.067  45.061  30.118
    1HEX    C0R72858   0.127  44.919  30.144
    1HEX    O0S72859   0.268  44.911  30.110
    1HEX    C0T72860   0.366  44.921  30.205
    1HEX    O0U72861   0.348  44.944  30.324
    1HEX    C0V72862   0.509  44.898  30.151
    1HEX    C0W72863   0.598  45.025  30.142
    1HEX    C0Y72864   0.137  45.161  30.213
    1HEX    O0Z72865   0.092  45.128  30.343
    1HEX    C1072866   0.139  45.189  30.449
    1HEX    O1172867   0.227  45.275  30.452
    1HEX    C1272868   0.066  45.140  30.573
    1HEX    C1372869   0.127  45.193  30.703
    1HEX    C1572870  60.073  45.081  30.144
    1HEX    O1672871  60.005  45.023  30.256
    1HEX    C1772872  59.889  44.956  30.231
    1HEX    O1872873  59.872  44.879  30.136
    1HEX    C1972874  59.772  44.992  30.323
    1HEX    C1A72875  59.664  45.071  30.244
    1HEX    H1D72876   0.275  44.909  29.289
    1HEX    H1E72877   0.102  44.899  29.301
    1HEX    H1F72878   0.224  45.122  29.466
    1HEX    H1G72879   0.263  44.959  29.517
    1HEX    H1H72880  59.973  45.045  29.545
    1HEX    H1I72881  59.987  45.215  29.566
    1HEX    H1J72882  60.120  45.266  29.809
    1HEX    H1K72883  60.002  45.224  29.933
    1HEX    H1M72884  59.870  45.646  29.835
    1HEX    H1N72885  60.032  45.633  29.769
    1HEX    H1O72886  60.134  45.691  29.992
    1HEX    H1P72887  59.979  45.693  30.067
    1HEX    H1R72888  59.779  45.098  29.690
    1HEX    H1S72889  59.800  45.082  29.861
    1HEX    H1T72890  59.964  44.704  29.602
    1HEX    H1U72891  59.806  44.643  29.565
    1HEX    H1V72892  59.776  44.550  29.779
    1HEX    H1W72893  59.867  44.674  29.862
    1HEX    H1Y72894  60.088  44.914  29.754
    1HEX    H1Z72895  60.031  44.941  29.904
    1HEX    H2072896   0.080  45.209  29.960
    1HEX    H2172897   0.210  45.101  29.962
    1HEX    H2272898   0.073  44.846  30.083
    1HEX    H2372899   0.110  44.889  30.248
    1HEX    H2472900   0.504  44.846  30.056
    1HEX    H2572901   0.555  44.829  30.221
    1HEX    H2672902   0.589  45.086  30.232
    1HEX    H2772903   0.565  45.088  30.059
    1HEX    H2972904   0.109  45.265  30.192
    1HEX    H2A72905   0.245  45.157  30.207
    1HEX    H2B72906   0.067  45.031  30.571
    1HEX    H2C72907  60.122  45.172  30.563
    1HEX    H2D72908   0.129  45.302  30.704
    1HEX    H2E72909   0.231  45.161  30.712
    1HEX    H2G72910  60.014  45.058  30.058
    1HEX    H2H72911  60.054  45.188  30.155
    1HEX    H2I72912  59.808  45.048  30.410
    1HEX    H2J72913  59.731  44.899  30.360
    1HEX    H2K72914  59.661  45.040  30.140
    1HEX    H2M72915  59.687  45.178  30.243
    1STR    S0072916   0.164  45.099  29.190
    1STR    S0E72917  60.017  45.899  29.950
    1STR    S0M72918  60.013  44.499  29.773
    1STR    S0X72919   0.776  44.984  30.115
    1STR    S1472920   0.031  45.129  30.844
    1STR    S1B72921  59.495  45.051  30.313
    1HEX    C0172922   0.241  44.932  44.429
    1HEX    C0272923   0.173  44.918  44.568
    1HEX    C0372924   0.024  44.944  44.573
    1HEX    O0472925  60.104  44.851  44.555
    1HEX    O0572926  60.152  45.068  44.617
    1HEX    C0672927  60.016  45.097  44.650
    1HEX    C0772928  59.989  45.092  44.804
    1HEX    C0872929  60.017  45.231  44.869
    1HEX    O0972930  59.955  45.357  44.837
    1HEX    C0A72931  59.974  45.460  44.929
    1HEX    O0B72932  60.000  45.442  45.048
    1HEX    C0C72933  59.968  45.604  44.873
    1HEX    C0D72934  59.930  45.716  44.976
    1HEX    C0F72935  59.841  45.042  44.824
    1HEX    O0G72936  59.839  44.899  44.839
    1HEX    C0H72937  59.786  44.814  44.750
    1HEX    O0I72938  59.709  44.845  44.659
    1HEX    C0J72939  59.833  44.669  44.770
    1HEX    C0K72940  59.724  44.572  44.822
    1HEX    C0N72941  60.082  44.985  44.876
    1HEX    O0O72942   0.056  45.021  44.913
    1HEX    C0P72943   0.089  45.097  45.032
    1HEX    C0Q72944   0.051  45.045  45.174
    1HEX    C0R72945   0.110  44.902  45.192
    1HEX    O0S72946   0.251  44.895  45.159
    1HEX    C0T72947   0.348  44.897  45.254
    1HEX    O0U72948   0.329  44.907  45.375
    1HEX    C0V72949   0.492  44.886  45.199
    1HEX    C0W72950   0.561  45.025  45.188
    1HEX    C0Y72951   0.119  45.139  45.278
    1HEX    O0Z72952   0.083  45.103  45.411
    1HEX    C1072953   0.139  45.171  45.512
    1HEX    O1172954   0.218  45.265  45.499
    1HEX    C1272955   0.093  45.123  45.650
    1HEX    C1372956   0.162  45.202  45.764
    1HEX    C1572957  60.056  45.063  45.197
    1HEX    O1672958  59.987  44.987  45.297
    1HEX    C1772959  59.870  44.926  45.261
    1HEX    O1872960  59.845  44.880  45.150
    1HEX    C1972961  59.763  44.927  45.371
    1HEX    C1A72962  59.635  45.006  45.331
    1HEX    H1D72963   0.331  44.872  44.429
    1HEX    H1E72964   0.272  45.035  44.413
    1HEX    H1F72965   0.221  44.985  44.640
    1HEX    H1G72966   0.188  44.817  44.605
    1HEX    H1H72967  59.950  45.030  44.596
    1HEX    H1I72968  59.992  45.196  44.610
    1HEX    H1J72969  60.122  45.252  44.848
    1HEX    H1K72970  60.005  45.218  44.976
    1HEX    H1M72971  59.895  45.604  44.792
    1HEX    H1N72972  60.064  45.626  44.827
    1HEX    H1O72973  59.890  45.669  45.066
    1HEX    H1P72974  59.849  45.778  44.938
    1HEX    H1R72975  59.774  45.076  44.744
    1HEX    H1S72976  59.799  45.083  44.916
    1HEX    H1T72977  59.920  44.669  44.835
    1HEX    H1U72978  59.870  44.634  44.673
    1HEX    H1V72979  59.694  44.504  44.742
    1HEX    H1W72980  59.635  44.629  44.848
    1HEX    H1Y72981  60.092  44.901  44.808
    1HEX    H1Z72982  60.035  44.932  44.958
    1HEX    H2072983   0.061  45.201  45.023
    1HEX    H2172984   0.198  45.102  45.027
    1HEX    H2272985   0.057  44.833  45.126
    1HEX    H2372986   0.092  44.866  45.293
    1HEX    H2472987   0.490  44.835  45.103
    1HEX    H2572988   0.549  44.823  45.267
    1HEX    H2672989   0.566  45.071  45.286
    1HEX    H2772990   0.498  45.089  45.127
    1HEX    H2972991   0.092  45.243  45.261
    1HEX    H2A72992   0.228  45.136  45.268
    1HEX    H2B72993   0.116  45.017  45.657
    1HEX    H2C72994  60.144  45.133  45.656
    1HEX    H2D72995   0.124  45.305  45.766
    1HEX    H2E72996   0.268  45.210  45.740
    1HEX    H2G72997  60.000  45.056  45.106
    1HEX    H2H72998  60.037  45.167  45.223
    1HEX    H2I72999  59.808  44.973  45.459
    1HEX    H2J73000  59.738  44.824  45.399
    1HEX    H2K73001  59.659  45.083  45.258
    1HEX    H2M73002  59.596  45.059  45.418
    1STR    S0073003   0.144  44.880  44.284
    1STR    S0E73004  60.064  45.830  45.033
    1STR    S0M73005  59.767  44.469  44.970
    1STR    S0X73006   0.730  45.028  45.113
    1STR    S1473007   0.150  45.129  45.931
    1STR    S1B73008  59.497  44.905  45.263
    1HEX    C0173009  15.238  60.004  59.438
    1HEX    C0273010  15.232  60.008  59.592
    1HEX    C0373011  15.088  60.003  59.635
    1HEX    O0473012  15.025  59.897  59.624
    1HEX    O0573013  15.039  60.120  59.678
    1HEX    C0673014  14.899  60.132  59.704
    1HEX    C0773015  14.859  60.110  59.853
    1HEX    C0873016  14.848   0.087  59.931
    1HEX    O0973017  14.822   0.218  59.875
    1HEX    C0A73018  14.837   0.324  59.965
    1HEX    O0B73019  14.851   0.308  60.086
    1HEX    C0C73020  14.841   0.468  59.907
    1HEX    C0D73021  14.865   0.577  60.019
    1HEX    C0F73022  14.723  60.031  59.854
    1HEX    O0G73023  14.746  59.889  59.840
    1HEX    C0H73024  14.712  59.819  59.730
    1HEX    O0I73025  14.635  59.861  59.643
    1HEX    C0J73026  14.783  59.683  59.714
    1HEX    C0K73027  14.796  59.590  59.839
    1HEX    C0N73028  14.960  60.013  59.928
    1HEX    O0O73029  15.095  60.052  59.955
    1HEX    C0P73030  15.139  60.132  60.067
    1HEX    C0Q73031  15.101  60.093   0.053
    1HEX    C0R73032  15.153  59.949   0.082
    1HEX    O0S73033  15.293  59.932   0.049
    1HEX    C0T73034  15.391  59.941   0.144
    1HEX    O0U73035  15.373  59.969   0.262
    1HEX    C0V73036  15.532  59.907   0.093
    1HEX    C0W73037  15.624  60.028   0.061
    1HEX    C0Y73038  15.174   0.032   0.147
    1HEX    O0Z73039  15.133   0.007   0.280
    1HEX    C1073040  15.195   0.066   0.381
    1HEX    O1173041  15.293   0.141   0.372
    1HEX    C1273042  15.127   0.037   0.514
    1HEX    C1373043  15.216   0.062   0.637
    1HEX    C1573044  14.947  60.116   0.079
    1HEX    O1673045  14.878  60.044   0.181
    1HEX    C1773046  14.757  59.987   0.152
    1HEX    O1873047  14.723  59.947   0.041
    1HEX    C1973048  14.658  59.986   0.269
    1HEX    C1A73049  14.528  60.065   0.237
    1HEX    H1D73050  15.324  59.948  59.403
    1HEX    H1E73051  15.150  59.954  59.397
    1HEX    H1F73052  15.281  60.097  59.634
    1HEX    H1G73053  15.282  59.922  59.636
    1HEX    H1H73054  14.845  60.063  59.638
    1HEX    H1I73055  14.867   0.071  59.670
    1HEX    H1J73056  14.947   0.105  59.968
    1HEX    H1K73057  14.784   0.075  60.018
    1HEX    H1M73058  14.748   0.487  59.854
    1HEX    H1N73059  14.922   0.472  59.834
    1HEX    H1O73060  14.953   0.552  60.078
    1HEX    H1P73061  14.782   0.575  60.090
    1HEX    H1R73062  14.653  60.070  59.778
    1HEX    H1S73063  14.671  60.045  59.948
    1HEX    H1T73064  14.882  59.706  59.677
    1HEX    H1U73065  14.734  59.629  59.633
    1HEX    H1V73066  14.700  59.543  59.862
    1HEX    H1W73067  14.825  59.647  59.927
    1HEX    H1Y73068  14.974  59.927  59.863
    1HEX    H1Z73069  14.914  59.962  60.013
    1HEX    H2073070  15.124   0.078  60.050
    1HEX    H2173071  15.248  60.125  60.059
    1HEX    H2273072  15.097  59.878   0.022
    1HEX    H2373073  15.134  59.922   0.186
    1HEX    H2473074  15.525  59.839   0.008
    1HEX    H2573075  15.577  59.849   0.174
    1HEX    H2673076  15.592  60.117   0.116
    1HEX    H2773077  15.617  60.053  60.115
    1HEX    H2973078  15.150   0.135   0.123
    1HEX    H2A73079  15.282   0.024   0.138
    1HEX    H2B73080  15.092  60.093   0.512
    1HEX    H2C73081  15.038   0.100   0.516
    1HEX    H2D73082  15.273   0.154   0.626
    1HEX    H2E73083  15.288  60.141   0.647
    1HEX    H2G73084  14.891  60.107  60.148
    1HEX    H2H73085  14.931   0.061   0.102
    1HEX    H2I73086  14.708  60.032   0.355
    1HEX    H2J73087  14.636  59.883   0.298
    1HEX    H2K73088  14.543  60.130   0.151
    1HEX    H2M73089  14.501  60.131   0.319
    1STR    S0073090  15.240   0.014  59.378
    1STR    S0E73091  14.885   0.752  59.962
    1STR    S0M73092  14.922  59.457  59.808
    1STR    S0X73093  15.800  59.993   0.104
    1STR    S1473094  15.110   0.076   0.785
    1STR    S1B73095  14.381  59.960   0.201
    1HEX    C0173096  15.300  60.073  14.321
    1HEX    C0273097  15.262  60.122  14.461
    1HEX    C0373098  15.120  60.082  14.498
    1HEX    O0473099  15.086  59.964  14.493
    1HEX    O0573100  15.045   0.026  14.537
    1HEX    C0673101  14.905   0.010  14.555
    1HEX    C0773102  14.864  60.154  14.703
    1HEX    C0873103  14.887   0.127  14.782
    1HEX    O0973104  14.837   0.260  14.753
    1HEX    C0A73105  14.861   0.356  14.851
    1HEX    O0B73106  14.886   0.328  14.968
    1HEX    C0C73107  14.863   0.505  14.807
    1HEX    C0D73108  14.921   0.599  14.919
    1HEX    C0F73109  14.715  60.104  14.705
    1HEX    O0G73110  14.707  59.961  14.694
    1HEX    C0H73111  14.674  59.896  14.580
    1HEX    O0I73112  14.628  59.951  14.480
    1HEX    C0J73113  14.702  59.745  14.583
    1HEX    C0K73114  14.663  59.676  14.716
    1HEX    C0N73115  14.948  60.039  14.774
    1HEX    O0O73116  15.082  60.063  14.825
    1HEX    C0P73117  15.119  60.139  14.942
    1HEX    C0Q73118  15.081  60.094  15.088
    1HEX    C0R73119  15.148  59.956  15.116
    1HEX    O0S73120  15.290  59.953  15.085
    1HEX    C0T73121  15.387  59.964  15.181
    1HEX    O0U73122  15.367  59.985  15.300
    1HEX    C0V73123  15.531  59.942  15.129
    1HEX    C0W73124  15.624  60.067  15.140
    1HEX    C0Y73125  15.142   0.038  15.185
    1HEX    O0Z73126  15.107   0.003  15.317
    1HEX    C1073127  15.164   0.066  15.420
    1HEX    O1173128  15.247   0.156  15.412
    1HEX    C1273129  15.113   0.014  15.553
    1HEX    C1373130  15.214   0.039  15.666
    1HEX    C1573131  14.925  60.104  15.101
    1HEX    O1673132  14.847  60.067  15.215
    1HEX    C1773133  14.730  60.000  15.190
    1HEX    O1873134  14.720  59.903  15.115
    1HEX    C1973135  14.602  60.061  15.251
    1HEX    C1A73136  14.510  60.121  15.140
    1HEX    H1D73137  15.408  60.079  14.308
    1HEX    H1E73138  15.274  59.968  14.311
    1HEX    H1F73139  15.274   0.070  14.472
    1HEX    H1G73140  15.326  60.075  14.536
    1HEX    H1H73141  14.870  60.086  14.494
    1HEX    H1I73142  14.856   0.097  14.512
    1HEX    H1J73143  14.993   0.145  14.772
    1HEX    H1K73144  14.863   0.105  14.885
    1HEX    H1M73145  14.762   0.534  14.779
    1HEX    H1N73146  14.925   0.513  14.717
    1HEX    H1O73147  15.026   0.576  14.936
    1HEX    H1P73148  14.871   0.576  15.013
    1HEX    H1R73149  14.655  60.153  14.626
    1HEX    H1S73150  14.666  60.132  14.798
    1HEX    H1T73151  14.807  59.729  14.561
    1HEX    H1U73152  14.646  59.700  14.500
    1HEX    H1V73153  14.564  59.711  14.744
    1HEX    H1W73154  14.731  59.708  14.796
    1HEX    H1Y73155  14.963  59.963  14.698
    1HEX    H1Z73156  14.890  59.978  14.841
    1HEX    H2073157  15.097   0.084  14.932
    1HEX    H2173158  15.228  60.139  14.936
    1HEX    H2273159  15.100  59.880  15.056
    1HEX    H2373160  15.131  59.926  15.220
    1HEX    H2473161  15.527  59.905  15.026
    1HEX    H2573162  15.573  59.862  15.189
    1HEX    H2673163  15.622  60.105  15.242
    1HEX    H2773164  15.585  60.148  15.077
    1HEX    H2973165  15.107   0.139  15.164
    1HEX    H2A73166  15.251   0.042  15.176
    1HEX    H2B73167  15.096  60.067  15.542
    1HEX    H2C73168  15.017   0.061  15.575
    1HEX    H2D73169  15.222   0.146  15.686
    1HEX    H2E73170  15.313   0.006  15.635
    1HEX    H2G73171  14.881  60.053  15.018
    1HEX    H2H73172  14.898   0.049  15.087
    1HEX    H2I73173  14.628  60.135  15.327
    1HEX    H2J73174  14.551  59.980  15.303
    1HEX    H2K73175  14.527  60.067  15.047
    1HEX    H2M73176  14.537   0.064  15.120
    1STR    S0073177  15.222   0.005  14.184
    1STR    S0E73178  14.901   0.782  14.898
    1STR    S0M73179  14.656  59.492  14.712
    1STR    S0X73180  15.799  60.033  15.090
    1STR    S1473181  15.167  60.110  15.819
    1STR    S1B73182  14.328  60.115  15.170
    1HEX    C0173183  15.263  59.963  29.356
    1HEX    C0273184  15.242  60.008  29.502
    1HEX    C0373185  15.097  59.993  29.544
    1HEX    O0473186  15.043  59.882  29.544
    1HEX    O0573187  15.040  60.108  29.586
    1HEX    C0673188  14.904  60.108  29.626
    1HEX    C0773189  14.883  60.102  29.780
    1HEX    C0873190  14.897   0.086  29.840
    1HEX    O0973191  14.827   0.207  29.805
    1HEX    C0A73192  14.828   0.307  29.902
    1HEX    O0B73193  14.826   0.285  30.023
    1HEX    C0C73194  14.842   0.452  29.850
    1HEX    C0D73195  14.831   0.564  29.960
    1HEX    C0F73196  14.745  60.032  29.807
    1HEX    O0G73197  14.761  59.889  29.823
    1HEX    C0H73198  14.732  59.800  29.726
    1HEX    O0I73199  14.666  59.826  29.626
    1HEX    C0J73200  14.795  59.660  29.744
    1HEX    C0K73201  14.798  59.598  29.887
    1HEX    C0N73202  14.991  60.011  29.852
    1HEX    O0O73203  15.119  60.065  29.887
    1HEX    C0P73204  15.144  60.145  30.005
    1HEX    C0Q73205  15.103  60.098  30.148
    1HEX    C0R73206  15.159  59.955  30.172
    1HEX    O0S73207  15.300  59.945  30.140
    1HEX    C0T73208  15.397  59.952  30.235
    1HEX    O0U73209  15.377  59.971  30.355
    1HEX    C0V73210  15.539  59.927  30.182
    1HEX    C0W73211  15.603  60.046  30.105
    1HEX    C0Y73212  15.167   0.035  30.251
    1HEX    O0Z73213  15.126   0.002  30.383
    1HEX    C1073214  15.172   0.073  30.486
    1HEX    O1173215  15.253   0.165  30.478
    1HEX    C1273216  15.109   0.031  30.619
    1HEX    C1373217  15.207   0.036  30.738
    1HEX    C1573218  14.947  60.114  30.165
    1HEX    O1673219  14.879  60.069  30.282
    1HEX    C1773220  14.759  60.008  30.264
    1HEX    O1873221  14.734  59.928  30.174
    1HEX    C1973222  14.649  60.056  30.357
    1HEX    C1A73223  14.555  60.155  30.283
    1HEX    H1D73224  15.350  59.899  29.348
    1HEX    H1E73225  15.179  59.903  29.320
    1HEX    H1F73226  15.275  60.110  29.519
    1HEX    H1G73227  15.300  59.945  29.569
    1HEX    H1H73228  14.851  60.027  29.575
    1HEX    H1I73229  14.857   0.038  29.586
    1HEX    H1J73230  15.000   0.115  29.819
    1HEX    H1K73231  14.887   0.074  29.946
    1HEX    H1M73232  14.768   0.469  29.772
    1HEX    H1N73233  14.939   0.458  29.801
    1HEX    H1O73234  14.837   0.522  30.061
    1HEX    H1P73235  14.733   0.610  29.955
    1HEX    H1R73236  14.671  60.055  29.729
    1HEX    H1S73237  14.700  60.070  29.899
    1HEX    H1T73238  14.897  59.666  29.704
    1HEX    H1U73239  14.742  59.593  29.676
    1HEX    H1V73240  14.699  59.600  29.932
    1HEX    H1W73241  14.863  59.657  29.952
    1HEX    H1Y73242  15.011  59.928  29.785
    1HEX    H1Z73243  14.952  59.954  29.936
    1HEX    H2073244  15.112   0.088  29.991
    1HEX    H2173245  15.253  60.154  30.004
    1HEX    H2273246  15.106  59.884  30.109
    1HEX    H2373247  15.139  59.923  30.275
    1HEX    H2473248  15.535  59.839  30.119
    1HEX    H2573249  15.601  59.900  30.268
    1HEX    H2673250  15.529  60.126  30.096
    1HEX    H2773251  15.628  60.015  30.004
    1HEX    H2973252  15.139   0.138  30.230
    1HEX    H2A73253  15.276   0.033  30.245
    1HEX    H2B73254  15.067  60.091  30.608
    1HEX    H2C73255  15.025   0.098  30.634
    1HEX    H2D73256  15.295   0.095  30.712
    1HEX    H2E73257  15.244  60.096  30.762
    1HEX    H2G73258  14.894  60.075  30.080
    1HEX    H2H73259  14.925   0.061  30.162
    1HEX    H2I73260  14.691  60.099  30.448
    1HEX    H2J73261  14.592  59.968  30.387
    1HEX    H2K73262  14.537  60.117  30.182
    1HEX    H2M73263  14.602   0.092  30.271
    1STR    S0073264  15.288  60.106  29.247
    1STR    S0E73265  14.960   0.696  29.955
    1STR    S0M73266  14.858  59.423  29.883
    1STR    S0X73267  15.754  60.118  30.182
    1STR    S1473268  15.135   0.112  30.887
    1STR    S1B73269  14.393   0.015  30.366
    1HEX    C0173270  15.267  60.091  44.377
    1HEX    C0273271  15.229  60.041  44.519
    1HEX    C0373272  15.079  60.037  44.546
    1HEX    O0473273  15.013  59.937  44.519
    1HEX    O0573274  15.033  60.149  44.606
    1HEX    C0673275  14.895   0.000  44.640
    1HEX    C0773276  14.871  60.148  44.793
    1HEX    C0873277  14.900   0.126  44.862
    1HEX    O0973278  14.835   0.252  44.838
    1HEX    C0A73279  14.847   0.349  44.938
    1HEX    O0B73280  14.866   0.321  45.057
    1HEX    C0C73281  14.841   0.498  44.896
    1HEX    C0D73282  14.884   0.595  45.012
    1HEX    C0F73283  14.725  60.095  44.815
    1HEX    O0G73284  14.723  59.951  44.807
    1HEX    C0H73285  14.680  59.884  44.699
    1HEX    O0I73286  14.611  59.932  44.610
    1HEX    C0J73287  14.734  59.740  44.688
    1HEX    C0K73288  14.745  59.655  44.819
    1HEX    C0N73289  14.966  60.037  44.855
    1HEX    O0O73290  15.101  60.069  44.892
    1HEX    C0P73291  15.138  60.144  45.010
    1HEX    C0Q73292  15.098  60.098  45.155
    1HEX    C0R73293  15.158  59.956  45.180
    1HEX    O0S73294  15.299  59.946  45.147
    1HEX    C0T73295  15.397  59.957  45.241
    1HEX    O0U73296  15.379  59.984  45.359
    1HEX    C0V73297  15.539  59.926  45.190
    1HEX    C0W73298  15.632  60.050  45.168
    1HEX    C0Y73299  15.165   0.037  45.252
    1HEX    O0Z73300  15.122   0.008  45.384
    1HEX    C1073301  15.175   0.072  45.487
    1HEX    O1173302  15.266   0.155  45.482
    1HEX    C1273303  15.105   0.034  45.616
    1HEX    C1373304  15.181   0.079  45.742
    1HEX    C1573305  14.943  60.114  45.176
    1HEX    O1673306  14.871  60.050  45.283
    1HEX    C1773307  14.762  59.975  45.249
    1HEX    O1873308  14.757  59.901  45.151
    1HEX    C1973309  14.637  59.998  45.336
    1HEX    C1A73310  14.530  60.078  45.256
    1HEX    H1D73311  15.215  59.998  44.355
    1HEX    H1E73312  15.221   0.029  44.387
    1HEX    H1F73313  15.273  60.107  44.594
    1HEX    H1G73314  15.269  59.942  44.540
    1HEX    H1H73315  14.837  60.086  44.585
    1HEX    H1I73316  14.859   0.096  44.602
    1HEX    H1J73317  15.004   0.149  44.837
    1HEX    H1K73318  14.895   0.107  44.968
    1HEX    H1M73319  14.740   0.520  44.861
    1HEX    H1N73320  14.908   0.511  44.811
    1HEX    H1O73321  14.986   0.573  45.043
    1HEX    H1P73322  14.822   0.575  45.100
    1HEX    H1R73323  14.655  60.141  44.744
    1HEX    H1S73324  14.689  60.122  44.914
    1HEX    H1T73325  14.833  59.751  44.645
    1HEX    H1U73326  14.676  59.686  44.614
    1HEX    H1V73327  14.654  59.596  44.832
    1HEX    H1W73328  14.752  59.718  44.908
    1HEX    H1Y73329  14.976  59.959  44.779
    1HEX    H1Z73330  14.920  59.976  44.933
    1HEX    H2073331  15.116   0.089  45.000
    1HEX    H2173332  15.247  60.143  45.006
    1HEX    H2273333  15.104  59.883  45.119
    1HEX    H2373334  15.140  59.926  45.284
    1HEX    H2473335  15.533  59.865  45.100
    1HEX    H2573336  15.584  59.863  45.266
    1HEX    H2673337  15.619  60.123  45.248
    1HEX    H2773338  15.606  60.100  45.075
    1HEX    H2973339  15.138   0.141  45.230
    1HEX    H2A73340  15.274   0.034  45.246
    1HEX    H2B73341  15.093  60.086  45.616
    1HEX    H2C73342  15.006   0.079  45.613
    1HEX    H2D73343  15.209   0.184  45.738
    1HEX    H2E73344  15.275   0.023  45.751
    1HEX    H2G73345  14.887  60.095  45.086
    1HEX    H2H73346  14.922   0.060  45.191
    1HEX    H2I73347  14.664  60.048  45.429
    1HEX    H2J73348  14.598  59.900  45.362
    1HEX    H2K73349  14.542  60.059  45.149
    1HEX    H2M73350  14.547   0.025  45.269
    1STR    S0073351  15.197  60.075  44.208
    1STR    S0E73352  14.871   0.778  44.981
    1STR    S0M73353  14.889  59.541  44.810
    1STR    S0X73354  15.810  60.000  45.161
    1STR    S1473355  15.076   0.048  45.887
    1STR    S1B73356  14.355  60.042  45.298
    1HEX    C0173357  15.284  14.944  59.416
    1HEX    C0273358  15.238  14.916  59.561
    1HEX    C0373359  15.088  14.918  59.583
    1HEX    O0473360  15.018  14.821  59.551
    1HEX    O0573361  15.046  15.029  59.646
    1HEX    C0673362  14.907  15.047  59.672
    1HEX    C0773363  14.872  15.030  59.823
    1HEX    C0873364  14.897  15.165  59.897
    1HEX    O0973365  14.838  15.292  59.865
    1HEX    C0A73366  14.846  15.389  59.964
    1HEX    O0B73367  14.859  15.362  60.084
    1HEX    C0C73368  14.844  15.537  59.918
    1HEX    C0D73369  14.892  15.632  60.033
    1HEX    C0F73370  14.723  14.983  59.831
    1HEX    O0G73371  14.717  14.841  59.808
    1HEX    C0H73372  14.671  14.788  59.694
    1HEX    O0I73373  14.607  14.848  59.608
    1HEX    C0J73374  14.710  14.640  59.674
    1HEX    C0K73375  14.699  14.554  59.802
    1HEX    C0N73376  14.958  14.917  59.893
    1HEX    O0O73377  15.090  14.944  59.948
    1HEX    C0P73378  15.120  15.021  60.068
    1HEX    C0Q73379  15.077  14.974   0.052
    1HEX    C0R73380  15.135  14.832   0.078
    1HEX    O0S73381  15.275  14.820   0.040
    1HEX    C0T73382  15.377  14.828   0.130
    1HEX    O0U73383  15.364  14.850   0.250
    1HEX    C0V73384  15.516  14.803   0.068
    1HEX    C0W73385  15.629  14.887   0.135
    1HEX    C0Y73386  15.140  15.074   0.154
    1HEX    O0Z73387  15.107  15.048   0.290
    1HEX    C1073388  15.164  15.124   0.386
    1HEX    O1173389  15.247  15.212   0.366
    1HEX    C1273390  15.115  15.092   0.528
    1HEX    C1373391  15.229  15.050   0.624
    1HEX    C1573392  14.921  14.989   0.061
    1HEX    O1673393  14.843  14.945   0.173
    1HEX    C1773394  14.722  14.887   0.145
    1HEX    O1873395  14.703  14.808   0.053
    1HEX    C1973396  14.605  14.936   0.230
    1HEX    C1A73397  14.507  15.023   0.145
    1HEX    H1D73398  15.238  14.848  59.393
    1HEX    H1E73399  15.252  15.047  59.420
    1HEX    H1F73400  15.283  14.989  59.630
    1HEX    H1G73401  15.274  14.819  59.596
    1HEX    H1H73402  14.848  14.980  59.610
    1HEX    H1I73403  14.879  15.147  59.638
    1HEX    H1J73404  15.003  15.186  59.884
    1HEX    H1K73405  14.878  15.143  60.002
    1HEX    H1M73406  14.744  15.562  59.886
    1HEX    H1N73407  14.910  15.548  59.832
    1HEX    H1O73408  14.999  15.619  60.053
    1HEX    H1P73409  14.842  15.602  60.125
    1HEX    H1R73410  14.659  15.039  59.762
    1HEX    H1S73411  14.682  15.002  59.930
    1HEX    H1T73412  14.813  14.641  59.639
    1HEX    H1U73413  14.650  14.598  59.594
    1HEX    H1V73414  14.595  14.546  59.834
    1HEX    H1W73415  14.753  14.601  59.884
    1HEX    H1Y73416  14.977  14.842  59.816
    1HEX    H1Z73417  14.900  14.856  59.961
    1HEX    H2073418  15.096  15.126  60.057
    1HEX    H2173419  15.229  15.022  60.067
    1HEX    H2273420  15.080  14.759   0.019
    1HEX    H2373421  15.121  14.803   0.182
    1HEX    H2473422  15.510  14.823  60.121
    1HEX    H2573423  15.538  14.697   0.078
    1HEX    H2673424  15.591  14.984   0.166
    1HEX    H2773425  15.660  14.837   0.227
    1HEX    H2973426  15.110  15.176   0.131
    1HEX    H2A73427  15.249  15.073   0.144
    1HEX    H2B73428  15.039  15.014   0.524
    1HEX    H2C73429  15.065  15.181   0.565
    1HEX    H2D73430  15.325  15.070   0.575
    1HEX    H2E73431  15.227  14.942   0.640
    1HEX    H2G73432  14.876  14.948  60.133
    1HEX    H2H73433  14.898  15.095   0.054
    1HEX    H2I73434  14.642  14.991   0.317
    1HEX    H2J73435  14.554  14.847   0.268
    1HEX    H2K73436  14.531  15.014   0.039
    1HEX    H2M73437  14.521  15.128   0.169
    1STR    S0073438  15.185  14.948  59.260
    1STR    S0E73439  14.856  15.813  60.023
    1STR    S0M73440  14.764  14.384  59.776
    1STR    S0X73441  15.779  14.917   0.031
    1STR    S1473442  15.239  15.136   0.786
    1STR    S1B73443  14.328  14.984   0.161
    1HEX    C0173444  15.280  14.885  14.302
    1HEX    C0273445  15.240  14.938  14.441
    1HEX    C0373446  15.099  14.900  14.483
    1HEX    O0473447  15.059  14.784  14.476
    1HEX    O0573448  15.029  15.005  14.530
    1HEX    C0673449  14.895  14.988  14.573
    1HEX    C0773450  14.883  14.981  14.728
    1HEX    C0873451  14.898  15.125  14.789
    1HEX    O0973452  14.832  15.248  14.751
    1HEX    C0A73453  14.844  15.352  14.842
    1HEX    O0B73454  14.854  15.336  14.964
    1HEX    C0C73455  14.854  15.496  14.785
    1HEX    C0D73456  14.869  15.606  14.896
    1HEX    C0F73457  14.747  14.908  14.761
    1HEX    O0G73458  14.767  14.765  14.776
    1HEX    C0H73459  14.735  14.675  14.681
    1HEX    O0I73460  14.662  14.700  14.585
    1HEX    C0J73461  14.803  14.537  14.696
    1HEX    C0K73462  14.812  14.474  14.838
    1HEX    C0N73463  14.996  14.890  14.792
    1HEX    O0O73464  15.123  14.946  14.827
    1HEX    C0P73465  15.148  15.021  14.948
    1HEX    C0Q73466  15.104  14.970  15.090
    1HEX    C0R73467  15.160  14.827  15.113
    1HEX    O0S73468  15.301  14.817  15.086
    1HEX    C0T73469  15.394  14.821  15.185
    1HEX    O0U73470  15.369  14.841  15.304
    1HEX    C0V73471  15.537  14.792  15.139
    1HEX    C0W73472  15.619  14.917  15.099
    1HEX    C0Y73473  15.168  15.067  15.193
    1HEX    O0Z73474  15.128  15.035  15.325
    1HEX    C1073475  15.185  15.099  15.428
    1HEX    O1173476  15.275  15.182  15.418
    1HEX    C1273477  15.123  15.060  15.562
    1HEX    C1373478  15.213  15.090  15.683
    1HEX    C1573479  14.949  14.983  15.108
    1HEX    O1673480  14.884  14.931  15.224
    1HEX    C1773481  14.762  14.873  15.210
    1HEX    O1873482  14.723  14.814  15.109
    1HEX    C1973483  14.668  14.895  15.328
    1HEX    C1A73484  14.546  14.982  15.287
    1HEX    H1D73485  15.292  14.777  14.306
    1HEX    H1E73486  15.375  14.929  14.272
    1HEX    H1F73487  15.249  15.046  14.446
    1HEX    H1G73488  15.307  14.898  14.517
    1HEX    H1H73489  14.850  14.901  14.525
    1HEX    H1I73490  14.837  15.073  14.536
    1HEX    H1J73491  15.001  15.153  14.770
    1HEX    H1K73492  14.884  15.114  14.895
    1HEX    H1M73493  14.767  15.516  14.722
    1HEX    H1N73494  14.941  15.497  14.720
    1HEX    H1O73495  14.934  15.572  14.977
    1HEX    H1P73496  14.772  15.624  14.943
    1HEX    H1R73497  14.670  14.930  14.687
    1HEX    H1S73498  14.706  14.944  14.855
    1HEX    H1T73499  14.903  14.548  14.654
    1HEX    H1U73500  14.750  14.469  14.629
    1HEX    H1V73501  14.714  14.475  14.887
    1HEX    H1W73502  14.878  14.533  14.902
    1HEX    H1Y73503  15.017  14.811  14.720
    1HEX    H1Z73504  14.963  14.829  14.876
    1HEX    H2073505  15.117  15.125  14.937
    1HEX    H2173506  15.256  15.029  14.949
    1HEX    H2273507  15.109  14.757  15.048
    1HEX    H2373508  15.137  14.794  15.215
    1HEX    H2473509  15.535  14.719  15.058
    1HEX    H2573510  15.585  14.742  15.223
    1HEX    H2673511  15.568  15.008  15.130
    1HEX    H2773512  15.628  14.923  14.990
    1HEX    H2973513  15.139  15.171  15.173
    1HEX    H2A73514  15.277  15.065  15.186
    1HEX    H2B73515  15.095  14.955  15.559
    1HEX    H2C73516  15.030  15.118  15.568
    1HEX    H2D73517  15.276  15.177  15.664
    1HEX    H2E73518  15.282  15.007  15.701
    1HEX    H2G73519  14.897  14.945  15.022
    1HEX    H2H73520  14.923  15.089  15.108
    1HEX    H2I73521  14.723  14.942  15.410
    1HEX    H2J73522  14.636  14.797  15.363
    1HEX    H2K73523  14.550  15.005  15.180
    1HEX    H2M73524  14.546  15.079  15.337
    1STR    S0073525  15.159  14.921  14.170
    1STR    S0E73526  14.936  15.768  14.839
    1STR    S0M73527  14.873  14.299  14.831
    1STR    S0X73528  15.787  14.919  15.175
    1STR    S1473529  15.114  15.128  15.832
    1STR    S1B73530  14.385  14.901  15.317
    1HEX    C0173531  15.258  14.904  29.328
    1HEX    C0273532  15.249  14.957  29.472
    1HEX    C0373533  15.111  14.933  29.530
    1HEX    O0473534  15.063  14.820  29.532
    1HEX    O0573535  15.051  15.046  29.574
    1HEX    C0673536  14.911  15.045  29.600
    1HEX    C0773537  14.875  15.034  29.750
    1HEX    C0873538  14.902  15.171  29.822
    1HEX    O0973539  14.844  15.301  29.796
    1HEX    C0A73540  14.861  15.397  29.897
    1HEX    O0B73541  14.881  15.368  30.015
    1HEX    C0C73542  14.861  15.546  29.856
    1HEX    C0D73543  14.922  15.639  29.968
    1HEX    C0F73544  14.726  14.984  29.760
    1HEX    O0G73545  14.721  14.840  29.752
    1HEX    C0H73546  14.696  14.775  29.637
    1HEX    O0I73547  14.644  14.827  29.538
    1HEX    C0J73548  14.746  14.630  29.630
    1HEX    C0K73549  14.774  14.553  29.763
    1HEX    C0N73550  14.961  14.921  29.822
    1HEX    O0O73551  15.096  14.947  29.861
    1HEX    C0P73552  15.134  15.025  29.977
    1HEX    C0Q73553  15.094  14.981  30.121
    1HEX    C0R73554  15.154  14.840  30.148
    1HEX    O0S73555  15.296  14.831  30.115
    1HEX    C0T73556  15.395  14.844  30.209
    1HEX    O0U73557  15.376  14.866  30.329
    1HEX    C0V73558  15.538  14.822  30.155
    1HEX    C0W73559  15.629  14.949  30.156
    1HEX    C0Y73560  15.160  15.081  30.218
    1HEX    O0Z73561  15.114  15.049  30.347
    1HEX    C1073562  15.167  15.103  30.454
    1HEX    O1173563  15.258  15.187  30.456
    1HEX    C1273564  15.100  15.050  30.579
    1HEX    C1373565  15.172  15.092  30.707
    1HEX    C1573566  14.938  15.001  30.141
    1HEX    O1673567  14.860  14.937  30.243
    1HEX    C1773568  14.748  14.870  30.202
    1HEX    O1873569  14.745  14.793  30.106
    1HEX    C1973570  14.617  14.909  30.273
    1HEX    C1A73571  14.520  14.981  30.174
    1HEX    H1D73572  15.358  14.868  29.306
    1HEX    H1E73573  15.193  14.817  29.316
    1HEX    H1F73574  15.276  15.062  29.478
    1HEX    H1G73575  15.318  14.902  29.536
    1HEX    H1H73576  14.865  14.966  29.541
    1HEX    H1I73577  14.870  15.137  29.558
    1HEX    H1J73578  15.007  15.191  29.803
    1HEX    H1K73579  14.890  15.152  29.928
    1HEX    H1M73580  14.758  15.575  29.832
    1HEX    H1N73581  14.918  15.556  29.764
    1HEX    H1O73582  15.027  15.613  29.982
    1HEX    H1P73583  14.874  15.616  30.063
    1HEX    H1R73584  14.663  15.031  29.684
    1HEX    H1S73585  14.682  15.013  29.855
    1HEX    H1T73586  14.839  14.636  29.574
    1HEX    H1U73587  14.678  14.573  29.568
    1HEX    H1V73588  14.680  14.512  29.802
    1HEX    H1W73589  14.815  14.617  29.841
    1HEX    H1Y73590  14.969  14.839  29.751
    1HEX    H1Z73591  14.907  14.867  29.899
    1HEX    H2073592  15.114  15.130  29.964
    1HEX    H2173593  15.243  15.022  29.971
    1HEX    H2273594  15.101  14.766  30.088
    1HEX    H2373595  15.137  14.811  30.252
    1HEX    H2473596  15.533  14.778  30.056
    1HEX    H2573597  15.583  14.747  30.220
    1HEX    H2673598  15.624  14.999  30.253
    1HEX    H2773599  15.593  15.021  30.083
    1HEX    H2973600  15.134  15.185  30.196
    1HEX    H2A73601  15.269  15.077  30.214
    1HEX    H2B73602  15.097  14.941  30.570
    1HEX    H2C73603  14.997  15.086  30.579
    1HEX    H2D73604  15.171  15.201  30.715
    1HEX    H2E73605  15.277  15.063  30.704
    1HEX    H2G73606  14.883  14.988  30.050
    1HEX    H2H73607  14.920  15.107  30.160
    1HEX    H2I73608  14.638  14.971  30.360
    1HEX    H2J73609  14.572  14.817  30.310
    1HEX    H2K73610  14.548  14.954  30.072
    1HEX    H2M73611  14.533  15.089  30.180
    1STR    S0073612  15.210  15.025  29.201
    1STR    S0E73613  14.909  15.823  29.946
    1STR    S0M73614  14.889  14.413  29.728
    1STR    S0X73615  15.807  14.911  30.118
    1STR    S1473616  15.090  15.014  30.849
    1STR    S1B73617  14.340  14.944  30.191
    1HEX    C0173618  15.301  14.891  44.436
    1HEX    C0273619  15.237  14.883  44.576
    1HEX    C0373620  15.085  14.881  44.577
    1HEX    O0473621  15.023  14.778  44.554
    1HEX    O0573622  15.032  14.999  44.618
    1HEX    C0673623  14.894  15.006  44.652
    1HEX    C0773624  14.873  15.002  44.806
    1HEX    C0873625  14.900  15.144  44.867
    1HEX    O0973626  14.831  15.267  44.838
    1HEX    C0A73627  14.840  15.367  44.935
    1HEX    O0B73628  14.854  15.345  45.055
    1HEX    C0C73629  14.840  15.512  44.882
    1HEX    C0D73630  14.813  15.624  44.989
    1HEX    C0F73631  14.727  14.949  44.833
    1HEX    O0G73632  14.727  14.808  44.859
    1HEX    C0H73633  14.686  14.715  44.770
    1HEX    O0I73634  14.619  14.739  44.670
    1HEX    C0J73635  14.735  14.573  44.803
    1HEX    C0K73636  14.631  14.483  44.876
    1HEX    C0N73637  14.973  14.900  44.876
    1HEX    O0O73638  15.106  14.943  44.912
    1HEX    C0P73639  15.138  15.022  45.030
    1HEX    C0Q73640  15.098  14.976  45.175
    1HEX    C0R73641  15.157  14.834  45.198
    1HEX    O0S73642  15.300  14.827  45.171
    1HEX    C0T73643  15.393  14.832  45.271
    1HEX    O0U73644  15.367  14.847  45.390
    1HEX    C0V73645  15.539  14.809  45.226
    1HEX    C0W73646  15.600  14.916  45.132
    1HEX    C0Y73647  15.162  15.073  45.278
    1HEX    O0Z73648  15.120  15.040  45.410
    1HEX    C1073649  15.169  15.109  45.515
    1HEX    O1173650  15.252  15.199  45.507
    1HEX    C1273651  15.106  15.066  45.648
    1HEX    C1373652  15.205  15.067  45.767
    1HEX    C1573653  14.943  14.994  45.192
    1HEX    O1673654  14.872  14.941  45.305
    1HEX    C1773655  14.760  14.869  45.280
    1HEX    O1873656  14.748  14.787  45.189
    1HEX    C1973657  14.640  14.905  45.367
    1HEX    C1A73658  14.534  14.983  45.285
    1HEX    H1D73659  15.277  14.784  44.431
    1HEX    H1E73660  15.244  14.980  44.415
    1HEX    H1F73661  15.269  14.967  44.636
    1HEX    H1G73662  15.269  14.794  44.631
    1HEX    H1H73663  14.838  14.927  44.602
    1HEX    H1I73664  14.854  15.098  44.610
    1HEX    H1J73665  15.003  15.168  44.841
    1HEX    H1K73666  14.895  15.130  44.974
    1HEX    H1M73667  14.765  15.519  44.803
    1HEX    H1N73668  14.936  15.529  44.834
    1HEX    H1O73669  14.790  15.578  45.086
    1HEX    H1P73670  14.724  15.681  44.964
    1HEX    H1R73671  14.659  14.975  44.751
    1HEX    H1S73672  14.684  14.998  44.921
    1HEX    H1T73673  14.827  14.581  44.860
    1HEX    H1U73674  14.762  14.525  44.708
    1HEX    H1V73675  14.586  14.413  44.805
    1HEX    H1W73676  14.550  14.545  44.912
    1HEX    H1Y73677  14.985  14.817  44.806
    1HEX    H1Z73678  14.930  14.843  44.958
    1HEX    H2073679  15.111  15.126  45.017
    1HEX    H2173680  15.247  15.025  45.027
    1HEX    H2273681  15.108  14.762  45.131
    1HEX    H2373682  15.135  14.799  45.299
    1HEX    H2473683  15.541  14.712  45.176
    1HEX    H2573684  15.600  14.797  45.315
    1HEX    H2673685  15.523  14.990  45.109
    1HEX    H2773686  15.628  14.871  45.037
    1HEX    H2973687  15.135  15.176  45.257
    1HEX    H2A73688  15.271  15.070  45.272
    1HEX    H2B73689  15.066  14.966  45.635
    1HEX    H2C73690  15.022  15.132  45.666
    1HEX    H2D73691  15.301  15.109  45.735
    1HEX    H2E73692  15.227  14.965  45.801
    1HEX    H2G73693  14.887  14.965  45.105
    1HEX    H2H73694  14.922  15.101  45.197
    1HEX    H2I73695  14.672  14.961  45.455
    1HEX    H2J73696  14.598  14.812  45.403
    1HEX    H2K73697  14.529  14.945  45.183
    1HEX    H2M73698  14.561  15.089  45.277
    1STR    S0073699  15.240  14.845  44.270
    1STR    S0E73700  14.950  15.743  45.022
    1STR    S0M73701  14.693  14.386  45.021
    1STR    S0X73702  15.747  15.010  45.195
    1STR    S1473703  15.152  15.166  45.912
    1STR    S1B73704  14.366  14.973  45.356
    1HEX    C0173705  15.287  29.938  59.492
    1HEX    C0273706  15.226  29.888  59.623
    1HEX    C0373707  15.076  29.909  59.626
    1HEX    O0473708  14.999  29.817  59.601
    1HEX    O0573709  15.042  30.032  59.669
    1HEX    C0673710  14.906  30.061  59.697
    1HEX    C0773711  14.868  30.035  59.846
    1HEX    C0873712  14.851  30.171  59.925
    1HEX    O0973713  14.829  30.305  59.872
    1HEX    C0A73714  14.843  30.409  59.965
    1HEX    O0B73715  14.859  30.389  60.086
    1HEX    C0C73716  14.841  30.555  59.913
    1HEX    C0D73717  14.867  30.661  60.028
    1HEX    C0F73718  14.735  29.948  59.848
    1HEX    O0G73719  14.767  29.807  59.845
    1HEX    C0H73720  14.724  29.722  59.750
    1HEX    O0I73721  14.632  29.747  59.672
    1HEX    C0J73722  14.804  29.590  59.741
    1HEX    C0K73723  14.816  29.503  59.869
    1HEX    C0N73724  14.974  29.943  59.921
    1HEX    O0O73725  15.107  29.988  59.946
    1HEX    C0P73726  15.147  30.063  60.062
    1HEX    C0Q73727  15.105  30.018   0.046
    1HEX    C0R73728  15.158  29.874   0.071
    1HEX    O0S73729  15.298  29.857   0.038
    1HEX    C0T73730  15.395  29.865   0.133
    1HEX    O0U73731  15.377  29.893   0.251
    1HEX    C0V73732  15.536  29.830   0.082
    1HEX    C0W73733  15.630  29.951   0.053
    1HEX    C0Y73734  15.176  30.115   0.143
    1HEX    O0Z73735  15.134  30.087   0.275
    1HEX    C1073736  15.188  30.153   0.377
    1HEX    O1173737  15.279  30.235   0.369
    1HEX    C1273738  15.118  30.120   0.507
    1HEX    C1373739  15.204  30.149   0.631
    1HEX    C1573740  14.950  30.040   0.070
    1HEX    O1673741  14.878  29.963   0.168
    1HEX    C1773742  14.759  29.905   0.131
    1HEX    O1873743  14.732  29.866   0.018
    1HEX    C1973744  14.655  29.897   0.243
    1HEX    C1A73745  14.523  29.973   0.210
    1HEX    H1D73746  15.394  29.920  59.491
    1HEX    H1E73747  15.271  30.045  59.482
    1HEX    H1F73748  15.269  29.940  59.708
    1HEX    H1G73749  15.246  29.782  59.636
    1HEX    H1H73750  14.843  30.002  59.629
    1HEX    H1I73751  14.885  30.164  59.668
    1HEX    H1J73752  14.947  30.187  59.970
    1HEX    H1K73753  14.781  30.158  60.008
    1HEX    H1M73754  14.745  30.573  59.865
    1HEX    H1N73755  14.917  30.564  59.836
    1HEX    H1O73756  14.962  30.638  60.077
    1HEX    H1P73757  14.791  30.649  60.105
    1HEX    H1R73758  14.666  29.977  59.769
    1HEX    H1S73759  14.680  29.965  59.941
    1HEX    H1T73760  14.904  29.618  59.707
    1HEX    H1U73761  14.762  29.531  59.659
    1HEX    H1V73762  14.724  29.446  59.885
    1HEX    H1W73763  14.829  29.565  59.958
    1HEX    H1Y73764  14.992  29.857  59.857
    1HEX    H1Z73765  14.932  29.890  60.006
    1HEX    H2073766  15.129  30.170  60.048
    1HEX    H2173767  15.255  30.059  60.057
    1HEX    H2273768  15.101  29.803   0.009
    1HEX    H2373769  15.139  29.844   0.174
    1HEX    H2473770  15.529  29.764  60.156
    1HEX    H2573771  15.580  29.771   0.163
    1HEX    H2673772  15.606  30.036   0.118
    1HEX    H2773773  15.615  29.985  60.110
    1HEX    H2973774  15.152  30.219   0.121
    1HEX    H2A73775  15.284  30.108   0.136
    1HEX    H2B73776  15.090  30.015   0.505
    1HEX    H2C73777  15.026  30.179   0.509
    1HEX    H2D73778  15.255  30.245   0.625
    1HEX    H2E73779  15.283  30.073   0.640
    1HEX    H2G73780  14.896  30.035  60.138
    1HEX    H2H73781  14.933  30.144   0.097
    1HEX    H2I73782  14.700  29.941   0.332
    1HEX    H2J73783  14.634  29.792   0.267
    1HEX    H2K73784  14.541  30.051   0.137
    1HEX    H2M73785  14.485  30.024   0.299
    1STR    S0073786  15.216  29.856  59.347
    1STR    S0E73787  14.868  30.840  59.981
    1STR    S0M73788  14.959  29.384  59.859
    1STR    S0X73789  15.807  29.906   0.077
    1STR    S1473790  15.095  30.146   0.778
    1STR    S1B73791  14.384  29.870   0.146
    1HEX    C0173792  15.330  29.968  14.363
    1HEX    C0273793  15.255  30.056  14.465
    1HEX    C0373794  15.109  30.016  14.485
    1HEX    O0473795  15.069  29.902  14.462
    1HEX    O0573796  15.036  30.117  14.536
    1HEX    C0673797  14.897  30.101  14.557
    1HEX    C0773798  14.861  30.079  14.706
    1HEX    C0873799  14.882  30.211  14.786
    1HEX    O0973800  14.831  30.342  14.753
    1HEX    C0A73801  14.853  30.439  14.849
    1HEX    O0B73802  14.876  30.413  14.967
    1HEX    C0C73803  14.853  30.587  14.802
    1HEX    C0D73804  14.917  30.682  14.910
    1HEX    C0F73805  14.713  30.027  14.711
    1HEX    O0G73806  14.711  29.883  14.699
    1HEX    C0H73807  14.681  29.820  14.584
    1HEX    O0I73808  14.619  29.869  14.490
    1HEX    C0J73809  14.739  29.678  14.577
    1HEX    C0K73810  14.637  29.563  14.595
    1HEX    C0N73811  14.952  29.966  14.771
    1HEX    O0O73812  15.085  29.992  14.823
    1HEX    C0P73813  15.119  30.063  14.945
    1HEX    C0Q73814  15.081  30.013  15.089
    1HEX    C0R73815  15.148  29.875  15.115
    1HEX    O0S73816  15.290  29.872  15.084
    1HEX    C0T73817  15.386  29.880  15.181
    1HEX    O0U73818  15.365  29.902  15.300
    1HEX    C0V73819  15.530  29.854  15.131
    1HEX    C0W73820  15.620  29.980  15.129
    1HEX    C0Y73821  15.139  30.115  15.189
    1HEX    O0Z73822  15.108  30.078  15.322
    1HEX    C1073823  15.163  30.145  15.424
    1HEX    O1173824  15.239  30.241  15.413
    1HEX    C1273825  15.121  30.091  15.560
    1HEX    C1373826  15.222  30.128  15.669
    1HEX    C1573827  14.924  30.018  15.100
    1HEX    O1673828  14.846  29.989  15.217
    1HEX    C1773829  14.727  29.923  15.196
    1HEX    O1873830  14.714  29.826  15.123
    1HEX    C1973831  14.603  29.987  15.261
    1HEX    C1A73832  14.510  30.051  15.153
    1HEX    H1D73833  15.437  29.976  14.383
    1HEX    H1E73834  15.305  29.864  14.382
    1HEX    H1F73835  15.261  30.162  14.440
    1HEX    H1G73836  15.300  30.043  14.564
    1HEX    H1H73837  14.858  30.020  14.494
    1HEX    H1I73838  14.847  30.191  14.519
    1HEX    H1J73839  14.989  30.230  14.780
    1HEX    H1K73840  14.855  30.189  14.888
    1HEX    H1M73841  14.751  30.616  14.780
    1HEX    H1N73842  14.909  30.593  14.709
    1HEX    H1O73843  15.024  30.662  14.919
    1HEX    H1P73844  14.876  30.657  15.008
    1HEX    H1R73845  14.650  30.075  14.636
    1HEX    H1S73846  14.667  30.050  14.807
    1HEX    H1T73847  14.823  29.670  14.646
    1HEX    H1U73848  14.784  29.669  14.478
    1HEX    H1V73849  14.632  29.504  14.504
    1HEX    H1W73850  14.538  29.606  14.610
    1HEX    H1Y73851  14.970  29.894  14.692
    1HEX    H1Z73852  14.897  29.901  14.838
    1HEX    H2073853  15.095  30.169  14.938
    1HEX    H2173854  15.228  30.065  14.940
    1HEX    H2273855  15.100  29.799  15.053
    1HEX    H2373856  15.130  29.843  15.218
    1HEX    H2473857  15.526  29.805  15.034
    1HEX    H2573858  15.573  29.781  15.200
    1HEX    H2673859  15.616  30.029  15.226
    1HEX    H2773860  15.581  30.052  15.057
    1HEX    H2973861  15.101  30.216  15.171
    1HEX    H2A73862  15.248  30.121  15.179
    1HEX    H2B73863  15.113  29.982  15.550
    1HEX    H2C73864  15.021  30.129  15.583
    1HEX    H2D73865  15.221  30.236  15.686
    1HEX    H2E73866  15.322  30.102  15.636
    1HEX    H2G73867  14.883  29.959  15.021
    1HEX    H2H73868  14.894  30.121  15.079
    1HEX    H2I73869  14.632  30.058  15.338
    1HEX    H2J73870  14.551  29.905  15.311
    1HEX    H2K73871  14.524  30.001  15.057
    1HEX    H2M73872  14.538  30.155  15.137
    1STR    S0073873  15.307  30.006  14.185
    1STR    S0E73874  14.891  30.863  14.892
    1STR    S0M73875  14.667  29.447  14.734
    1STR    S0X73876  15.796  29.946  15.085
    1STR    S1473877  15.190  30.043  15.828
    1STR    S1B73878  14.329  30.045  15.187
    1HEX    C0173879  15.264  29.922  29.350
    1HEX    C0273880  15.248  29.949  29.500
    1HEX    C0373881  15.105  29.925  29.545
    1HEX    O0473882  15.058  29.811  29.544
    1HEX    O0573883  15.041  30.037  29.587
    1HEX    C0673884  14.904  30.029  29.624
    1HEX    C0773885  14.882  30.024  29.778
    1HEX    C0873886  14.901  30.168  29.838
    1HEX    O0973887  14.833  30.289  29.801
    1HEX    C0A73888  14.837  30.391  29.896
    1HEX    O0B73889  14.835  30.371  30.017
    1HEX    C0C73890  14.854  30.534  29.842
    1HEX    C0D73891  14.856  30.646  29.953
    1HEX    C0F73892  14.741  29.960  29.805
    1HEX    O0G73893  14.751  29.817  29.824
    1HEX    C0H73894  14.718  29.728  29.728
    1HEX    O0I73895  14.652  29.755  29.628
    1HEX    C0J73896  14.776  29.586  29.749
    1HEX    C0K73897  14.765  29.524  29.891
    1HEX    C0N73898  14.987  29.929  29.850
    1HEX    O0O73899  15.117  29.979  29.885
    1HEX    C0P73900  15.145  30.061  30.001
    1HEX    C0Q73901  15.103  30.015  30.145
    1HEX    C0R73902  15.157  29.872  30.170
    1HEX    O0S73903  15.298  29.860  30.139
    1HEX    C0T73904  15.394  29.866  30.236
    1HEX    O0U73905  15.373  29.886  30.355
    1HEX    C0V73906  15.536  29.841  30.184
    1HEX    C0W73907  15.607  29.966  30.123
    1HEX    C0Y73908  15.170  30.112  30.246
    1HEX    O0Z73909  15.129  30.080  30.379
    1HEX    C1073910  15.180  30.147  30.482
    1HEX    O1173911  15.266  30.235  30.474
    1HEX    C1273912  15.116  30.107  30.615
    1HEX    C1373913  15.211  30.119  30.736
    1HEX    C1573914  14.949  30.034  30.164
    1HEX    O1673915  14.883  29.988  30.282
    1HEX    C1773916  14.766  29.922  30.268
    1HEX    O1873917  14.740  29.843  30.176
    1HEX    C1973918  14.659  29.961  30.369
    1HEX    C1A73919  14.552  30.050  30.302
    1HEX    H1D73920  15.360  29.876  29.328
    1HEX    H1E73921  15.188  29.852  29.315
    1HEX    H1F73922  15.281  30.049  29.528
    1HEX    H1G73923  15.310  29.879  29.557
    1HEX    H1H73924  14.856  29.944  29.575
    1HEX    H1I73925  14.853  30.116  29.582
    1HEX    H1J73926  15.004  30.194  29.815
    1HEX    H1K73927  14.891  30.156  29.944
    1HEX    H1M73928  14.776  30.555  29.768
    1HEX    H1N73929  14.948  30.535  29.788
    1HEX    H1O73930  14.884  30.606  30.050
    1HEX    H1P73931  14.755  30.685  29.966
    1HEX    H1R73932  14.669  29.985  29.726
    1HEX    H1S73933  14.697  30.001  29.896
    1HEX    H1T73934  14.880  29.591  29.718
    1HEX    H1U73935  14.727  29.521  29.676
    1HEX    H1V73936  14.662  29.525  29.927
    1HEX    H1W73937  14.823  29.583  29.963
    1HEX    H1Y73938  15.004  29.846  29.783
    1HEX    H1Z73939  14.946  29.874  29.935
    1HEX    H2073940  15.115  30.164  29.987
    1HEX    H2173941  15.254  30.067  30.000
    1HEX    H2273942  15.104  29.801  30.107
    1HEX    H2373943  15.137  29.841  30.273
    1HEX    H2473944  15.533  29.760  30.112
    1HEX    H2573945  15.594  29.804  30.268
    1HEX    H2673946  15.539  30.051  30.127
    1HEX    H2773947  15.628  29.949  30.017
    1HEX    H2973948  15.142  30.216  30.226
    1HEX    H2A73949  15.278  30.109  30.240
    1HEX    H2B73950  15.078  30.005  30.606
    1HEX    H2C73951  15.029  30.172  30.626
    1HEX    H2D73952  15.291  30.190  30.714
    1HEX    H2E73953  15.260  30.024  30.758
    1HEX    H2G73954  14.893  29.997  30.080
    1HEX    H2H73955  14.927  30.141  30.162
    1HEX    H2I73956  14.704  30.010  30.456
    1HEX    H2J73957  14.614  29.868  30.404
    1HEX    H2K73958  14.537  30.016  30.199
    1HEX    H2M73959  14.583  30.154  30.295
    1STR    S0073960  15.254  30.078  29.256
    1STR    S0E73961  14.971  30.787  29.920
    1STR    S0M73962  14.827  29.350  29.891
    1STR    S0X73963  15.763  30.014  30.208
    1STR    S1473964  15.125  30.182  30.885
    1STR    S1B73965  14.389  30.039  30.384
    1HEX    C0173966  15.210  29.927  44.348
    1HEX    C0273967  15.227  29.975  44.493
    1HEX    C0373968  15.096  29.956  44.568
    1HEX    O0473969  15.045  29.844  44.574
    1HEX    O0573970  15.043  30.071  44.614
    1HEX    C0673971  14.904  30.075  44.644
    1HEX    C0773972  14.869  30.062  44.795
    1HEX    C0873973  14.890  30.201  44.867
    1HEX    O0973974  14.831  30.331  44.840
    1HEX    C0A73975  14.850  30.428  44.940
    1HEX    O0B73976  14.875  30.400  45.057
    1HEX    C0C73977  14.846  30.578  44.899
    1HEX    C0D73978  14.897  30.673  45.014
    1HEX    C0F73979  14.724  30.002  44.804
    1HEX    O0G73980  14.729  29.857  44.791
    1HEX    C0H73981  14.680  29.791  44.684
    1HEX    O0I73982  14.604  29.840  44.601
    1HEX    C0J73983  14.737  29.648  44.663
    1HEX    C0K73984  14.739  29.546  44.781
    1HEX    C0N73985  14.961  29.953  44.866
    1HEX    O0O73986  15.096  29.985  44.901
    1HEX    C0P73987  15.134  30.064  45.016
    1HEX    C0Q73988  15.097  30.019  45.161
    1HEX    C0R73989  15.157  29.877  45.186
    1HEX    O0S73990  15.298  29.868  45.151
    1HEX    C0T73991  15.398  29.880  45.243
    1HEX    O0U73992  15.381  29.906  45.362
    1HEX    C0V73993  15.540  29.853  45.189
    1HEX    C0W73994  15.632  29.977  45.174
    1HEX    C0Y73995  15.165  30.119  45.256
    1HEX    O0Z73996  15.121  30.088  45.386
    1HEX    C1073997  15.172  30.149  45.491
    1HEX    O1173998  15.263  30.232  45.490
    1HEX    C1273999  15.101  30.107  45.618
    1HEX    C1374000  15.169  30.159  45.745
    1HEX    C1574001  14.941  30.038  45.184
    1HEX    O1674002  14.867  29.972  45.288
    1HEX    C1774003  14.758  29.900  45.250
    1HEX    O1874004  14.755  29.824  45.153
    1HEX    C1974005  14.629  29.929  45.328
    1HEX    C1A74006  14.525  30.002  45.237
    1HEX    H1D74007  15.288  29.857  44.320
    1HEX    H1E74008  15.116  29.872  44.337
    1HEX    H1F74009  15.259  30.079  44.500
    1HEX    H1G74010  15.302  29.915  44.545
    1HEX    H1H74011  14.852  29.998  44.586
    1HEX    H1I74012  14.865  30.169  44.605
    1HEX    H1J74013  14.995  30.224  44.849
    1HEX    H1K74014  14.876  30.183  44.972
    1HEX    H1M74015  14.743  30.603  44.870
    1HEX    H1N74016  14.908  30.591  44.810
    1HEX    H1O74017  15.001  30.650  45.037
    1HEX    H1P74018  14.843  30.650  45.107
    1HEX    H1R74019  14.657  30.047  44.731
    1HEX    H1S74020  14.679  30.023  44.901
    1HEX    H1T74021  14.839  29.663  44.628
    1HEX    H1U74022  14.683  29.604  44.579
    1HEX    H1V74023  14.638  29.516  44.809
    1HEX    H1W74024  14.785  29.589  44.870
    1HEX    H1Y74025  14.971  29.870  44.797
    1HEX    H1Z74026  14.911  29.898  44.946
    1HEX    H2074027  15.111  30.169  45.004
    1HEX    H2174028  15.243  30.063  45.009
    1HEX    H2274029  15.103  29.804  45.126
    1HEX    H2374030  15.141  29.848  45.290
    1HEX    H2474031  15.532  29.797  45.095
    1HEX    H2574032  15.585  29.785  45.261
    1HEX    H2674033  15.624  30.042  45.261
    1HEX    H2774034  15.601  30.037  45.088
    1HEX    H2974035  15.138  30.222  45.234
    1HEX    H2A74036  15.274  30.115  45.251
    1HEX    H2B74037  15.096  29.998  45.618
    1HEX    H2C74038  14.999  30.144  45.611
    1HEX    H2D74039  15.181  30.267  45.742
    1HEX    H2E74040  15.269  30.117  45.754
    1HEX    H2G74041  14.886  30.022  45.094
    1HEX    H2H74042  14.923  30.144  45.201
    1HEX    H2I74043  14.651  29.987  45.418
    1HEX    H2J74044  14.588  29.833  45.360
    1HEX    H2K74045  14.547  29.979  45.133
    1HEX    H2M74046  14.537  30.110  45.246
    1STR    S0074047  15.201  30.062  44.226
    1STR    S0E74048  14.882  30.857  44.991
    1STR    S0M74049  14.833  29.396  44.725
    1STR    S0X74050  15.809  29.930  45.151
    1STR    S1474051  15.069  30.111  45.889
    1STR    S1B74052  14.347  29.962  45.267
    1HEX    C0174053  15.278  45.043  59.414
    1HEX    C0274054  15.236  45.004  59.558
    1HEX    C0374055  15.086  44.997  59.583
    1HEX    O0474056  15.021  44.898  59.547
    1HEX    O0574057  15.038  45.103  59.650
    1HEX    C0674058  14.900  45.110  59.684
    1HEX    C0774059  14.875  45.098  59.837
    1HEX    C0874060  14.901  45.236  59.906
    1HEX    O0974061  14.841  45.362  59.873
    1HEX    C0A74062  14.859  45.465  59.965
    1HEX    O0B74063  14.878  45.447  60.085
    1HEX    C0C74064  14.859  45.609  59.908
    1HEX    C0D74065  14.820  45.724  60.007
    1HEX    C0F74066  14.727  45.047  59.857
    1HEX    O0G74067  14.724  44.903  59.864
    1HEX    C0H74068  14.674  44.824  59.766
    1HEX    O0I74069  14.609  44.864  59.670
    1HEX    C0J74070  14.713  44.676  59.782
    1HEX    C0K74071  14.600  44.583  59.832
    1HEX    C0N74072  14.971  44.990  59.902
    1HEX    O0O74073  15.102  45.026  59.949
    1HEX    C0P74074  15.130  45.100  60.071
    1HEX    C0Q74075  15.087  45.048   0.053
    1HEX    C0R74076  15.147  44.906   0.074
    1HEX    O0S74077  15.288  44.899   0.043
    1HEX    C0T74078  15.385  44.902   0.139
    1HEX    O0U74079  15.364  44.916   0.259
    1HEX    C0V74080  15.529  44.886   0.086
    1HEX    C0W74081  15.602  45.021   0.070
    1HEX    C0Y74082  15.150  45.144   0.158
    1HEX    O0Z74083  15.117  45.107   0.291
    1HEX    C1074084  15.171  45.176   0.392
    1HEX    O1174085  15.247  45.272   0.379
    1HEX    C1274086  15.128  45.125   0.530
    1HEX    C1374087  15.207  45.197   0.643
    1HEX    C1574088  14.931  45.063   0.066
    1HEX    O1674089  14.857  45.027   0.184
    1HEX    C1774090  14.737  44.964   0.166
    1HEX    O1874091  14.717  44.877   0.082
    1HEX    C1974092  14.620  45.019   0.249
    1HEX    C1A74093  14.514  45.085   0.156
    1HEX    H1D74094  15.233  44.945  59.393
    1HEX    H1E74095  15.234  45.142  59.422
    1HEX    H1F74096  15.278  45.075  59.630
    1HEX    H1G74097  15.277  44.907  59.587
    1HEX    H1H74098  14.843  45.034  59.629
    1HEX    H1I74099  14.861  45.205  59.646
    1HEX    H1J74100  15.007  45.257  59.888
    1HEX    H1K74101  14.886  45.219  60.012
    1HEX    H1M74102  14.790  45.609  59.824
    1HEX    H1N74103  14.958  45.628  59.865
    1HEX    H1O74104  14.771  45.679  60.094
    1HEX    H1P74105  14.745  45.789  59.962
    1HEX    H1R74106  14.660  45.085  59.780
    1HEX    H1S74107  14.686  45.084  59.951
    1HEX    H1T74108  14.801  44.669  59.846
    1HEX    H1U74109  14.746  44.642  59.684
    1HEX    H1V74110  14.568  44.517  59.751
    1HEX    H1W74111  14.513  44.643  59.859
    1HEX    H1Y74112  14.988  44.915  59.824
    1HEX    H1Z74113  14.923  44.926  59.975
    1HEX    H2074114  15.104  45.204  60.063
    1HEX    H2174115  15.239  45.103  60.071
    1HEX    H2274116  15.095  44.835   0.009
    1HEX    H2374117  15.128  44.871   0.176
    1HEX    H2474118  15.526  44.831  60.152
    1HEX    H2574119  15.584  44.824   0.157
    1HEX    H2674120  15.608  45.072   0.167
    1HEX    H2774121  15.541  45.085   0.006
    1HEX    H2974122  15.117  45.247   0.141
    1HEX    H2A74123  15.258  45.146   0.148
    1HEX    H2B74124  15.146  45.018   0.532
    1HEX    H2C74125  15.021  45.141   0.542
    1HEX    H2D74126  15.177  45.301   0.648
    1HEX    H2E74127  15.313  45.196   0.616
    1HEX    H2G74128  14.880  45.020  60.142
    1HEX    H2H74129  14.908  45.170   0.058
    1HEX    H2I74130  14.656  45.088   0.326
    1HEX    H2J74131  14.576  44.934   0.301
    1HEX    H2K74132  14.498  45.020   0.070
    1HEX    H2M74133  14.553  45.178   0.116
    1STR    S0074134  15.194  45.033  59.251
    1STR    S0E74135  14.953  45.833  60.074
    1STR    S0M74136  14.638  44.475  59.977
    1STR    S0X74137  15.771  45.015  60.156
    1STR    S1474138  15.193  45.122   0.809
    1STR    S1B74139  14.350  45.120   0.231
    1HEX    C0174140  15.281  44.988  14.290
    1HEX    C0274141  15.240  45.025  14.434
    1HEX    C0374142  15.098  44.987  14.473
    1HEX    O0474143  15.056  44.872  14.462
    1HEX    O0574144  15.030  45.092  14.525
    1HEX    C0674145  14.896  45.077  14.568
    1HEX    C0774146  14.882  45.065  14.722
    1HEX    C0874147  14.891  45.208  14.788
    1HEX    O0974148  14.830  45.332  14.748
    1HEX    C0A74149  14.845  45.438  14.839
    1HEX    O0B74150  14.863  45.421  14.959
    1HEX    C0C74151  14.847  45.582  14.782
    1HEX    C0D74152  14.869  45.691  14.894
    1HEX    C0F74153  14.749  44.986  14.751
    1HEX    O0G74154  14.773  44.844  14.761
    1HEX    C0H74155  14.740  44.756  14.663
    1HEX    O0I74156  14.665  44.782  14.569
    1HEX    C0J74157  14.811  44.619  14.672
    1HEX    C0K74158  14.828  44.553  14.813
    1HEX    C0N74159  14.997  44.974  14.785
    1HEX    O0O74160  15.124  45.030  14.821
    1HEX    C0P74161  15.148  45.103  14.943
    1HEX    C0Q74162  15.105  45.050  15.084
    1HEX    C0R74163  15.161  44.907  15.107
    1HEX    O0S74164  15.302  44.897  15.080
    1HEX    C0T74165  15.395  44.902  15.179
    1HEX    O0U74166  15.371  44.925  15.297
    1HEX    C0V74167  15.538  44.870  15.134
    1HEX    C0W74168  15.626  44.993  15.100
    1HEX    C0Y74169  15.169  45.147  15.187
    1HEX    O0Z74170  15.130  45.116  15.319
    1HEX    C1074171  15.188  45.180  15.421
    1HEX    O1174172  15.279  45.262  15.410
    1HEX    C1274173  15.125  45.143  15.554
    1HEX    C1374174  15.215  45.175  15.676
    1HEX    C1574175  14.949  45.062  15.101
    1HEX    O1674176  14.882  45.005  15.214
    1HEX    C1774177  14.760  44.947  15.195
    1HEX    O1874178  14.721  44.895  15.091
    1HEX    C1974179  14.664  44.960  15.314
    1HEX    C1A74180  14.536  45.040  15.278
    1HEX    H1D74181  15.314  44.884  14.287
    1HEX    H1E74182  15.366  45.050  14.260
    1HEX    H1F74183  15.250  45.132  14.449
    1HEX    H1G74184  15.306  44.977  14.506
    1HEX    H1H74185  14.850  44.992  14.517
    1HEX    H1I74186  14.840  45.164  14.532
    1HEX    H1J74187  14.995  45.236  14.776
    1HEX    H1K74188  14.869  45.195  14.893
    1HEX    H1M74189  14.754  45.600  14.728
    1HEX    H1N74190  14.928  45.587  14.710
    1HEX    H1O74191  14.951  45.662  14.959
    1HEX    H1P74192  14.781  45.695  14.959
    1HEX    H1R74193  14.671  45.009  14.678
    1HEX    H1S74194  14.706  45.017  14.847
    1HEX    H1T74195  14.909  44.631  14.626
    1HEX    H1U74196  14.755  44.551  14.607
    1HEX    H1V74197  14.733  44.555  14.868
    1HEX    H1W74198  14.899  44.610  14.873
    1HEX    H1Y74199  15.019  44.897  14.711
    1HEX    H1Z74200  14.964  44.911  14.867
    1HEX    H2074201  15.119  45.207  14.934
    1HEX    H2174202  15.257  45.109  14.944
    1HEX    H2274203  15.110  44.836  15.042
    1HEX    H2374204  15.139  44.874  15.209
    1HEX    H2474205  15.535  44.799  15.051
    1HEX    H2574206  15.582  44.816  15.218
    1HEX    H2674207  15.584  45.084  15.143
    1HEX    H2774208  15.627  45.008  14.992
    1HEX    H2974209  15.140  45.251  15.167
    1HEX    H2A74210  15.278  45.146  15.179
    1HEX    H2B74211  15.099  45.038  15.553
    1HEX    H2C74212  15.032  45.200  15.559
    1HEX    H2D74213  15.270  45.268  15.660
    1HEX    H2E74214  15.290  45.097  15.689
    1HEX    H2G74215  14.898  45.027  15.014
    1HEX    H2H74216  14.923  45.168  15.105
    1HEX    H2I74217  14.718  45.010  15.395
    1HEX    H2J74218  14.640  44.860  15.350
    1HEX    H2K74219  14.547  45.087  15.180
    1HEX    H2M74220  14.520  45.122  15.348
    1STR    S0074221  15.153  45.006  14.161
    1STR    S0E74222  14.902  45.863  14.835
    1STR    S0M74223  14.885  44.377  14.800
    1STR    S0X74224  15.798  44.973  15.161
    1STR    S1474225  15.112  45.197  15.825
    1STR    S1B74226  14.383  44.940  15.272
    1HEX    C0174227  15.288  45.011  29.345
    1HEX    C0274228  15.264  45.063  29.487
    1HEX    C0374229  15.123  45.032  29.535
    1HEX    O0474230  15.080  44.916  29.532
    1HEX    O0574231  15.057  45.141  29.579
    1HEX    C0674232  14.917  45.134  29.597
    1HEX    C0774233  14.873  45.116  29.745
    1HEX    C0874234  14.893  45.250  29.824
    1HEX    O0974235  14.841  45.381  29.794
    1HEX    C0A74236  14.862  45.478  29.893
    1HEX    O0B74237  14.885  45.450  30.011
    1HEX    C0C74238  14.862  45.626  29.849
    1HEX    C0D74239  14.926  45.720  29.959
    1HEX    C0F74240  14.724  45.065  29.743
    1HEX    O0G74241  14.723  44.923  29.719
    1HEX    C0H74242  14.693  44.871  29.598
    1HEX    O0I74243  14.636  44.932  29.508
    1HEX    C0J74244  14.742  44.727  29.576
    1HEX    C0K74245  14.768  44.642  29.703
    1HEX    C0N74246  14.955  45.001  29.817
    1HEX    O0O74247  15.090  45.024  29.863
    1HEX    C0P74248  15.128  45.101  29.980
    1HEX    C0Q74249  15.088  45.057  30.125
    1HEX    C0R74250  15.150  44.916  30.153
    1HEX    O0S74251  15.292  44.910  30.122
    1HEX    C0T74252  15.390  44.922  30.217
    1HEX    O0U74253  15.371  44.942  30.336
    1HEX    C0V74254  15.534  44.902  30.164
    1HEX    C0W74255  15.626  45.028  30.172
    1HEX    C0Y74256  15.153  45.157  30.223
    1HEX    O0Z74257  15.111  45.123  30.353
    1HEX    C1074258  15.166  45.184  30.458
    1HEX    O1174259  15.251  45.272  30.454
    1HEX    C1274260  15.108  45.132  30.588
    1HEX    C1374261  15.202  45.157  30.707
    1HEX    C1574262  14.932  45.076  30.140
    1HEX    O1674263  14.852  45.019  30.244
    1HEX    C1774264  14.735  44.957  30.206
    1HEX    O1874265  14.727  44.878  30.113
    1HEX    C1974266  14.608  45.005  30.278
    1HEX    C1A74267  14.514  45.082  30.180
    1HEX    H1D74268  15.394  44.999  29.326
    1HEX    H1E74269  15.244  44.911  29.335
    1HEX    H1F74270  15.283  45.170  29.495
    1HEX    H1G74271  15.331  45.013  29.557
    1HEX    H1H74272  14.876  45.056  29.533
    1HEX    H1I74273  14.874  45.226  29.557
    1HEX    H1J74274  14.999  45.269  29.815
    1HEX    H1K74275  14.870  45.228  29.928
    1HEX    H1M74276  14.760  45.656  29.827
    1HEX    H1N74277  14.919  45.634  29.756
    1HEX    H1O74278  15.032  45.695  29.970
    1HEX    H1P74279  14.881  45.698  30.056
    1HEX    H1R74280  14.664  45.120  29.670
    1HEX    H1S74281  14.675  45.083  29.839
    1HEX    H1T74282  14.834  44.735  29.519
    1HEX    H1U74283  14.670  44.677  29.511
    1HEX    H1V74284  14.678  44.637  29.765
    1HEX    H1W74285  14.845  44.688  29.765
    1HEX    H1Y74286  14.968  44.922  29.743
    1HEX    H1Z74287  14.897  44.944  29.888
    1HEX    H2074288  15.108  45.207  29.969
    1HEX    H2174289  15.237  45.098  29.975
    1HEX    H2274290  15.099  44.842  30.091
    1HEX    H2374291  15.132  44.887  30.256
    1HEX    H2474292  15.530  44.862  30.062
    1HEX    H2574293  15.578  44.823  30.225
    1HEX    H2674294  15.623  45.070  30.273
    1HEX    H2774295  15.588  45.106  30.106
    1HEX    H2974296  15.123  45.260  30.202
    1HEX    H2A74297  15.261  45.156  30.216
    1HEX    H2B74298  15.091  45.025  30.576
    1HEX    H2C74299  15.011  45.180  30.604
    1HEX    H2D74300  15.210  45.264  30.727
    1HEX    H2E74301  15.302  45.123  30.682
    1HEX    H2G74302  14.882  45.053  30.048
    1HEX    H2H74303  14.913  45.183  30.149
    1HEX    H2I74304  14.634  45.065  30.365
    1HEX    H2J74305  14.558  44.915  30.316
    1HEX    H2K74306  14.543  45.057  30.078
    1HEX    H2M74307  14.529  45.189  30.189
    1STR    S0074308  15.217  45.116  29.213
    1STR    S0E74309  14.910  45.903  29.937
    1STR    S0M74310  14.818  44.471  29.657
    1STR    S0X74311  15.802  44.994  30.127
    1STR    S1474312  15.143  45.069  30.855
    1STR    S1B74313  14.333  45.048  30.192
    1HEX    C0174314  15.250  44.900  44.402
    1HEX    C0274315  15.229  44.960  44.543
    1HEX    C0374316  15.083  44.952  44.585
    1HEX    O0474317  15.025  44.843  44.585
    1HEX    O0574318  15.031  45.070  44.624
    1HEX    C0674319  14.895  45.076  44.665
    1HEX    C0774320  14.876  45.075  44.820
    1HEX    C0874321  14.901  45.219  44.876
    1HEX    O0974322  14.828  45.339  44.845
    1HEX    C0A74323  14.824  45.436  44.944
    1HEX    O0B74324  14.819  45.411  45.064
    1HEX    C0C74325  14.836  45.583  44.895
    1HEX    C0D74326  14.819  45.692  45.006
    1HEX    C0F74327  14.731  45.019  44.849
    1HEX    O0G74328  14.735  44.878  44.879
    1HEX    C0H74329  14.706  44.782  44.789
    1HEX    O0I74330  14.644  44.800  44.684
    1HEX    C0J74331  14.762  44.643  44.827
    1HEX    C0K74332  14.670  44.558  44.919
    1HEX    C0N74333  14.978  44.977  44.891
    1HEX    O0O74334  15.111  45.023  44.923
    1HEX    C0P74335  15.144  45.105  45.038
    1HEX    C0Q74336  15.105  45.060  45.183
    1HEX    C0R74337  15.160  44.917  45.207
    1HEX    O0S74338  15.301  44.906  45.177
    1HEX    C0T74339  15.396  44.911  45.274
    1HEX    O0U74340  15.374  44.930  45.394
    1HEX    C0V74341  15.540  44.885  45.224
    1HEX    C0W74342  15.602  44.998  45.138
    1HEX    C0Y74343  15.172  45.156  45.285
    1HEX    O0Z74344  15.129  45.123  45.417
    1HEX    C1074345  15.174  45.195  45.521
    1HEX    O1174346  15.254  45.287  45.514
    1HEX    C1274347  15.110  45.152  45.654
    1HEX    C1374348  15.209  45.149  45.773
    1HEX    C1574349  14.951  45.081  45.203
    1HEX    O1674350  14.884  45.027  45.316
    1HEX    C1774351  14.770  44.958  45.292
    1HEX    O1874352  14.754  44.876  45.202
    1HEX    C1974353  14.654  45.000  45.381
    1HEX    C1A74354  14.553  45.090  45.303
    1HEX    H1D74355  15.331  44.827  44.405
    1HEX    H1E74356  15.162  44.847  44.367
    1HEX    H1F74357  15.263  45.063  44.549
    1HEX    H1G74358  15.285  44.903  44.617
    1HEX    H1H74359  14.838  44.995  44.618
    1HEX    H1I74360  14.851  45.166  44.623
    1HEX    H1J74361  15.003  45.245  44.846
    1HEX    H1K74362  14.901  45.209  44.983
    1HEX    H1M74363  14.764  45.599  44.815
    1HEX    H1N74364  14.935  45.592  44.849
    1HEX    H1O74365  14.816  45.647  45.106
    1HEX    H1P74366  14.723  45.742  44.995
    1HEX    H1R74367  14.661  45.041  44.768
    1HEX    H1S74368  14.688  45.069  44.936
    1HEX    H1T74369  14.859  44.659  44.873
    1HEX    H1U74370  14.782  44.588  44.735
    1HEX    H1V74371  14.612  44.488  44.859
    1HEX    H1W74372  14.598  44.625  44.967
    1HEX    H1Y74373  14.991  44.892  44.824
    1HEX    H1Z74374  14.938  44.924  44.976
    1HEX    H2074375  15.117  45.209  45.023
    1HEX    H2174376  15.253  45.108  45.034
    1HEX    H2274377  15.107  44.846  45.142
    1HEX    H2374378  15.138  44.885  45.309
    1HEX    H2474379  15.537  44.793  45.167
    1HEX    H2574380  15.602  44.865  45.311
    1HEX    H2674381  15.527  45.074  45.119
    1HEX    H2774382  15.632  44.959  45.040
    1HEX    H2974383  15.146  45.260  45.265
    1HEX    H2A74384  15.281  45.152  45.280
    1HEX    H2B74385  15.064  45.054  45.641
    1HEX    H2C74386  15.028  45.222  45.672
    1HEX    H2D74387  15.301  45.201  45.745
    1HEX    H2E74388  15.237  45.047  45.797
    1HEX    H2G74389  14.893  45.053  45.116
    1HEX    H2H74390  14.931  45.188  45.209
    1HEX    H2I74391  14.691  45.049  45.471
    1HEX    H2J74392  14.606  44.908  45.413
    1HEX    H2K74393  14.559  45.073  45.196
    1HEX    H2M74394  14.573  45.196  45.321
    1STR    S0074395  15.295  45.029  44.283
    1STR    S0E74396  14.953  45.820  45.016
    1STR    S0M74397  14.753  44.463  45.054
    1STR    S0X74398  15.749  45.083  45.210
    1STR    S1474399  15.145  45.233  45.923
    1STR    S1B74400  14.385  45.053  45.359
    1HEX    C0174401  30.335  59.996  59.477
    1HEX    C0274402  30.274  59.994  59.619
    1HEX    C0374403  30.122  60.003  59.621
    1HEX    O0474404  30.053  59.904  59.598
    1HEX    O0574405  30.078  60.125  59.657
    1HEX    C0674406  29.939  60.145  59.682
    1HEX    C0774407  29.905  60.138  59.834
    1HEX    C0874408  29.931   0.117  59.902
    1HEX    O0974409  29.870   0.245  59.874
    1HEX    C0A74410  29.888   0.344  59.971
    1HEX    O0B74411  29.916   0.319  60.089
    1HEX    C0C74412  29.878   0.492  59.927
    1HEX    C0D74413  29.914   0.592  60.044
    1HEX    C0F74414  29.758  60.085  59.848
    1HEX    O0G74415  29.759  59.941  59.841
    1HEX    C0H74416  29.710  59.871  59.737
    1HEX    O0I74417  29.630  59.916  59.656
    1HEX    C0J74418  29.770  59.730  59.722
    1HEX    C0K74419  29.774  59.638  59.847
    1HEX    C0N74420  29.995  60.029  59.907
    1HEX    O0O74421  30.132  60.058  59.940
    1HEX    C0P74422  30.173  60.138  60.053
    1HEX    C0Q74423  30.139  60.097   0.039
    1HEX    C0R74424  30.196  59.954   0.066
    1HEX    O0S74425  30.337  59.942   0.032
    1HEX    C0T74426  30.435  59.952   0.126
    1HEX    O0U74427  30.418  59.980   0.244
    1HEX    C0V74428  30.576  59.918   0.074
    1HEX    C0W74429  30.669  60.040   0.047
    1HEX    C0Y74430  30.210   0.037   0.133
    1HEX    O0Z74431  30.168   0.010   0.266
    1HEX    C1074432  30.225   0.074   0.368
    1HEX    O1174433  30.318   0.153   0.361
    1HEX    C1274434  30.155   0.038   0.498
    1HEX    C1374435  30.235   0.076   0.623
    1HEX    C1574436  29.985  60.117   0.066
    1HEX    O1674437  29.917  60.051   0.174
    1HEX    C1774438  29.803  59.983   0.145
    1HEX    O1874439  29.785  59.916   0.043
    1HEX    C1974440  29.688  60.005   0.244
    1HEX    C1A74441  29.566  60.074   0.177
    1HEX    H1D74442  30.319  59.888  59.472
    1HEX    H1E74443  30.280  60.086  59.452
    1HEX    H1F74444  30.312  60.078  59.677
    1HEX    H1G74445  30.302  59.905  59.675
    1HEX    H1H74446  29.880  60.073  59.624
    1HEX    H1I74447  29.910   0.082  59.642
    1HEX    H1J74448  30.036   0.139  59.881
    1HEX    H1K74449  29.921   0.100  60.008
    1HEX    H1M74450  29.778   0.511  59.888
    1HEX    H1N74451  29.948   0.507  59.844
    1HEX    H1O74452  30.014   0.570  60.082
    1HEX    H1P74453  29.847   0.574  60.128
    1HEX    H1R74454  29.692  60.129  59.773
    1HEX    H1S74455  29.716  60.113  59.944
    1HEX    H1T74456  29.871  59.747  59.685
    1HEX    H1U74457  29.719  59.679  59.640
    1HEX    H1V74458  29.687  59.572  59.848
    1HEX    H1W74459  29.771  59.696  59.940
    1HEX    H1Y74460  30.002  59.943  59.840
    1HEX    H1Z74461  29.945  59.977  59.988
    1HEX    H2074462  30.150   0.083  60.040
    1HEX    H2174463  30.282  60.138  60.044
    1HEX    H2274464  30.141  59.881   0.007
    1HEX    H2374465  30.179  59.926   0.170
    1HEX    H2474466  30.569  59.853  60.147
    1HEX    H2574467  30.621  59.858   0.153
    1HEX    H2674468  30.654  60.119   0.120
    1HEX    H2774469  30.647  60.083  60.109
    1HEX    H2974470  30.185   0.140   0.109
    1HEX    H2A74471  30.319   0.031   0.125
    1HEX    H2B74472  30.135  60.091   0.497
    1HEX    H2C74473  30.058   0.089   0.496
    1HEX    H2D74474  30.272   0.178   0.618
    1HEX    H2E74475  30.322   0.011   0.632
    1HEX    H2G74476  29.926  60.101  60.138
    1HEX    H2H74477  29.967   0.063   0.083
    1HEX    H2I74478  29.724  60.063   0.329
    1HEX    H2J74479  29.661  59.907   0.283
    1HEX    H2K74480  29.582  60.081   0.069
    1HEX    H2M74481  29.552   0.016   0.212
    1STR    S0074482  30.253  59.945  59.321
    1STR    S0E74483  29.906   0.774  60.007
    1STR    S0M74484  29.927  59.535  59.846
    1STR    S0X74485  30.847  59.991   0.049
    1STR    S1474486  30.126   0.057   0.768
    1STR    S1B74487  29.409  59.981   0.200
    1HEX    C0174488  30.330  60.046  14.373
    1HEX    C0274489  30.265  60.095  14.503
    1HEX    C0374490  30.117  60.068  14.505
    1HEX    O0474491  30.073  59.955  14.479
    1HEX    O0574492  30.046   0.013  14.546
    1HEX    C0674493  29.908  60.158  14.574
    1HEX    C0774494  29.883  60.142  14.726
    1HEX    C0874495  29.909   0.120  14.795
    1HEX    O0974496  29.853   0.248  14.761
    1HEX    C0A74497  29.875   0.349  14.854
    1HEX    O0B74498  29.896   0.327  14.973
    1HEX    C0C74499  29.878   0.495  14.802
    1HEX    C0D74500  29.944   0.593  14.906
    1HEX    C0F74501  29.737  60.088  14.745
    1HEX    O0G74502  29.735  59.945  14.759
    1HEX    C0H74503  29.704  59.861  14.657
    1HEX    O0I74504  29.650  59.895  14.552
    1HEX    C0J74505  29.749  59.716  14.682
    1HEX    C0K74506  29.637  59.621  14.734
    1HEX    C0N74507  29.980  60.035  14.792
    1HEX    O0O74508  30.115  60.069  14.831
    1HEX    C0P74509  30.154  60.145  14.948
    1HEX    C0Q74510  30.117  60.102  15.095
    1HEX    C0R74511  30.174  59.959  15.120
    1HEX    O0S74512  30.314  59.948  15.083
    1HEX    C0T74513  30.416  59.952  15.174
    1HEX    O0U74514  30.402  59.966  15.296
    1HEX    C0V74515  30.556  59.935  15.112
    1HEX    C0W74516  30.667  60.020  15.181
    1HEX    C0Y74517  30.189   0.040  15.191
    1HEX    O0Z74518  30.159   0.014  15.328
    1HEX    C1074519  30.222   0.085  15.423
    1HEX    O1174520  30.307   0.171  15.401
    1HEX    C1274521  30.173   0.052  15.565
    1HEX    C1374522  30.283   0.063  15.674
    1HEX    C1574523  29.963  60.124  15.113
    1HEX    O1674524  29.888  60.085  15.229
    1HEX    C1774525  29.768  60.023  15.206
    1HEX    O1874526  29.753  59.929  15.129
    1HEX    C1974527  29.646  60.089  15.273
    1HEX    C1A74528  29.549  60.142  15.163
    1HEX    H1D74529  30.434  60.022  14.393
    1HEX    H1E74530  30.280  59.955  14.338
    1HEX    H1F74531  30.285   0.041  14.521
    1HEX    H1G74532  30.306  60.041  14.588
    1HEX    H1H74533  29.865  60.074  14.517
    1HEX    H1I74534  29.856   0.086  14.535
    1HEX    H1J74535  30.015   0.140  14.778
    1HEX    H1K74536  29.893   0.103  14.901
    1HEX    H1M74537  29.776   0.525  14.780
    1HEX    H1N74538  29.933   0.498  14.708
    1HEX    H1O74539  30.052   0.577  14.910
    1HEX    H1P74540  29.909   0.567  15.006
    1HEX    H1R74541  29.670  60.121  14.664
    1HEX    H1S74542  29.693  60.129  14.836
    1HEX    H1T74543  29.834  59.716  14.749
    1HEX    H1U74544  29.786  59.677  14.587
    1HEX    H1V74545  29.604  59.555  14.654
    1HEX    H1W74546  29.550  59.680  14.762
    1HEX    H1Y74547  29.992  59.956  14.717
    1HEX    H1Z74548  29.935  59.975  14.870
    1HEX    H2074549  30.131   0.091  14.937
    1HEX    H2174550  30.263  60.145  14.941
    1HEX    H2274551  30.118  59.887  15.061
    1HEX    H2374552  30.159  59.930  15.225
    1HEX    H2474553  30.549  59.959  15.006
    1HEX    H2574554  30.582  59.829  15.118
    1HEX    H2674555  30.629  60.120  15.203
    1HEX    H2774556  30.693  59.976  15.277
    1HEX    H2974557  30.161   0.144  15.169
    1HEX    H2A74558  30.297   0.036  15.177
    1HEX    H2B74559  30.130  60.112  15.565
    1HEX    H2C74560  30.092   0.121  15.585
    1HEX    H2D74561  30.370   0.116  15.634
    1HEX    H2E74562  30.319  60.124  15.702
    1HEX    H2G74563  29.909  60.087  15.028
    1HEX    H2H74564  29.945   0.072  15.109
    1HEX    H2I74565  29.678   0.007  15.341
    1HEX    H2J74566  29.596  60.012  15.332
    1HEX    H2K74567  29.529  60.062  15.092
    1HEX    H2M74568  29.599   0.060  15.105
    1STR    S0074569  30.326   0.009  14.241
    1STR    S0E74570  29.910   0.774  14.892
    1STR    S0M74571  29.680  59.515  14.879
    1STR    S0X74572  30.821  60.039  15.081
    1STR    S1474573  30.230   0.155  15.824
    1STR    S1B74574  29.388   0.051  15.219
    1HEX    C0174575  30.301  60.030  29.339
    1HEX    C0274576  30.297  60.046  29.492
    1HEX    C0374577  30.157  60.016  29.543
    1HEX    O0474578  30.113  59.901  29.540
    1HEX    O0574579  30.091  60.125  29.587
    1HEX    C0674580  29.953  60.114  29.620
    1HEX    C0774581  29.925  60.100  29.772
    1HEX    C0874582  29.927   0.081  29.841
    1HEX    O0974583  29.874   0.207  29.794
    1HEX    C0A74584  29.884   0.311  29.885
    1HEX    O0B74585  29.891   0.295  30.007
    1HEX    C0C74586  29.897   0.454  29.828
    1HEX    C0D74587  29.907   0.565  29.939
    1HEX    C0F74588  29.790  60.022  29.789
    1HEX    O0G74589  29.813  59.879  29.795
    1HEX    C0H74590  29.785  59.796  29.693
    1HEX    O0I74591  29.714  59.826  29.597
    1HEX    C0J74592  29.855  59.658  29.699
    1HEX    C0K74593  29.872  59.590  29.839
    1HEX    C0N74594  30.033  60.010  29.845
    1HEX    O0O74595  30.162  60.063  29.880
    1HEX    C0P74596  30.189  60.141  29.999
    1HEX    C0Q74597  30.145  60.093  30.141
    1HEX    C0R74598  30.199  59.949  30.165
    1HEX    O0S74599  30.339  59.937  30.136
    1HEX    C0T74600  30.434  59.943  30.233
    1HEX    O0U74601  30.412  59.966  30.352
    1HEX    C0V74602  30.577  59.915  30.183
    1HEX    C0W74603  30.655  60.041  30.136
    1HEX    C0Y74604  30.211   0.030  30.243
    1HEX    O0Z74605  30.170  60.157  30.375
    1HEX    C1074606  30.225   0.061  30.478
    1HEX    O1174607  30.312   0.148  30.470
    1HEX    C1274608  30.163   0.020  30.611
    1HEX    C1374609  30.255   0.044  30.733
    1HEX    C1574610  29.991  60.111  30.158
    1HEX    O1674611  29.924  60.064  30.276
    1HEX    C1774612  29.808  59.997  30.261
    1HEX    O1874613  29.779  59.925  30.165
    1HEX    C1974614  29.705  60.025  30.370
    1HEX    C1A74615  29.589  60.112  30.314
    1HEX    H1D74616  30.399  59.999  29.304
    1HEX    H1E74617  30.232  59.951  29.308
    1HEX    H1F74618  30.330  60.144  29.524
    1HEX    H1G74619  30.363  59.973  29.538
    1HEX    H1H74620  29.908  60.032  29.564
    1HEX    H1I74621  29.903   0.043  29.582
    1HEX    H1J74622  30.031   0.109  29.840
    1HEX    H1K74623  29.893   0.068  29.943
    1HEX    H1M74624  29.813   0.474  29.761
    1HEX    H1N74625  29.987   0.455  29.767
    1HEX    H1O74626  29.959   0.529  30.028
    1HEX    H1P74627  29.807   0.592  29.974
    1HEX    H1R74628  29.718  60.049  29.710
    1HEX    H1S74629  29.740  60.050  29.882
    1HEX    H1T74630  29.953  59.671  29.653
    1HEX    H1U74631  29.799  59.592  29.632
    1HEX    H1V74632  29.778  59.592  29.894
    1HEX    H1W74633  29.944  59.645  29.899
    1HEX    H1Y74634  30.056  59.928  29.777
    1HEX    H1Z74635  29.994  59.952  29.928
    1HEX    H2074636  30.163   0.086  29.987
    1HEX    H2174637  30.298  60.145  29.999
    1HEX    H2274638  30.145  59.879  30.102
    1HEX    H2374639  30.177  59.918  30.268
    1HEX    H2474640  30.572  59.840  30.105
    1HEX    H2574641  30.628  59.868  30.267
    1HEX    H2674642  30.597  60.131  30.156
    1HEX    H2774643  30.670  60.037  30.028
    1HEX    H2974644  30.183   0.134  30.224
    1HEX    H2A74645  30.320   0.027  30.237
    1HEX    H2B74646  30.133  60.075  30.606
    1HEX    H2C74647  30.071   0.078  30.620
    1HEX    H2D74648  30.324   0.126  30.712
    1HEX    H2E74649  30.318  60.117  30.753
    1HEX    H2G74650  29.938  60.072  30.073
    1HEX    H2H74651  29.968   0.058  30.155
    1HEX    H2I74652  29.752  60.072  30.456
    1HEX    H2J74653  29.667  59.929  30.403
    1HEX    H2K74654  29.584  60.100  30.205
    1HEX    H2M74655  29.605   0.058  30.331
    1STR    S0074656  30.257   0.027  29.257
    1STR    S0E74657  29.994   0.720  29.889
    1STR    S0M74658  29.926  59.414  29.822
    1STR    S0X74659  30.819  60.060  30.220
    1STR    S1474660  30.160   0.092  30.882
    1STR    S1B74661  29.425  60.064  30.378
    1HEX    C0174662  30.283  60.016  44.357
    1HEX    C0274663  30.285  60.066  44.502
    1HEX    C0374664  30.148  60.050  44.566
    1HEX    O0474665  30.093  59.940  44.566
    1HEX    O0574666  30.097   0.006  44.613
    1HEX    C0674667  29.957   0.015  44.634
    1HEX    C0774668  29.911  60.158  44.782
    1HEX    C0874669  29.934   0.132  44.861
    1HEX    O0974670  29.879   0.263  44.835
    1HEX    C0A74671  29.897   0.357  44.936
    1HEX    O0B74672  29.919   0.327  45.054
    1HEX    C0C74673  29.895   0.507  44.897
    1HEX    C0D74674  29.953   0.599  45.011
    1HEX    C0F74675  29.762  60.109  44.779
    1HEX    O0G74676  29.757  59.967  44.756
    1HEX    C0H74677  29.729  59.914  44.635
    1HEX    O0I74678  29.677  59.976  44.542
    1HEX    C0J74679  29.773  59.768  44.616
    1HEX    C0K74680  29.789  59.683  44.744
    1HEX    C0N74681  29.991  60.042  44.855
    1HEX    O0O74682  30.127  60.062  44.898
    1HEX    C0P74683  30.169  60.140  45.012
    1HEX    C0Q74684  30.132  60.097  45.157
    1HEX    C0R74685  30.195  59.957  45.184
    1HEX    O0S74686  30.336  59.950  45.151
    1HEX    C0T74687  30.436  59.964  45.244
    1HEX    O0U74688  30.418  59.988  45.363
    1HEX    C0V74689  30.579  59.942  45.190
    1HEX    C0W74690  30.670  60.068  45.185
    1HEX    C0Y74691  30.199   0.038  45.254
    1HEX    O0Z74692  30.154   0.005  45.383
    1HEX    C1074693  30.206   0.064  45.490
    1HEX    O1174694  30.295   0.149  45.490
    1HEX    C1274695  30.137   0.014  45.615
    1HEX    C1374696  30.202   0.066  45.744
    1HEX    C1574697  29.977  60.116  45.179
    1HEX    O1674698  29.901  60.052  45.283
    1HEX    C1774699  29.789  59.984  45.244
    1HEX    O1874700  29.785  59.906  45.150
    1HEX    C1974701  29.660  60.022  45.318
    1HEX    C1A74702  29.561  60.094  45.221
    1HEX    H1D74703  30.378  59.968  44.331
    1HEX    H1E74704  30.208  59.938  44.345
    1HEX    H1F74705  30.319   0.010  44.509
    1HEX    H1G74706  30.354  60.006  44.562
    1HEX    H1H74707  29.907  60.104  44.569
    1HEX    H1I74708  29.924   0.112  44.596
    1HEX    H1J74709  30.039   0.152  44.848
    1HEX    H1K74710  29.915   0.109  44.965
    1HEX    H1M74711  29.793   0.535  44.872
    1HEX    H1N74712  29.955   0.519  44.806
    1HEX    H1O74713  30.058   0.574  45.028
    1HEX    H1P74714  29.904   0.576  45.105
    1HEX    H1R74715  29.703   0.004  44.705
    1HEX    H1S74716  29.713  60.128  44.875
    1HEX    H1T74717  29.869  59.772  44.565
    1HEX    H1U74718  29.703  59.721  44.548
    1HEX    H1V74719  29.697  59.685  44.803
    1HEX    H1W74720  29.867  59.724  44.808
    1HEX    H1Y74721  29.999  59.960  44.783
    1HEX    H1Z74722  29.932  59.988  44.929
    1HEX    H2074723  30.149   0.086  45.001
    1HEX    H2174724  30.278  60.137  45.004
    1HEX    H2274725  30.143  59.882  45.124
    1HEX    H2374726  30.179  59.927  45.288
    1HEX    H2474727  30.574  59.892  45.093
    1HEX    H2574728  30.624  59.869  45.258
    1HEX    H2674729  30.663  60.125  45.278
    1HEX    H2774730  30.636  60.135  45.106
    1HEX    H2974731  30.170   0.141  45.232
    1HEX    H2A74732  30.308   0.036  45.248
    1HEX    H2B74733  30.138  60.065  45.612
    1HEX    H2C74734  30.033   0.046  45.610
    1HEX    H2D74735  30.201   0.175  45.746
    1HEX    H2E74736  30.307   0.036  45.748
    1HEX    H2G74737  29.923  60.099  45.088
    1HEX    H2H74738  29.958   0.062  45.195
    1HEX    H2I74739  29.682  60.083  45.406
    1HEX    H2J74740  29.616  59.929  45.355
    1HEX    H2K74741  29.588  60.069  45.119
    1HEX    H2M74742  29.572   0.042  45.229
    1STR    S0074743  30.247  60.145  44.234
    1STR    S0E74744  29.939   0.783  44.990
    1STR    S0M74745  29.828  59.509  44.700
    1STR    S0X74746  30.848  60.027  45.155
    1STR    S1474747  30.114  60.158  45.888
    1STR    S1B74748  29.382  60.053  45.241
    1HEX    C0174749  30.235  14.887  59.387
    1HEX    C0274750  30.261  14.930  59.532
    1HEX    C0374751  30.135  14.905  59.614
    1HEX    O0474752  30.091  14.791  59.624
    1HEX    O0574753  30.078  15.017  59.661
    1HEX    C0674754  29.941  15.015  59.698
    1HEX    C0774755  29.914  15.008  59.851
    1HEX    C0874756  29.940  15.148  59.915
    1HEX    O0974757  29.874  15.271  59.882
    1HEX    C0A74758  29.887  15.374  59.975
    1HEX    O0B74759  29.904  15.356  60.095
    1HEX    C0C74760  29.885  15.518  59.918
    1HEX    C0D74761  29.851  15.632  60.021
    1HEX    C0F74762  29.767  14.956  59.871
    1HEX    O0G74763  29.764  14.813  59.888
    1HEX    C0H74764  29.725  14.727  59.792
    1HEX    O0I74765  29.667  14.758  59.688
    1HEX    C0J74766  29.764  14.581  59.822
    1HEX    C0K74767  29.654  14.495  59.889
    1HEX    C0N74768  30.010  14.903  59.921
    1HEX    O0O74769  30.143  14.942  59.960
    1HEX    C0P74770  30.174  15.021  60.077
    1HEX    C0Q74771  30.134  14.972   0.060
    1HEX    C0R74772  30.196  14.830   0.081
    1HEX    O0S74773  30.338  14.827   0.054
    1HEX    C0T74774  30.432  14.832   0.155
    1HEX    O0U74775  30.405  14.845   0.274
    1HEX    C0V74776  30.578  14.812   0.109
    1HEX    C0W74777  30.637  14.919   0.013
    1HEX    C0Y74778  30.198  15.068   0.163
    1HEX    O0Z74779  30.163  15.030   0.295
    1HEX    C1074780  30.214  15.100   0.397
    1HEX    O1174781  30.286  15.199   0.386
    1HEX    C1274782  30.172  15.045   0.534
    1HEX    C1374783  30.239  15.124   0.648
    1HEX    C1574784  29.978  14.989   0.078
    1HEX    O1674785  29.907  14.938   0.191
    1HEX    C1774786  29.792  14.870   0.167
    1HEX    O1874787  29.777  14.788   0.077
    1HEX    C1974788  29.672  14.911   0.254
    1HEX    C1A74789  29.566  14.984   0.167
    1HEX    H1D74790  30.302  14.806  59.357
    1HEX    H1E74791  30.134  14.846  59.378
    1HEX    H1F74792  30.291  15.034  59.541
    1HEX    H1G74793  30.341  14.870  59.576
    1HEX    H1H74794  29.891  14.932  59.646
    1HEX    H1I74795  29.895  15.105  59.656
    1HEX    H1J74796  30.044  15.172  59.893
    1HEX    H1K74797  29.929  15.134  60.022
    1HEX    H1M74798  29.813  15.520  59.836
    1HEX    H1N74799  29.982  15.536  59.872
    1HEX    H1O74800  29.816  15.587  60.114
    1HEX    H1P74801  29.768  15.692  59.984
    1HEX    H1R74802  29.702  14.988  59.789
    1HEX    H1S74803  29.724  15.000  59.960
    1HEX    H1T74804  29.856  14.581  59.881
    1HEX    H1U74805  29.791  14.534  59.727
    1HEX    H1V74806  29.609  14.428  59.816
    1HEX    H1W74807  29.574  14.560  59.924
    1HEX    H1Y74808  30.024  14.821  59.850
    1HEX    H1Z74809  29.965  14.845  60.000
    1HEX    H2074810  30.147  15.125  60.066
    1HEX    H2174811  30.283  15.025  60.074
    1HEX    H2274812  30.147  14.760   0.013
    1HEX    H2374813  30.174  14.794   0.182
    1HEX    H2474814  30.584  14.714   0.062
    1HEX    H2574815  30.640  14.805   0.198
    1HEX    H2674816  30.559  14.992  60.151
    1HEX    H2774817  30.662  14.873  60.077
    1HEX    H2974818  30.166  15.171   0.146
    1HEX    H2A74819  30.306  15.070   0.153
    1HEX    H2B74820  30.199  14.940   0.537
    1HEX    H2C74821  30.063  15.051   0.541
    1HEX    H2D74822  30.200  15.226   0.651
    1HEX    H2E74823  30.346  15.133   0.625
    1HEX    H2G74824  29.923  14.960  60.151
    1HEX    H2H74825  29.958  15.096   0.082
    1HEX    H2I74826  29.705  14.972   0.338
    1HEX    H2J74827  29.629  14.820   0.295
    1HEX    H2K74828  29.555  14.935   0.071
    1HEX    H2M74829  29.599  15.086   0.145
    1STR    S0074830  30.243  15.022  59.266
    1STR    S0E74831  29.987  15.747  60.069
    1STR    S0M74832  29.706  14.392  60.034
    1STR    S0X74833  30.785  15.016   0.068
    1STR    S1474834  30.227  15.050   0.815
    1STR    S1B74835  29.399  14.995   0.242
    1HEX    C0174836  30.323  14.944  14.283
    1HEX    C0274837  30.281  14.932  14.432
    1HEX    C0374838  30.134  14.911  14.462
    1HEX    O0474839  30.080  14.801  14.445
    1HEX    O0574840  30.077  15.019  14.520
    1HEX    C0674841  29.941  15.014  14.562
    1HEX    C0774842  29.924  14.994  14.715
    1HEX    C0874843  29.926  15.134  14.788
    1HEX    O0974844  29.870  15.261  14.747
    1HEX    C0A74845  29.886  15.365  14.840
    1HEX    O0B74846  29.909  15.346  14.960
    1HEX    C0C74847  29.882  15.511  14.788
    1HEX    C0D74848  29.908  15.617  14.902
    1HEX    C0F74849  29.791  14.912  14.737
    1HEX    O0G74850  29.820  14.769  14.740
    1HEX    C0H74851  29.793  14.686  14.638
    1HEX    O0I74852  29.714  14.710  14.547
    1HEX    C0J74853  29.879  14.557  14.637
    1HEX    C0K74854  29.874  14.464  14.763
    1HEX    C0N74855  30.038  14.903  14.778
    1HEX    O0O74856  30.165  14.957  14.815
    1HEX    C0P74857  30.191  15.026  14.939
    1HEX    C0Q74858  30.145  14.972  15.079
    1HEX    C0R74859  30.202  14.829  15.101
    1HEX    O0S74860  30.343  14.817  15.073
    1HEX    C0T74861  30.436  14.823  15.172
    1HEX    O0U74862  30.413  14.848  15.290
    1HEX    C0V74863  30.579  14.789  15.127
    1HEX    C0W74864  30.670  14.910  15.097
    1HEX    C0Y74865  30.209  15.068  15.182
    1HEX    O0Z74866  30.168  15.037  15.314
    1HEX    C1074867  30.224  15.103  15.416
    1HEX    O1174868  30.315  15.186  15.407
    1HEX    C1274869  30.156  15.069  15.548
    1HEX    C1374870  30.244  15.100  15.671
    1HEX    C1574871  29.989  14.984  15.095
    1HEX    O1674872  29.920  14.921  15.204
    1HEX    C1774873  29.798  14.862  15.179
    1HEX    O1874874  29.764  14.814  15.071
    1HEX    C1974875  29.700  14.864  15.296
    1HEX    C1A74876  29.568  14.940  15.263
    1HEX    H1D74877  30.397  14.866  14.262
    1HEX    H1E74878  30.373  15.039  14.267
    1HEX    H1F74879  30.314  15.021  14.486
    1HEX    H1G74880  30.333  14.848  14.478
    1HEX    H1H74881  29.888  14.937  14.505
    1HEX    H1I74882  29.894  15.107  14.530
    1HEX    H1J74883  30.031  15.163  14.786
    1HEX    H1K74884  29.895  15.119  14.890
    1HEX    H1M74885  29.786  15.529  14.739
    1HEX    H1N74886  29.959  15.520  14.711
    1HEX    H1O74887  30.000  15.593  14.955
    1HEX    H1P74888  29.829  15.610  14.976
    1HEX    H1R74889  29.714  14.936  14.663
    1HEX    H1S74890  29.746  14.936  14.833
    1HEX    H1T74891  29.981  14.589  14.619
    1HEX    H1U74892  29.851  14.499  14.549
    1HEX    H1V74893  29.781  14.407  14.764
    1HEX    H1W74894  29.872  14.524  14.855
    1HEX    H1Y74895  30.061  14.828  14.702
    1HEX    H1Z74896  30.004  14.838  14.858
    1HEX    H2074897  30.163  15.131  14.933
    1HEX    H2174898  30.300  15.031  14.941
    1HEX    H2274899  30.150  14.758  15.037
    1HEX    H2374900  30.180  14.796  15.203
    1HEX    H2474901  30.575  14.720  15.042
    1HEX    H2574902  30.621  14.732  15.209
    1HEX    H2674903  30.640  14.998  15.154
    1HEX    H2774904  30.662  14.938  14.991
    1HEX    H2974905  30.181  15.172  15.162
    1HEX    H2A74906  30.318  15.066  15.177
    1HEX    H2B74907  30.127  14.964  15.547
    1HEX    H2C74908  30.065  15.128  15.551
    1HEX    H2D74909  30.298  15.194  15.661
    1HEX    H2E74910  30.320  15.022  15.682
    1HEX    H2G74911  29.940  14.953  15.005
    1HEX    H2H74912  29.964  15.090  15.103
    1HEX    H2I74913  29.750  14.914  15.379
    1HEX    H2J74914  29.679  14.762  15.329
    1HEX    H2K74915  29.584  15.009  15.180
    1HEX    H2M74916  29.538  15.003  15.347
    1STR    S0074917  30.195  14.928  14.154
    1STR    S0E74918  29.918  15.795  14.850
    1STR    S0M74919  30.017  14.346  14.770
    1STR    S0X74920  30.846  14.872  15.136
    1STR    S1474921  30.137  15.108  15.819
    1STR    S1B74922  29.424  14.835  15.219
    1HEX    C0174923  30.348  14.957  29.374
    1HEX    C0274924  30.306  15.007  29.513
    1HEX    C0374925  30.163  14.968  29.545
    1HEX    O0474926  30.128  14.850  29.539
    1HEX    O0574927  30.088  15.073  29.580
    1HEX    C0674928  29.948  15.058  29.594
    1HEX    C0774929  29.903  15.040  29.742
    1HEX    C0874930  29.924  15.172  29.822
    1HEX    O0974931  29.876  15.304  29.790
    1HEX    C0A74932  29.897  15.400  29.888
    1HEX    O0B74933  29.920  15.372  30.006
    1HEX    C0C74934  29.898  15.548  29.844
    1HEX    C0D74935  29.963  15.641  29.952
    1HEX    C0F74936  29.754  14.991  29.739
    1HEX    O0G74937  29.750  14.848  29.717
    1HEX    C0H74938  29.721  14.794  29.597
    1HEX    O0I74939  29.668  14.855  29.504
    1HEX    C0J74940  29.767  14.648  29.580
    1HEX    C0K74941  29.758  14.561  29.708
    1HEX    C0N74942  29.985  14.925  29.814
    1HEX    O0O74943  30.119  14.944  29.866
    1HEX    C0P74944  30.158  15.018  29.984
    1HEX    C0Q74945  30.123  14.970  30.130
    1HEX    C0R74946  30.193  14.834  30.158
    1HEX    O0S74947  30.335  14.834  30.127
    1HEX    C0T74948  30.431  14.843  30.223
    1HEX    O0U74949  30.410  14.863  30.342
    1HEX    C0V74950  30.574  14.821  30.171
    1HEX    C0W74951  30.665  14.946  30.182
    1HEX    C0Y74952  30.178  15.076  30.228
    1HEX    O0Z74953  30.146  15.039  30.361
    1HEX    C1074954  30.203  15.104  30.462
    1HEX    O1174955  30.284  15.197  30.452
    1HEX    C1274956  30.155  15.052  30.597
    1HEX    C1374957  30.257  15.080  30.708
    1HEX    C1574958  29.967  14.967  30.139
    1HEX    O1674959  29.886  14.945  30.256
    1HEX    C1774960  29.766  14.881  30.235
    1HEX    O1874961  29.752  14.782  30.163
    1HEX    C1974962  29.642  14.946  30.298
    1HEX    C1A74963  29.551  15.008  30.187
    1HEX    H1D74964  30.456  14.965  29.364
    1HEX    H1E74965  30.324  14.851  29.366
    1HEX    H1F74966  30.317  15.115  29.522
    1HEX    H1G74967  30.367  14.961  29.590
    1HEX    H1H74968  29.913  14.976  29.531
    1HEX    H1I74969  29.901  15.147  29.552
    1HEX    H1J74970  30.031  15.189  29.818
    1HEX    H1K74971  29.894  15.150  29.923
    1HEX    H1M74972  29.796  15.578  29.822
    1HEX    H1N74973  29.954  15.556  29.750
    1HEX    H1O74974  30.070  15.619  29.961
    1HEX    H1P74975  29.921  15.617  30.050
    1HEX    H1R74976  29.695  15.045  29.665
    1HEX    H1S74977  29.706  15.010  29.835
    1HEX    H1T74978  29.869  14.650  29.544
    1HEX    H1U74979  29.707  14.604  29.500
    1HEX    H1V74980  29.659  14.573  29.753
    1HEX    H1W74981  29.830  14.595  29.782
    1HEX    H1Y74982  29.998  14.847  29.740
    1HEX    H1Z74983  29.921  14.870  29.881
    1HEX    H2074984  30.134  15.123  29.976
    1HEX    H2174985  30.267  15.019  29.977
    1HEX    H2274986  30.147  14.757  30.096
    1HEX    H2374987  30.176  14.803  30.261
    1HEX    H2474988  30.570  14.782  30.069
    1HEX    H2574989  30.616  14.741  30.232
    1HEX    H2674990  30.664  14.983  30.284
    1HEX    H2774991  30.626  15.026  30.119
    1HEX    H2974992  30.139  15.175  30.208
    1HEX    H2A74993  30.287  15.084  30.218
    1HEX    H2B74994  30.140  14.944  30.586
    1HEX    H2C74995  30.059  15.096  30.620
    1HEX    H2D74996  30.263  15.188  30.726
    1HEX    H2E74997  30.356  15.049  30.675
    1HEX    H2G74998  29.938  14.890  30.071
    1HEX    H2H74999  29.930  15.062  30.104
    1HEX    H2I75000  29.671  15.019  30.373
    1HEX    H2J75001  29.589  14.866  30.349
    1HEX    H2K75002  29.571  14.960  30.091
    1HEX    H2M75003  29.576  15.113  30.172
    1STR    S0075004  30.271  15.045  29.233
    1STR    S0E75005  29.940  15.824  29.934
    1STR    S0M75006  29.782  14.383  29.671
    1STR    S0X75007  30.840  14.913  30.131
    1STR    S1475008  30.215  14.993  30.863
    1STR    S1B75009  29.369  14.996  30.213
    1HEX    C0175010  30.301  14.859  44.395
    1HEX    C0275011  30.281  14.897  44.543
    1HEX    C0375012  30.136  14.879  44.585
    1HEX    O0475013  30.084  14.767  44.583
    1HEX    O0575014  30.077  14.993  44.626
    1HEX    C0675015  29.940  14.991  44.665
    1HEX    C0775016  29.918  14.987  44.819
    1HEX    C0875017  29.940  15.130  44.878
    1HEX    O0975018  29.869  15.251  44.844
    1HEX    C0A75019  29.871  15.350  44.941
    1HEX    O0B75020  29.868  15.328  45.062
    1HEX    C0C75021  29.886  15.495  44.889
    1HEX    C0D75022  29.881  15.606  45.000
    1HEX    C0F75023  29.775  14.927  44.845
    1HEX    O0G75024  29.782  14.783  44.862
    1HEX    C0H75025  29.747  14.697  44.765
    1HEX    O0I75026  29.684  14.727  44.664
    1HEX    C0J75027  29.800  14.553  44.785
    1HEX    C0K75028  29.785  14.491  44.927
    1HEX    C0N75029  30.021  14.890  44.891
    1HEX    O0O75030  30.152  14.938  44.926
    1HEX    C0P75031  30.182  15.020  45.041
    1HEX    C0Q75032  30.142  14.976  45.186
    1HEX    C0R75033  30.197  14.833  45.211
    1HEX    O0S75034  30.338  14.822  45.180
    1HEX    C0T75035  30.435  14.829  45.275
    1HEX    O0U75036  30.415  14.849  45.395
    1HEX    C0V75037  30.577  14.806  45.222
    1HEX    C0W75038  30.643  14.927  45.151
    1HEX    C0Y75039  30.208  15.074  45.287
    1HEX    O0Z75040  30.168  15.041  45.419
    1HEX    C1075041  30.215  15.111  45.523
    1HEX    O1175042  30.298  15.201  45.515
    1HEX    C1275043  30.151  15.069  45.655
    1HEX    C1375044  30.248  15.076  45.776
    1HEX    C1575045  29.987  14.995  45.205
    1HEX    O1675046  29.921  14.949  45.323
    1HEX    C1775047  29.803  14.885  45.307
    1HEX    O1875048  29.778  14.804  45.218
    1HEX    C1975049  29.694  14.932  45.404
    1HEX    C1A75050  29.593  15.022  45.329
    1HEX    H1D75051  30.392  14.801  44.382
    1HEX    H1E75052  30.220  14.796  44.359
    1HEX    H1F75053  30.314  14.998  44.564
    1HEX    H1G75054  30.339  14.831  44.606
    1HEX    H1H75055  29.889  14.908  44.615
    1HEX    H1I75056  29.892  15.080  44.623
    1HEX    H1J75057  30.042  15.157  44.853
    1HEX    H1K75058  29.933  15.118  44.984
    1HEX    H1M75059  29.810  15.514  44.813
    1HEX    H1N75060  29.982  15.498  44.838
    1HEX    H1O75061  29.894  15.565  45.100
    1HEX    H1P75062  29.781  15.650  45.002
    1HEX    H1R75063  29.704  14.955  44.767
    1HEX    H1S75064  29.733  14.968  44.937
    1HEX    H1T75065  29.906  14.555  44.757
    1HEX    H1U75066  29.751  14.490  44.712
    1HEX    H1V75067  29.680  14.492  44.959
    1HEX    H1W75068  29.839  14.550  45.001
    1HEX    H1Y75069  30.037  14.807  44.823
    1HEX    H1Z75070  29.979  14.835  44.975
    1HEX    H2075071  30.153  15.124  45.026
    1HEX    H2175072  30.291  15.026  45.038
    1HEX    H2275073  30.143  14.762  45.149
    1HEX    H2375074  30.177  14.802  45.314
    1HEX    H2475075  30.574  14.720  45.155
    1HEX    H2575076  30.638  14.775  45.307
    1HEX    H2675077  30.571  15.009  45.148
    1HEX    H2775078  30.665  14.903  45.047
    1HEX    H2975079  30.180  15.177  45.266
    1HEX    H2A75080  30.317  15.071  45.280
    1HEX    H2B75081  30.110  14.968  45.645
    1HEX    H2C75082  30.066  15.136  45.670
    1HEX    H2D75083  30.333  15.140  45.752
    1HEX    H2E75084  30.289  14.977  45.798
    1HEX    H2G75085  29.932  14.958  45.121
    1HEX    H2H75086  29.966  15.102  45.203
    1HEX    H2I75087  29.738  14.982  45.490
    1HEX    H2J75088  29.644  14.842  45.440
    1HEX    H2K75089  29.574  14.979  45.230
    1HEX    H2M75090  29.632  15.122  45.311
    1STR    S0075091  30.315  15.008  44.291
    1STR    S0E75092  30.007  15.740  44.984
    1STR    S0M75093  29.847  14.317  44.929
    1STR    S0X75094  30.797  14.991  45.230
    1STR    S1475095  30.170  15.147  45.926
    1STR    S1B75096  29.432  15.034  45.415
    1HEX    C0175097  30.354  29.934  59.477
    1HEX    C0275098  30.282  29.926  59.614
    1HEX    C0375099  30.131  29.934  59.609
    1HEX    O0475100  30.064  29.835  59.580
    1HEX    O0575101  30.084  30.054  59.650
    1HEX    C0675102  29.945  30.070  59.676
    1HEX    C0775103  29.911  30.055  59.828
    1HEX    C0875104  29.926  30.194  59.902
    1HEX    O0975105  29.869  30.324  59.873
    1HEX    C0A75106  29.888  30.422  59.973
    1HEX    O0B75107  29.913  30.393  60.091
    1HEX    C0C75108  29.881  30.572  59.933
    1HEX    C0D75109  29.927  30.668  60.050
    1HEX    C0F75110  29.770  29.986  59.837
    1HEX    O0G75111  29.786  29.843  59.822
    1HEX    C0H75112  29.729  29.770  59.723
    1HEX    O0I75113  29.636  29.810  59.653
    1HEX    C0J75114  29.796  29.634  59.697
    1HEX    C0K75115  29.802  29.530  59.813
    1HEX    C0N75116  30.008  29.951  59.899
    1HEX    O0O75117  30.142  29.988  59.935
    1HEX    C0P75118  30.177  30.065  60.052
    1HEX    C0Q75119  30.138  30.018   0.036
    1HEX    C0R75120  30.198  29.876   0.060
    1HEX    O0S75121  30.339  29.866   0.026
    1HEX    C0T75122  30.438  29.877   0.120
    1HEX    O0U75123  30.420  29.903   0.239
    1HEX    C0V75124  30.580  29.847   0.068
    1HEX    C0W75125  30.673  29.972   0.049
    1HEX    C0Y75126  30.205  30.117   0.134
    1HEX    O0Z75127  30.162  30.086   0.265
    1HEX    C1075128  30.214  30.150   0.369
    1HEX    O1175129  30.305  30.232   0.364
    1HEX    C1275130  30.144  30.111   0.497
    1HEX    C1375131  30.217  30.159   0.623
    1HEX    C1575132  29.983  30.034   0.058
    1HEX    O1675133  29.909  29.972   0.164
    1HEX    C1775134  29.800  29.898   0.130
    1HEX    O1875135  29.795  29.823   0.032
    1HEX    C1975136  29.674  29.923   0.214
    1HEX    C1A75137  29.567  30.000   0.130
    1HEX    H1D75138  30.314  29.833  59.466
    1HEX    H1E75139  30.307  30.030  59.457
    1HEX    H1F75140  30.317  30.006  59.679
    1HEX    H1G75141  30.308  29.834  59.668
    1HEX    H1H75142  29.888  29.999  59.615
    1HEX    H1I75143  29.914  30.168  59.640
    1HEX    H1J75144  30.031  30.218  59.889
    1HEX    H1K75145  29.907  30.175  60.006
    1HEX    H1M75146  29.780  30.595  59.901
    1HEX    H1N75147  29.946  30.586  59.847
    1HEX    H1O75148  30.030  30.646  60.078
    1HEX    H1P75149  29.868  30.647  60.139
    1HEX    H1R75150  29.699  30.027  59.764
    1HEX    H1S75151  29.724  30.003  59.934
    1HEX    H1T75152  29.897  29.657  59.664
    1HEX    H1U75153  29.747  29.589  59.610
    1HEX    H1V75154  29.703  29.492  59.836
    1HEX    H1W75155  29.840  29.576  59.904
    1HEX    H1Y75156  30.023  29.868  59.829
    1HEX    H1Z75157  29.961  29.893  59.978
    1HEX    H2075158  30.151  30.170  60.042
    1HEX    H2175159  30.286  30.067  60.048
    1HEX    H2275160  30.145  29.803  60.160
    1HEX    H2375161  30.182  29.845   0.164
    1HEX    H2475162  30.574  29.788  60.137
    1HEX    H2575163  30.625  29.783   0.144
    1HEX    H2675164  30.660  30.043   0.131
    1HEX    H2775165  30.645  30.025  60.118
    1HEX    H2975166  30.178  30.220   0.112
    1HEX    H2A75167  30.314  30.113   0.128
    1HEX    H2B75168  30.134  30.002   0.498
    1HEX    H2C75169  30.044  30.153   0.492
    1HEX    H2D75170  30.239  30.266   0.619
    1HEX    H2E75171  30.313  30.108   0.633
    1HEX    H2G75172  29.928  30.013  60.128
    1HEX    H2H75173  29.963  30.141   0.071
    1HEX    H2I75174  29.699  29.976   0.306
    1HEX    H2J75175  29.635  29.825   0.242
    1HEX    H2K75176  29.583  29.980   0.024
    1HEX    H2M75177  29.581  30.107   0.141
    1STR    S0075178  30.306  29.899  59.304
    1STR    S0E75179  29.915  30.852  60.023
    1STR    S0M75180  29.912  29.387  59.766
    1STR    S0X75181  30.851  29.924   0.038
    1STR    S1475182  30.114  30.124   0.768
    1STR    S1B75183  29.391  29.962   0.168
    1HEX    C0175184  30.271  29.912  14.320
    1HEX    C0275185  30.257  29.901  14.472
    1HEX    C0375186  30.111  29.913  14.510
    1HEX    O0475187  30.035  29.818  14.494
    1HEX    O0575188  30.078  30.035  14.556
    1HEX    C0675189  29.941  30.068  14.576
    1HEX    C0775190  29.896  30.060  14.725
    1HEX    C0875191  29.922  30.197  14.796
    1HEX    O0975192  29.871  30.326  14.757
    1HEX    C0A75193  29.897  30.431  14.845
    1HEX    O0B75194  29.922  30.416  14.964
    1HEX    C0C75195  29.899  30.573  14.783
    1HEX    C0D75196  29.864  30.692  14.879
    1HEX    C0F75197  29.746  30.016  14.726
    1HEX    O0G75198  29.738  29.873  14.704
    1HEX    C0H75199  29.696  29.819  14.588
    1HEX    O0I75200  29.636  29.880  14.500
    1HEX    C0J75201  29.734  29.671  14.570
    1HEX    C0K75202  29.723  29.587  14.698
    1HEX    C0N75203  29.974  29.947  14.804
    1HEX    O0O75204  30.110  29.970  14.849
    1HEX    C0P75205  30.151  30.053  14.960
    1HEX    C0Q75206  30.114  30.016  15.107
    1HEX    C0R75207  30.167  29.873  15.136
    1HEX    O0S75208  30.305  29.855  15.094
    1HEX    C0T75209  30.412  29.865  15.177
    1HEX    O0U75210  30.406  29.891  15.297
    1HEX    C0V75211  30.548  29.833  15.110
    1HEX    C0W75212  30.669  29.917  15.165
    1HEX    C0Y75213  30.187  30.116  15.202
    1HEX    O0Z75214  30.153  30.094  15.338
    1HEX    C1075215  30.213  30.168  15.434
    1HEX    O1175216  30.299  30.253  15.413
    1HEX    C1275217  30.161  30.139  15.575
    1HEX    C1375218  30.273  30.097  15.673
    1HEX    C1575219  29.960  30.043  15.125
    1HEX    O1675220  29.883  29.990  15.234
    1HEX    C1775221  29.768  29.925  15.202
    1HEX    O1875222  29.757  29.844  15.110
    1HEX    C1975223  29.644  29.970  15.280
    1HEX    C1A75224  29.548  30.051  15.188
    1HEX    H1D75225  30.367  29.875  14.285
    1HEX    H1E75226  30.194  29.853  14.269
    1HEX    H1F75227  30.315  29.977  14.525
    1HEX    H1G75228  30.292  29.804  14.508
    1HEX    H1H75229  29.879  30.004  14.512
    1HEX    H1I75230  29.923  30.168  14.537
    1HEX    H1J75231  30.028  30.214  14.782
    1HEX    H1K75232  29.900  30.184  14.901
    1HEX    H1M75233  29.827  30.572  14.701
    1HEX    H1N75234  29.997  30.589  14.737
    1HEX    H1O75235  29.810  30.652  14.965
    1HEX    H1P75236  29.796  30.761  14.831
    1HEX    H1R75237  29.686  30.071  14.652
    1HEX    H1S75238  29.700  30.037  14.822
    1HEX    H1T75239  29.837  29.670  14.535
    1HEX    H1U75240  29.673  29.628  14.490
    1HEX    H1V75241  29.620  29.580  14.732
    1HEX    H1W75242  29.778  29.635  14.779
    1HEX    H1Y75243  29.983  29.863  14.736
    1HEX    H1Z75244  29.914  29.899  14.880
    1HEX    H2075245  30.131  30.158  14.945
    1HEX    H2175246  30.260  30.050  14.952
    1HEX    H2275247  30.106  29.801  15.081
    1HEX    H2375248  30.154  29.847  15.241
    1HEX    H2475249  30.536  29.843  15.002
    1HEX    H2575250  30.567  29.728  15.130
    1HEX    H2675251  30.635  30.012  15.206
    1HEX    H2775252  30.708  29.860  15.249
    1HEX    H2975253  30.162  30.219  15.176
    1HEX    H2A75254  30.295  30.109  15.190
    1HEX    H2B75255  30.085  30.061  15.569
    1HEX    H2C75256  30.110  30.229  15.609
    1HEX    H2D75257  30.370  30.118  15.627
    1HEX    H2E75258  30.271  29.990  15.690
    1HEX    H2G75259  29.907  30.019  15.035
    1HEX    H2H75260  29.945  30.151  15.131
    1HEX    H2I75261  29.674  30.028  15.367
    1HEX    H2J75262  29.595  29.880  15.317
    1HEX    H2K75263  29.570  30.032  15.082
    1HEX    H2M75264  29.565  30.158  15.202
    1STR    S0075265  30.251  30.086  14.275
    1STR    S0E75266  30.002  30.793  14.950
    1STR    S0M75267  29.787  29.416  14.675
    1STR    S0X75268  30.817  29.957  15.061
    1STR    S1475269  30.275  30.185  15.834
    1STR    S1B75270  29.368  30.018  15.209
    1HEX    C0175271  30.320  29.934  29.337
    1HEX    C0275272  30.280  29.983  29.478
    1HEX    C0375273  30.139  29.944  29.519
    1HEX    O0475274  30.100  29.827  29.511
    1HEX    O0575275  30.069  30.049  29.568
    1HEX    C0675276  29.935  30.031  29.612
    1HEX    C0775277  29.923  30.022  29.766
    1HEX    C0875278  29.935  30.165  29.829
    1HEX    O0975279  29.872  30.289  29.789
    1HEX    C0A75280  29.884  30.394  29.880
    1HEX    O0B75281  29.897  30.378  30.001
    1HEX    C0C75282  29.891  30.538  29.822
    1HEX    C0D75283  29.909  30.648  29.934
    1HEX    C0F75284  29.788  29.946  29.798
    1HEX    O0G75285  29.810  29.804  29.811
    1HEX    C0H75286  29.778  29.714  29.716
    1HEX    O0I75287  29.704  29.739  29.620
    1HEX    C0J75288  29.847  29.576  29.729
    1HEX    C0K75289  29.859  29.513  29.871
    1HEX    C0N75290  30.036  29.931  29.830
    1HEX    O0O75291  30.164  29.987  29.865
    1HEX    C0P75292  30.188  30.062  29.987
    1HEX    C0Q75293  30.145  30.011  30.128
    1HEX    C0R75294  30.201  29.868  30.152
    1HEX    O0S75295  30.342  29.857  30.124
    1HEX    C0T75296  30.434  29.861  30.223
    1HEX    O0U75297  30.410  29.883  30.342
    1HEX    C0V75298  30.577  29.830  30.178
    1HEX    C0W75299  30.662  29.955  30.140
    1HEX    C0Y75300  30.209  30.108  30.231
    1HEX    O0Z75301  30.169  30.076  30.363
    1HEX    C1075302  30.228  30.139  30.465
    1HEX    O1175303  30.319  30.221  30.456
    1HEX    C1275304  30.164  30.102  30.599
    1HEX    C1375305  30.254  30.132  30.721
    1HEX    C1575306  29.989  30.024  30.146
    1HEX    O1675307  29.924  29.970  30.261
    1HEX    C1775308  29.802  29.911  30.245
    1HEX    O1875309  29.764  29.853  30.143
    1HEX    C1975310  29.707  29.929  30.363
    1HEX    C1A75311  29.582  30.013  30.323
    1HEX    H1D75312  30.338  29.827  29.340
    1HEX    H1E75313  30.413  29.983  29.307
    1HEX    H1F75314  30.288  30.092  29.484
    1HEX    H1G75315  30.348  29.943  29.552
    1HEX    H1H75316  29.891  29.944  29.562
    1HEX    H1I75317  29.877  30.116  29.575
    1HEX    H1J75318  30.038  30.194  29.813
    1HEX    H1K75319  29.917  30.154  29.935
    1HEX    H1M75320  29.802  30.557  29.763
    1HEX    H1N75321  29.976  30.540  29.754
    1HEX    H1O75322  29.982  30.616  30.009
    1HEX    H1P75323  29.816  30.661  29.988
    1HEX    H1R75324  29.710  29.968  29.724
    1HEX    H1S75325  29.746  29.981  29.892
    1HEX    H1T75326  29.946  29.587  29.685
    1HEX    H1U75327  29.793  29.508  29.663
    1HEX    H1V75328  29.763  29.515  29.922
    1HEX    H1W75329  29.927  29.571  29.933
    1HEX    H1Y75330  30.058  29.853  29.757
    1HEX    H1Z75331  30.004  29.870  29.913
    1HEX    H2075332  30.158  30.166  29.976
    1HEX    H2175333  30.297  30.069  29.987
    1HEX    H2275334  30.149  29.797  30.087
    1HEX    H2375335  30.178  29.835  30.253
    1HEX    H2475336  30.574  29.758  30.096
    1HEX    H2575337  30.623  29.779  30.262
    1HEX    H2675338  30.615  30.046  30.176
    1HEX    H2775339  30.669  29.963  30.032
    1HEX    H2975340  30.180  30.211  30.210
    1HEX    H2A75341  30.318  30.106  30.224
    1HEX    H2B75342  30.136  29.997  30.597
    1HEX    H2C75343  30.072  30.159  30.604
    1HEX    H2D75344  30.315  30.221  30.703
    1HEX    H2E75345  30.325  30.050  30.737
    1HEX    H2G75346  29.938  29.986  30.059
    1HEX    H2H75347  29.964  30.130  30.147
    1HEX    H2I75348  29.761  29.977  30.445
    1HEX    H2J75349  29.677  29.831  30.398
    1HEX    H2K75350  29.590  30.044  30.218
    1HEX    H2M75351  29.576  30.106  30.380
    1STR    S0075352  30.196  29.964  29.206
    1STR    S0E75353  29.963  30.814  29.874
    1STR    S0M75354  29.917  29.337  29.862
    1STR    S0X75355  30.832  29.947  30.212
    1STR    S1475356  30.153  30.163  30.870
    1STR    S1B75357  29.424  29.924  30.340
    1HEX    C0175358  30.309  29.952  44.373
    1HEX    C0275359  30.297  30.006  44.517
    1HEX    C0375360  30.158  29.980  44.572
    1HEX    O0475361  30.111  29.866  44.573
    1HEX    O0575362  30.096  30.092  44.616
    1HEX    C0675363  29.956  30.090  44.639
    1HEX    C0775364  29.916  30.076  44.788
    1HEX    C0875365  29.940  30.212  44.863
    1HEX    O0975366  29.884  30.342  44.835
    1HEX    C0A75367  29.903  30.439  44.935
    1HEX    O0B75368  29.924  30.410  45.053
    1HEX    C0C75369  29.902  30.588  44.893
    1HEX    C0D75370  29.965  30.681  45.004
    1HEX    C0F75371  29.767  30.026  44.793
    1HEX    O0G75372  29.763  29.882  44.778
    1HEX    C0H75373  29.737  29.823  44.659
    1HEX    O0I75374  29.683  29.880  44.564
    1HEX    C0J75375  29.786  29.678  44.645
    1HEX    C0K75376  29.821  29.599  44.774
    1HEX    C0N75377  30.000  29.962  44.860
    1HEX    O0O75378  30.135  29.986  44.903
    1HEX    C0P75379  30.172  30.064  45.018
    1HEX    C0Q75380  30.132  30.021  45.162
    1HEX    C0R75381  30.192  29.880  45.190
    1HEX    O0S75382  30.334  29.872  45.158
    1HEX    C0T75383  30.433  29.884  45.253
    1HEX    O0U75384  30.414  29.905  45.372
    1HEX    C0V75385  30.576  29.863  45.199
    1HEX    C0W75386  30.668  29.990  45.203
    1HEX    C0Y75387  30.198  30.121  45.260
    1HEX    O0Z75388  30.153  30.088  45.389
    1HEX    C1075389  30.208  30.143  45.496
    1HEX    O1175390  30.297  30.228  45.496
    1HEX    C1275391  30.143  30.090  45.622
    1HEX    C1375392  30.224  30.122  45.747
    1HEX    C1575393  29.976  30.041  45.181
    1HEX    O1675394  29.897  29.979  45.283
    1HEX    C1775395  29.783  29.914  45.243
    1HEX    O1875396  29.780  29.836  45.149
    1HEX    C1975397  29.653  29.956  45.314
    1HEX    C1A75398  29.557  30.028  45.213
    1HEX    H1D75399  30.412  29.923  44.352
    1HEX    H1E75400  30.250  29.861  44.362
    1HEX    H1F75401  30.321  30.112  44.523
    1HEX    H1G75402  30.365  29.953  44.582
    1HEX    H1H75403  29.911  30.011  44.577
    1HEX    H1I75404  29.914  30.182  44.597
    1HEX    H1J75405  30.046  30.232  44.847
    1HEX    H1K75406  29.924  30.192  44.967
    1HEX    H1M75407  29.800  30.617  44.870
    1HEX    H1N75408  29.959  30.597  44.800
    1HEX    H1O75409  30.070  30.655  45.017
    1HEX    H1P75410  29.919  30.659  45.100
    1HEX    H1R75411  29.705  30.076  44.718
    1HEX    H1S75412  29.721  30.050  44.888
    1HEX    H1T75413  29.875  29.685  44.583
    1HEX    H1U75414  29.712  29.624  44.587
    1HEX    H1V75415  29.731  29.577  44.832
    1HEX    H1W75416  29.887  29.655  44.840
    1HEX    H1Y75417  30.009  29.881  44.788
    1HEX    H1Z75418  29.944  29.908  44.936
    1HEX    H2075419  30.152  30.170  45.006
    1HEX    H2175420  30.281  30.062  45.013
    1HEX    H2275421  30.140  29.805  45.130
    1HEX    H2375422  30.175  29.850  45.294
    1HEX    H2475423  30.572  29.821  45.099
    1HEX    H2575424  30.621  29.787  45.263
    1HEX    H2675425  30.664  30.037  45.301
    1HEX    H2775426  30.631  30.064  45.132
    1HEX    H2975427  30.171  30.224  45.238
    1HEX    H2A75428  30.307  30.117  45.255
    1HEX    H2B75429  30.133  29.982  45.610
    1HEX    H2C75430  30.043  30.132  45.629
    1HEX    H2D75431  30.227  30.231  45.762
    1HEX    H2E75432  30.328  30.091  45.735
    1HEX    H2G75433  29.923  30.025  45.090
    1HEX    H2H75434  29.958  30.148  45.197
    1HEX    H2I75435  29.675  30.019  45.400
    1HEX    H2J75436  29.607  29.865  45.351
    1HEX    H2K75437  29.585  29.998  45.112
    1HEX    H2M75438  29.572  30.136  45.217
    1STR    S0075439  30.253  30.069  44.245
    1STR    S0E75440  29.950  30.864  44.982
    1STR    S0M75441  29.902  29.440  44.726
    1STR    S0X75442  30.845  29.953  45.162
    1STR    S1475443  30.151  30.038  45.891
    1STR    S1B75444  29.377  29.994  45.230
    1HEX    C0175445  30.256  44.963  59.393
    1HEX    C0275446  30.267  45.010  59.540
    1HEX    C0375447  30.137  44.982  59.613
    1HEX    O0475448  30.095  44.866  59.623
    1HEX    O0575449  30.076  45.092  59.659
    1HEX    C0675450  29.939  45.084  59.699
    1HEX    C0775451  29.917  45.080  59.853
    1HEX    C0875452  29.942  45.222  59.913
    1HEX    O0975453  29.871  45.344  59.883
    1HEX    C0A75454  29.874  45.443  59.980
    1HEX    O0B75455  29.881  45.420  60.101
    1HEX    C0C75456  29.878  45.588  59.928
    1HEX    C0D75457  29.853  45.700  60.036
    1HEX    C0F75458  29.771  45.026  59.877
    1HEX    O0G75459  29.771  44.884  59.904
    1HEX    C0H75460  29.741  44.791  59.811
    1HEX    O0I75461  29.687  44.813  59.703
    1HEX    C0J75462  29.788  44.649  59.850
    1HEX    C0K75463  29.689  44.568  59.938
    1HEX    C0N75464  30.017  44.979  59.923
    1HEX    O0O75465  30.149  45.022  59.959
    1HEX    C0P75466  30.181  45.102  60.076
    1HEX    C0Q75467  30.140  45.056   0.060
    1HEX    C0R75468  30.197  44.913   0.083
    1HEX    O0S75469  30.339  44.904   0.053
    1HEX    C0T75470  30.434  44.909   0.150
    1HEX    O0U75471  30.412  44.927   0.269
    1HEX    C0V75472  30.578  44.886   0.100
    1HEX    C0W75473  30.639  44.998   0.011
    1HEX    C0Y75474  30.206  45.152   0.163
    1HEX    O0Z75475  30.164  45.121   0.295
    1HEX    C1075476  30.212  45.191   0.399
    1HEX    O1175477  30.296  45.281   0.391
    1HEX    C1275478  30.148  45.151   0.532
    1HEX    C1375479  30.248  45.146   0.650
    1HEX    C1575480  29.985  45.076   0.078
    1HEX    O1675481  29.915  45.021   0.190
    1HEX    C1775482  29.803  44.949   0.164
    1HEX    O1875483  29.792  44.868   0.072
    1HEX    C1975484  29.683  44.986   0.251
    1HEX    C1A75485  29.580  45.069   0.170
    1HEX    H1D75486  30.341  44.901  59.365
    1HEX    H1E75487  30.168  44.900  59.380
    1HEX    H1F75488  30.293  45.116  59.548
    1HEX    H1G75489  30.345  44.954  59.591
    1HEX    H1H75490  29.891  44.999  59.650
    1HEX    H1I75491  29.889  45.171  59.656
    1HEX    H1J75492  30.044  45.248  59.887
    1HEX    H1K75493  29.938  45.209  60.020
    1HEX    H1M75494  29.805  45.598  59.847
    1HEX    H1N75495  29.976  45.603  59.882
    1HEX    H1O75496  29.836  45.655  60.134
    1HEX    H1P75497  29.761  45.753  60.014
    1HEX    H1R75498  29.704  45.051  59.795
    1HEX    H1S75499  29.727  45.074  59.964
    1HEX    H1T75500  29.885  44.658  59.899
    1HEX    H1U75501  29.807  44.593  59.757
    1HEX    H1V75502  29.631  44.500  59.876
    1HEX    H1W75503  29.617  44.638  59.982
    1HEX    H1Y75504  30.031  44.896  59.854
    1HEX    H1Z75505  29.974  44.923  60.006
    1HEX    H2075506  30.153  45.206  60.062
    1HEX    H2175507  30.290  45.106  60.073
    1HEX    H2275508  30.145  44.843   0.018
    1HEX    H2375509  30.176  44.880   0.185
    1HEX    H2475510  30.578  44.792   0.045
    1HEX    H2575511  30.642  44.869   0.187
    1HEX    H2675512  30.562  45.073  60.152
    1HEX    H2775513  30.667  44.957  60.074
    1HEX    H2975514  30.180  45.256   0.142
    1HEX    H2A75515  30.315  45.148   0.157
    1HEX    H2B75516  30.100  45.054   0.520
    1HEX    H2C75517  30.069  45.223   0.551
    1HEX    H2D75518  30.343  45.191   0.619
    1HEX    H2E75519  30.271  45.043   0.677
    1HEX    H2G75520  29.930  45.048  60.151
    1HEX    H2H75521  29.966  45.183   0.085
    1HEX    H2I75522  29.716  45.039   0.341
    1HEX    H2J75523  29.639  44.892   0.283
    1HEX    H2K75524  29.584  45.044   0.063
    1HEX    H2M75525  29.601  45.175   0.177
    1STR    S0075526  30.240  45.100  59.274
    1STR    S0E75527  29.988  45.822  60.062
    1STR    S0M75528  29.762  44.471  60.077
    1STR    S0X75529  30.786  45.087   0.079
    1STR    S1475530  30.194  45.238   0.799
    1STR    S1B75531  29.409  45.040   0.227
    1HEX    C0175532  30.323  45.036  14.289
    1HEX    C0275533  30.283  45.005  14.436
    1HEX    C0375534  30.133  44.994  14.461
    1HEX    O0475535  30.072  44.891  14.434
    1HEX    O0575536  30.083  45.103  14.523
    1HEX    C0675537  29.945  45.107  14.559
    1HEX    C0775538  29.921  45.083  14.711
    1HEX    C0875539  29.923  45.221  14.787
    1HEX    O0975540  29.870  45.351  14.749
    1HEX    C0A75541  29.887  45.452  14.844
    1HEX    O0B75542  29.911  45.430  14.963
    1HEX    C0C75543  29.881  45.600  14.797
    1HEX    C0D75544  29.911  45.702  14.913
    1HEX    C0F75545  29.787  45.001  14.725
    1HEX    O0G75546  29.815  44.859  14.719
    1HEX    C0H75547  29.774  44.778  14.619
    1HEX    O0I75548  29.685  44.805  14.539
    1HEX    C0J75549  29.856  44.647  14.607
    1HEX    C0K75550  29.859  44.550  14.730
    1HEX    C0N75551  30.031  44.987  14.774
    1HEX    O0O75552  30.161  45.036  14.812
    1HEX    C0P75553  30.189  45.106  14.935
    1HEX    C0Q75554  30.145  45.053  15.076
    1HEX    C0R75555  30.202  44.910  15.099
    1HEX    O0S75556  30.343  44.899  15.069
    1HEX    C0T75557  30.438  44.908  15.166
    1HEX    O0U75558  30.417  44.933  15.284
    1HEX    C0V75559  30.581  44.874  15.118
    1HEX    C0W75560  30.673  44.996  15.090
    1HEX    C0Y75561  30.208  45.150  15.178
    1HEX    O0Z75562  30.166  45.120  15.309
    1HEX    C1075563  30.220  45.187  15.411
    1HEX    O1175564  30.312  45.268  15.403
    1HEX    C1275565  30.150  45.156  15.542
    1HEX    C1375566  30.235  45.187  15.666
    1HEX    C1575567  29.989  45.066  15.093
    1HEX    O1675568  29.916  44.997  15.195
    1HEX    C1775569  29.796  44.937  15.162
    1HEX    O1875570  29.769  44.892  15.051
    1HEX    C1975571  29.692  44.933  15.274
    1HEX    C1A75572  29.560  45.010  15.239
    1HEX    H1D75573  30.283  44.936  14.269
    1HEX    H1E75574  30.282  45.136  14.295
    1HEX    H1F75575  30.322  45.082  14.503
    1HEX    H1G75576  30.327  44.912  14.470
    1HEX    H1H75577  29.889  45.035  14.498
    1HEX    H1I75578  29.906  45.204  14.528
    1HEX    H1J75579  30.027  45.248  14.789
    1HEX    H1K75580  29.888  45.204  14.888
    1HEX    H1M75581  29.783  45.619  14.753
    1HEX    H1N75582  29.954  45.612  14.717
    1HEX    H1O75583  30.008  45.680  14.958
    1HEX    H1P75584  29.839  45.688  14.994
    1HEX    H1R75585  29.712  45.031  14.651
    1HEX    H1S75586  29.741  45.020  14.822
    1HEX    H1T75587  29.957  44.678  14.582
    1HEX    H1U75588  29.820  44.593  14.519
    1HEX    H1V75589  29.763  44.498  14.739
    1HEX    H1W75590  29.873  44.605  14.822
    1HEX    H1Y75591  30.053  44.912  14.699
    1HEX    H1Z75592  29.994  44.923  14.853
    1HEX    H2075593  30.165  45.211  14.928
    1HEX    H2175594  30.298  45.108  14.935
    1HEX    H2275595  30.149  44.839  15.035
    1HEX    H2375596  30.182  44.878  15.201
    1HEX    H2475597  30.576  44.808  15.032
    1HEX    H2575598  30.624  44.816  15.199
    1HEX    H2675599  30.651  45.079  15.158
    1HEX    H2775600  30.656  45.034  14.989
    1HEX    H2975601  30.181  45.254  15.156
    1HEX    H2A75602  30.317  45.148  15.173
    1HEX    H2B75603  30.121  45.051  15.541
    1HEX    H2C75604  30.058  45.215  15.542
    1HEX    H2D75605  30.283  45.285  15.659
    1HEX    H2E75606  30.316  45.114  15.674
    1HEX    H2G75607  29.940  45.042  15.000
    1HEX    H2H75608  29.964  45.171  15.106
    1HEX    H2I75609  29.738  44.980  15.361
    1HEX    H2J75610  29.670  44.830  15.301
    1HEX    H2K75611  29.581  45.093  15.171
    1HEX    H2M75612  29.519  45.055  15.329
    1STR    S0075613  30.223  45.031  14.135
    1STR    S0E75614  29.909  45.883  14.872
    1STR    S0M75615  29.994  44.423  14.714
    1STR    S0X75616  30.850  44.950  15.108
    1STR    S1475617  30.128  45.181  15.813
    1STR    S1B75618  29.425  44.910  15.164
    1HEX    C0175619  30.363  45.020  29.415
    1HEX    C0275620  30.287  45.100  29.523
    1HEX    C0375621  30.140  45.060  29.534
    1HEX    O0475622  30.102  44.946  29.508
    1HEX    O0575623  30.065  45.160  29.581
    1HEX    C0675624  29.926  45.140  29.602
    1HEX    C0775625  29.893  45.117  29.751
    1HEX    C0875626  29.915  45.250  29.830
    1HEX    O0975627  29.863  45.380  29.797
    1HEX    C0A75628  29.887  45.478  29.892
    1HEX    O0B75629  29.914  45.453  30.010
    1HEX    C0C75630  29.887  45.625  29.843
    1HEX    C0D75631  29.951  45.721  29.950
    1HEX    C0F75632  29.745  45.065  29.759
    1HEX    O0G75633  29.743  44.922  29.748
    1HEX    C0H75634  29.714  44.857  29.634
    1HEX    O0I75635  29.655  44.905  29.538
    1HEX    C0J75636  29.770  44.714  29.630
    1HEX    C0K75637  29.665  44.602  29.648
    1HEX    C0N75638  29.985  45.005  29.816
    1HEX    O0O75639  30.118  45.033  29.864
    1HEX    C0P75640  30.154  45.106  29.985
    1HEX    C0Q75641  30.116  45.057  30.129
    1HEX    C0R75642  30.179  44.916  30.154
    1HEX    O0S75643  30.320  44.911  30.119
    1HEX    C0T75644  30.420  44.916  30.212
    1HEX    O0U75645  30.404  44.932  30.333
    1HEX    C0V75646  30.561  44.899  30.153
    1HEX    C0W75647  30.670  44.989  30.219
    1HEX    C0Y75648  30.180  45.156  30.229
    1HEX    O0Z75649  30.149  45.119  30.363
    1HEX    C1075650  30.205  45.185  30.464
    1HEX    O1175651  30.283  45.280  30.452
    1HEX    C1275652  30.163  45.132  30.600
    1HEX    C1375653  30.262  45.174  30.711
    1HEX    C1575654  29.960  45.070  30.144
    1HEX    O1675655  29.885  45.030  30.259
    1HEX    C1775656  29.768  44.963  30.235
    1HEX    O1875657  29.757  44.869  30.157
    1HEX    C1975658  29.643  45.021  30.303
    1HEX    C1A75659  29.549  45.089  30.198
    1HEX    H1D75660  30.469  45.021  29.439
    1HEX    H1E75661  30.333  44.916  29.423
    1HEX    H1F75662  30.296  45.207  29.508
    1HEX    H1G75663  30.328  45.077  29.621
    1HEX    H1H75664  29.889  45.059  29.539
    1HEX    H1I75665  29.874  45.229  29.565
    1HEX    H1J75666  30.021  45.269  29.821
    1HEX    H1K75667  29.890  45.228  29.934
    1HEX    H1M75668  29.784  45.654  29.821
    1HEX    H1N75669  29.943  45.631  29.750
    1HEX    H1O75670  30.058  45.703  29.958
    1HEX    H1P75671  29.911  45.697  30.048
    1HEX    H1R75672  29.681  45.112  29.684
    1HEX    H1S75673  29.700  45.090  29.855
    1HEX    H1T75674  29.851  44.706  29.702
    1HEX    H1U75675  29.817  44.702  29.533
    1HEX    H1V75676  29.658  44.543  29.557
    1HEX    H1W75677  29.566  44.646  29.664
    1HEX    H1Y75678  30.001  44.932  29.737
    1HEX    H1Z75679  29.932  44.940  29.885
    1HEX    H2075680  30.131  45.211  29.978
    1HEX    H2175681  30.263  45.106  29.980
    1HEX    H2275682  30.127  44.842  30.093
    1HEX    H2375683  30.163  44.885  30.257
    1HEX    H2475684  30.555  44.920  30.046
    1HEX    H2575685  30.589  44.794  30.162
    1HEX    H2675686  30.632  45.090  30.234
    1HEX    H2775687  30.694  44.951  30.319
    1HEX    H2975688  30.146  45.258  30.212
    1HEX    H2A75689  30.289  45.158  30.218
    1HEX    H2B75690  30.159  45.023  30.593
    1HEX    H2C75691  30.063  45.167  30.622
    1HEX    H2D75692  30.257  45.282  30.726
    1HEX    H2E75693  30.364  45.152  30.678
    1HEX    H2G75694  29.911  45.027  30.059
    1HEX    H2H75695  29.937  45.176  30.136
    1HEX    H2I75696  29.671  45.090  30.382
    1HEX    H2J75697  29.591  44.937  30.350
    1HEX    H2K75698  29.563  45.042  30.100
    1HEX    H2M75699  29.577  45.193  30.185
    1STR    S0075700  30.347  45.077  29.242
    1STR    S0E75701  29.922  45.903  29.932
    1STR    S0M75702  29.693  44.484  29.786
    1STR    S0X75703  30.827  45.000  30.121
    1STR    S1475704  30.233  45.090  30.870
    1STR    S1B75705  29.369  45.082  30.233
    1HEX    C0175706  30.303  44.974  44.385
    1HEX    C0275707  30.290  44.996  44.537
    1HEX    C0375708  30.148  44.969  44.584
    1HEX    O0475709  30.103  44.854  44.582
    1HEX    O0575710  30.082  45.079  44.626
    1HEX    C0675711  29.945  45.068  44.664
    1HEX    C0775712  29.923  45.063  44.817
    1HEX    C0875713  29.941  45.207  44.877
    1HEX    O0975714  29.874  45.329  44.839
    1HEX    C0A75715  29.881  45.431  44.933
    1HEX    O0B75716  29.882  45.413  45.054
    1HEX    C0C75717  29.896  45.574  44.877
    1HEX    C0D75718  29.902  45.686  44.988
    1HEX    C0F75719  29.783  44.997  44.844
    1HEX    O0G75720  29.796  44.854  44.863
    1HEX    C0H75721  29.763  44.764  44.768
    1HEX    O0I75722  29.696  44.789  44.669
    1HEX    C0J75723  29.824  44.623  44.789
    1HEX    C0K75724  29.818  44.562  44.932
    1HEX    C0N75725  30.029  44.969  44.889
    1HEX    O0O75726  30.159  45.020  44.923
    1HEX    C0P75727  30.186  45.101  45.041
    1HEX    C0Q75728  30.144  45.055  45.184
    1HEX    C0R75729  30.198  44.911  45.209
    1HEX    O0S75730  30.338  44.899  45.178
    1HEX    C0T75731  30.433  44.905  45.276
    1HEX    O0U75732  30.412  44.924  45.395
    1HEX    C0V75733  30.576  44.879  45.225
    1HEX    C0W75734  30.650  45.005  45.170
    1HEX    C0Y75735  30.210  45.151  45.285
    1HEX    O0Z75736  30.169  45.119  45.417
    1HEX    C1075737  30.223  45.185  45.521
    1HEX    O1175738  30.310  45.271  45.512
    1HEX    C1275739  30.159  45.145  45.654
    1HEX    C1375740  30.253  45.161  45.775
    1HEX    C1575741  29.989  45.073  45.202
    1HEX    O1675742  29.924  45.026  45.320
    1HEX    C1775743  29.807  44.958  45.306
    1HEX    O1875744  29.780  44.882  45.213
    1HEX    C1975745  29.702  44.993  45.411
    1HEX    C1A75746  29.591  45.081  45.348
    1HEX    H1D75747  30.400  44.934  44.359
    1HEX    H1E75748  30.229  44.900  44.352
    1HEX    H1F75749  30.321  45.096  44.567
    1HEX    H1G75750  30.353  44.925  44.590
    1HEX    H1H75751  29.899  44.982  44.614
    1HEX    H1I75752  29.892  45.154  44.622
    1HEX    H1J75753  30.044  45.233  44.856
    1HEX    H1K75754  29.929  45.196  44.984
    1HEX    H1M75755  29.816  45.595  44.806
    1HEX    H1N75756  29.989  45.575  44.820
    1HEX    H1O75757  29.940  45.647  45.082
    1HEX    H1P75758  29.801  45.720  45.010
    1HEX    H1R75759  29.711  45.020  44.765
    1HEX    H1S75760  29.738  45.037  44.935
    1HEX    H1T75761  29.927  44.629  44.756
    1HEX    H1U75762  29.774  44.556  44.718
    1HEX    H1V75763  29.716  44.563  44.971
    1HEX    H1W75764  29.878  44.621  45.002
    1HEX    H1Y75765  30.048  44.886  44.821
    1HEX    H1Z75766  29.990  44.914  44.973
    1HEX    H2075767  30.156  45.204  45.027
    1HEX    H2175768  30.295  45.107  45.040
    1HEX    H2275769  30.144  44.840  45.145
    1HEX    H2375770  30.176  44.880  45.311
    1HEX    H2475771  30.572  44.800  45.150
    1HEX    H2575772  30.632  44.838  45.309
    1HEX    H2675773  30.586  45.092  45.180
    1HEX    H2775774  30.668  44.993  45.063
    1HEX    H2975775  30.183  45.255  45.265
    1HEX    H2A75776  30.319  45.148  45.279
    1HEX    H2B75777  30.123  45.042  45.646
    1HEX    H2C75778  30.071  45.208  45.664
    1HEX    H2D75779  30.330  45.236  45.754
    1HEX    H2E75780  30.307  45.068  45.795
    1HEX    H2G75781  29.934  45.036  45.118
    1HEX    H2H75782  29.967  45.180  45.201
    1HEX    H2I75783  29.747  45.041  45.497
    1HEX    H2J75784  29.659  44.899  45.444
    1HEX    H2K75785  29.580  45.056  45.242
    1HEX    H2M75786  29.617  45.187  45.350
    1STR    S0075787  30.280  45.131  44.296
    1STR    S0E75788  30.007  45.832  44.947
    1STR    S0M75789  29.878  44.387  44.931
    1STR    S0X75790  30.809  45.042  45.255
    1STR    S1475791  30.164  45.218  45.924
    1STR    S1B75792  29.427  45.056  45.424
    1HEX    C0175793  45.346  59.958  59.443
    1HEX    C0275794  45.320  60.014  59.584
    1HEX    C0375795  45.171  60.026  59.612
    1HEX    O0475796  45.097  59.928  59.597
    1HEX    O0575797  45.133  60.148  59.657
    1HEX    C0675798  44.995   0.013  59.680
    1HEX    C0775799  44.950  60.157  59.828
    1HEX    C0875800  44.973   0.132  59.906
    1HEX    O0975801  44.916   0.262  59.879
    1HEX    C0A75802  44.931   0.357  59.980
    1HEX    O0B75803  44.951   0.328  60.098
    1HEX    C0C75804  44.929   0.507  59.940
    1HEX    C0D75805  44.983   0.601  60.055
    1HEX    C0F75806  44.801  60.107  59.828
    1HEX    O0G75807  44.797  59.965  59.807
    1HEX    C0H75808  44.767  59.911  59.687
    1HEX    O0I75809  44.713  59.973  59.595
    1HEX    C0J75810  44.809  59.764  59.668
    1HEX    C0K75811  44.847  59.684  59.795
    1HEX    C0N75812  45.031  60.042  59.901
    1HEX    O0O75813  45.168  60.062  59.941
    1HEX    C0P75814  45.211  60.140  60.055
    1HEX    C0Q75815  45.175  60.098   0.040
    1HEX    C0R75816  45.236  59.957   0.068
    1HEX    O0S75817  45.377  59.948   0.034
    1HEX    C0T75818  45.477  59.961   0.127
    1HEX    O0U75819  45.460  59.984   0.246
    1HEX    C0V75820  45.620  59.936   0.072
    1HEX    C0W75821  45.711  60.063   0.060
    1HEX    C0Y75822  45.244   0.038   0.135
    1HEX    O0Z75823  45.200   0.007   0.265
    1HEX    C1075824  45.252   0.068   0.370
    1HEX    O1175825  45.342   0.151   0.369
    1HEX    C1275826  45.180   0.023   0.496
    1HEX    C1375827  45.246   0.075   0.624
    1HEX    C1575828  45.020  60.118   0.064
    1HEX    O1675829  44.945  60.051   0.167
    1HEX    C1775830  44.835  59.981   0.128
    1HEX    O1875831  44.832  59.907   0.030
    1HEX    C1975832  44.705  60.013   0.205
    1HEX    C1A75833  44.602  60.084   0.112
    1HEX    H1D75834  45.434  59.894  59.444
    1HEX    H1E75835  45.263  59.897  59.407
    1HEX    H1F75836  45.369  60.110  59.601
    1HEX    H1G75837  45.359  59.945  59.659
    1HEX    H1H75838  44.936  60.110  59.613
    1HEX    H1I75839  44.973   0.114  59.645
    1HEX    H1J75840  45.078   0.153  59.893
    1HEX    H1K75841  44.954   0.110  60.010
    1HEX    H1M75842  44.827   0.534  59.913
    1HEX    H1N75843  44.990   0.519  59.851
    1HEX    H1O75844  45.088   0.577  60.076
    1HEX    H1P75845  44.931   0.578  60.148
    1HEX    H1R75846  44.741   0.001  59.755
    1HEX    H1S75847  44.754  60.126  59.925
    1HEX    H1T75848  44.896  59.767  59.601
    1HEX    H1U75849  44.731  59.713  59.612
    1HEX    H1V75850  44.761  59.675  59.862
    1HEX    H1W75851  44.925  59.734  59.851
    1HEX    H1Y75852  45.038  59.959  59.831
    1HEX    H1Z75853  44.974  59.989  59.977
    1HEX    H2075854  45.191   0.086  60.043
    1HEX    H2175855  45.319  60.136  60.046
    1HEX    H2275856  45.183  59.882   0.008
    1HEX    H2375857  45.220  59.928   0.172
    1HEX    H2475858  45.614  59.882  60.138
    1HEX    H2575859  45.666  59.868   0.144
    1HEX    H2675860  45.702  60.126   0.148
    1HEX    H2775861  45.678  60.123  60.135
    1HEX    H2975862  45.218   0.142   0.112
    1HEX    H2A75863  45.353   0.034   0.129
    1HEX    H2B75864  45.179  60.074   0.495
    1HEX    H2C75865  45.077   0.057   0.489
    1HEX    H2D75866  45.251   0.184   0.624
    1HEX    H2E75867  45.349   0.039   0.632
    1HEX    H2G75868  44.964  60.105  60.134
    1HEX    H2H75869  45.003   0.064   0.084
    1HEX    H2I75870  44.727  60.072   0.294
    1HEX    H2J75871  44.665  59.917   0.239
    1HEX    H2K75872  44.626  60.061   0.008
    1HEX    H2M75873  44.612   0.032   0.120
    1STR    S0075874  45.377  60.093  59.325
    1STR    S0E75875  44.969   0.784  60.032
    1STR    S0M75876  44.904  59.515  59.748
    1STR    S0X75877  45.889  60.020   0.035
    1STR    S1475878  45.150   0.016   0.767
    1STR    S1B75879  44.424  60.042   0.138
    1HEX    C0175880  45.353  59.995  14.363
    1HEX    C0275881  45.290  59.947  14.494
    1HEX    C0375882  45.140  59.971  14.503
    1HEX    O0475883  45.062  59.878  14.488
    1HEX    O0575884  45.109  60.097  14.544
    1HEX    C0675885  44.974  60.126  14.580
    1HEX    C0775886  44.950  60.122  14.735
    1HEX    C0875887  44.976   0.105  14.795
    1HEX    O0975888  44.913   0.230  14.760
    1HEX    C0A75889  44.932   0.336  14.850
    1HEX    O0B75890  44.955   0.320  14.970
    1HEX    C0C75891  44.930   0.478  14.790
    1HEX    C0D75892  44.893   0.595  14.889
    1HEX    C0F75893  44.805  60.067  14.761
    1HEX    O0G75894  44.808  59.926  14.793
    1HEX    C0H75895  44.773  59.829  14.707
    1HEX    O0I75896  44.705  59.846  14.606
    1HEX    C0J75897  44.830  59.690  14.743
    1HEX    C0K75898  44.737  59.600  14.829
    1HEX    C0N75899  45.050  60.022  14.806
    1HEX    O0O75900  45.183  60.065  14.840
    1HEX    C0P75901  45.213  60.142  14.959
    1HEX    C0Q75902  45.171  60.093  15.102
    1HEX    C0R75903  45.226  59.948  15.121
    1HEX    O0S75904  45.367  59.938  15.086
    1HEX    C0T75905  45.466  59.939  15.180
    1HEX    O0U75906  45.448  59.951  15.301
    1HEX    C0V75907  45.608  59.924  15.123
    1HEX    C0W75908  45.681  60.060  15.113
    1HEX    C0Y75909  45.241   0.026  15.204
    1HEX    O0Z75910  45.206  60.149  15.337
    1HEX    C1075911  45.259   0.057  15.439
    1HEX    O1175912  45.336   0.153  15.426
    1HEX    C1275913  45.214   0.007  15.576
    1HEX    C1375914  45.288   0.080  15.689
    1HEX    C1575915  45.016  60.117  15.121
    1HEX    O1675916  44.943  60.068  15.233
    1HEX    C1775917  44.827  60.001  15.208
    1HEX    O1875918  44.813  59.918  15.118
    1HEX    C1975919  44.706  60.045  15.292
    1HEX    C1A75920  44.599  60.112  15.200
    1HEX    H1D75921  45.458  59.965  14.359
    1HEX    H1E75922  45.349  60.103  14.358
    1HEX    H1F75923  45.336  59.999  14.579
    1HEX    H1G75924  45.307  59.841  14.509
    1HEX    H1H75925  44.907  60.057  14.528
    1HEX    H1I75926  44.948   0.063  14.539
    1HEX    H1J75927  45.081   0.127  14.773
    1HEX    H1K75928  44.966   0.095  14.902
    1HEX    H1M75929  44.858   0.477  14.708
    1HEX    H1N75930  45.027   0.497  14.745
    1HEX    H1O75931  44.849   0.552  14.979
    1HEX    H1P75932  44.816   0.658  14.846
    1HEX    H1R75933  44.737  60.087  14.678
    1HEX    H1S75934  44.760  60.117  14.847
    1HEX    H1T75935  44.926  59.706  14.793
    1HEX    H1U75936  44.854  59.639  14.650
    1HEX    H1V75937  44.684  59.529  14.765
    1HEX    H1W75938  44.660  59.663  14.873
    1HEX    H1Y75939  45.062  59.936  14.740
    1HEX    H1Z75940  45.009  59.967  14.891
    1HEX    H2075941  45.186   0.087  14.948
    1HEX    H2175942  45.322  60.147  14.956
    1HEX    H2275943  45.171  59.880  15.057
    1HEX    H2375944  45.209  59.914  15.223
    1HEX    H2475945  45.604  59.873  15.027
    1HEX    H2575946  45.665  59.859  15.190
    1HEX    H2675947  45.688  60.107  15.211
    1HEX    H2775948  45.620  60.126  15.052
    1HEX    H2975949  45.213   0.130  15.188
    1HEX    H2A75950  45.349   0.022  15.194
    1HEX    H2B75951  45.233  60.060  15.579
    1HEX    H2C75952  45.106   0.020  15.584
    1HEX    H2D75953  45.255   0.184  15.694
    1HEX    H2E75954  45.394   0.083  15.665
    1HEX    H2G75955  44.960  60.091  15.033
    1HEX    H2H75956  45.001   0.065  15.125
    1HEX    H2I75957  44.738  60.110  15.373
    1HEX    H2J75958  44.664  59.955  15.337
    1HEX    H2K75959  44.584  60.051  15.111
    1HEX    H2M75960  44.637   0.048  15.164
    1STR    S0075961  45.274  59.929  14.214
    1STR    S0E75962  45.028   0.707  14.949
    1STR    S0M75963  44.815  59.506  14.968
    1STR    S0X75964  45.850  60.058  15.037
    1STR    S1475965  45.273   0.005  15.855
    1STR    S1B75966  44.435  60.143  15.277
    1HEX    C0175967  45.365  60.041  29.325
    1HEX    C0275968  45.322  60.058  29.473
    1HEX    C0375969  45.176  60.032  29.505
    1HEX    O0475970  45.125  59.921  29.488
    1HEX    O0575971  45.117  60.139  29.562
    1HEX    C0675972  44.980  60.134  29.599
    1HEX    C0775973  44.959  60.115  29.752
    1HEX    C0875974  44.965   0.093  29.825
    1HEX    O0975975  44.909   0.220  29.785
    1HEX    C0A75976  44.926   0.324  29.877
    1HEX    O0B75977  44.946   0.305  29.997
    1HEX    C0C75978  44.925   0.469  29.823
    1HEX    C0D75979  44.949   0.576  29.936
    1HEX    C0F75980  44.823  60.037  29.769
    1HEX    O0G75981  44.847  59.894  29.758
    1HEX    C0H75982  44.808  59.820  29.652
    1HEX    O0I75983  44.724  59.856  29.570
    1HEX    C0J75984  44.886  59.688  29.635
    1HEX    C0K75985  44.890  59.589  29.756
    1HEX    C0N75986  45.068  60.019  29.817
    1HEX    O0O75987  45.197  60.068  29.856
    1HEX    C0P75988  45.225  60.140  29.978
    1HEX    C0Q75989  45.182  60.089  30.120
    1HEX    C0R75990  45.239  59.947  30.144
    1HEX    O0S75991  45.380  59.936  30.116
    1HEX    C0T75992  45.473  59.942  30.216
    1HEX    O0U75993  45.449  59.967  30.334
    1HEX    C0V75994  45.616  59.908  30.171
    1HEX    C0W75995  45.706  60.030  30.138
    1HEX    C0Y75996  45.247   0.027  30.222
    1HEX    O0Z75997  45.207  60.157  30.354
    1HEX    C1075998  45.267   0.060  30.456
    1HEX    O1175999  45.361   0.139  30.446
    1HEX    C1276000  45.201   0.030  30.589
    1HEX    C1376001  45.292   0.054  30.711
    1HEX    C1576002  45.027  60.102  30.137
    1HEX    O1676003  44.959  60.042  30.248
    1HEX    C1776004  44.836  59.986  30.227
    1HEX    O1876005  44.797  59.938  30.121
    1HEX    C1976006  44.742  59.994  30.347
    1HEX    C1A76007  44.611  60.073  30.314
    1HEX    H1D76008  45.415  59.945  29.313
    1HEX    H1E76009  45.439  60.118  29.300
    1HEX    H1F76010  45.344  60.159  29.506
    1HEX    H1G76011  45.381  59.991  29.536
    1HEX    H1H76012  44.929  60.057  29.541
    1HEX    H1I76013  44.934   0.067  29.566
    1HEX    H1J76014  45.070   0.121  29.820
    1HEX    H1K76015  44.937   0.077  29.928
    1HEX    H1M76016  44.831   0.487  29.772
    1HEX    H1N76017  45.004   0.476  29.749
    1HEX    H1O76018  45.035   0.549  29.997
    1HEX    H1P76019  44.864   0.576  30.005
    1HEX    H1R76020  44.747  60.071  29.699
    1HEX    H1S76021  44.781  60.055  29.868
    1HEX    H1T76022  44.987  59.717  29.607
    1HEX    H1U76023  44.845  59.637  29.548
    1HEX    H1V76024  44.793  59.542  29.770
    1HEX    H1W76025  44.912  59.643  29.848
    1HEX    H1Y76026  45.090  59.943  29.742
    1HEX    H1Z76027  45.028  59.955  29.895
    1HEX    H2076028  45.198   0.085  29.969
    1HEX    H2176029  45.334  60.144  29.978
    1HEX    H2276030  45.187  59.876  30.079
    1HEX    H2376031  45.217  59.914  30.246
    1HEX    H2476032  45.613  59.837  30.088
    1HEX    H2576033  45.659  59.854  30.256
    1HEX    H2676034  45.670  60.120  30.188
    1HEX    H2776035  45.704  60.050  30.031
    1HEX    H2976036  45.219   0.130  30.201
    1HEX    H2A76037  45.356   0.025  30.214
    1HEX    H2B76038  45.167  60.086  30.588
    1HEX    H2C76039  45.113   0.093  30.594
    1HEX    H2D76040  45.352   0.145  30.698
    1HEX    H2E76041  45.364  60.133  30.721
    1HEX    H2G76042  44.977  60.069  30.048
    1HEX    H2H76043  45.001   0.048  30.143
    1HEX    H2I76044  44.795  60.044  30.428
    1HEX    H2J76045  44.719  59.894  30.382
    1HEX    H2K76046  44.624  60.130  30.223
    1HEX    H2M76047  44.589  60.146  30.392
    1STR    S0076048  45.236  60.048  29.197
    1STR    S0E76049  44.973   0.750  29.879
    1STR    S0M76050  45.019  59.458  29.732
    1STR    S0X76051  45.881  60.001  30.190
    1STR    S1476052  45.190   0.074  30.861
    1STR    S1B76053  44.462  59.969  30.292
    1HEX    C0176054  45.374  60.065  44.395
    1HEX    C0276055  45.341  60.115  44.537
    1HEX    C0376056  45.200  60.078  44.578
    1HEX    O0476057  45.163  59.960  44.574
    1HEX    O0576058  45.127   0.024  44.618
    1HEX    C0676059  44.987   0.010  44.638
    1HEX    C0776060  44.946  60.155  44.787
    1HEX    C0876061  44.971   0.129  44.864
    1HEX    O0976062  44.919   0.261  44.835
    1HEX    C0A76063  44.942   0.357  44.933
    1HEX    O0B76064  44.966   0.329  45.051
    1HEX    C0C76065  44.943   0.506  44.889
    1HEX    C0D76066  45.003   0.600  45.000
    1HEX    C0F76067  44.796  60.109  44.790
    1HEX    O0G76068  44.788  59.966  44.788
    1HEX    C0H76069  44.759  59.895  44.677
    1HEX    O0I76070  44.704  59.939  44.577
    1HEX    C0J76071  44.810  59.750  44.684
    1HEX    C0K76072  44.699  59.643  44.704
    1HEX    C0N76073  45.031  60.041  44.857
    1HEX    O0O76074  45.165  60.065  44.905
    1HEX    C0P76075  45.202  60.142  45.022
    1HEX    C0Q76076  45.163  60.098  45.167
    1HEX    C0R76077  45.228  59.959  45.196
    1HEX    O0S76078  45.370  59.954  45.165
    1HEX    C0T76079  45.468  59.965  45.260
    1HEX    O0U76080  45.448  59.986  45.379
    1HEX    C0V76081  45.611  59.944  45.207
    1HEX    C0W76082  45.704  60.068  45.217
    1HEX    C0Y76083  45.226   0.040  45.265
    1HEX    O0Z76084  45.188   0.006  45.397
    1HEX    C1076085  45.245   0.067  45.500
    1HEX    O1176086  45.330   0.156  45.494
    1HEX    C1276087  45.191   0.015  45.632
    1HEX    C1376088  45.290   0.038  45.747
    1HEX    C1576089  45.007  60.113  45.183
    1HEX    O1676090  44.930  60.070  45.296
    1HEX    C1776091  44.816  59.999  45.269
    1HEX    O1876092  44.812  59.902  45.195
    1HEX    C1976093  44.686  60.057  45.327
    1HEX    C1A76094  44.595  60.115  45.214
    1HEX    H1D76095  45.482  60.064  44.381
    1HEX    H1E76096  45.341  59.961  44.385
    1HEX    H1F76097  45.355   0.063  44.546
    1HEX    H1G76098  45.406  60.068  44.610
    1HEX    H1H76099  44.949  60.086  44.578
    1HEX    H1I76100  44.939   0.097  44.594
    1HEX    H1J76101  45.078   0.148  44.851
    1HEX    H1K76102  44.951   0.108  44.968
    1HEX    H1M76103  44.841   0.535  44.863
    1HEX    H1N76104  45.003   0.514  44.798
    1HEX    H1O76105  45.108   0.577  45.016
    1HEX    H1P76106  44.955   0.577  45.096
    1HEX    H1R76107  44.738  60.153  44.709
    1HEX    H1S76108  44.747  60.142  44.881
    1HEX    H1T76109  44.886  59.743  44.761
    1HEX    H1U76110  44.861  59.729  44.590
    1HEX    H1V76111  44.684  59.587  44.612
    1HEX    H1W76112  44.604  59.693  44.725
    1HEX    H1Y76113  45.044  59.964  44.782
    1HEX    H1Z76114  44.974  59.981  44.928
    1HEX    H2076115  45.181   0.087  45.012
    1HEX    H2176116  45.311  60.140  45.017
    1HEX    H2276117  45.178  59.883  45.136
    1HEX    H2376118  45.210  59.929  45.300
    1HEX    H2476119  45.607  59.906  45.105
    1HEX    H2576120  45.654  59.863  45.267
    1HEX    H2676121  45.703  60.107  45.319
    1HEX    H2776122  45.666  60.149  45.154
    1HEX    H2976123  45.194   0.142  45.244
    1HEX    H2A76124  45.335   0.041  45.257
    1HEX    H2B76125  45.173  60.068  45.619
    1HEX    H2C76126  45.095   0.062  45.652
    1HEX    H2D76127  45.299   0.144  45.768
    1HEX    H2E76128  45.389   0.004  45.718
    1HEX    H2G76129  44.957  60.073  45.097
    1HEX    H2H76130  44.984   0.059  45.177
    1HEX    H2I76131  44.708  60.131  45.404
    1HEX    H2J76132  44.634  59.975  45.377
    1HEX    H2K76133  44.616  60.062  45.121
    1HEX    H2M76134  44.621   0.059  45.195
    1STR    S0076135  45.298   0.002  44.261
    1STR    S0E76136  44.984   0.783  44.978
    1STR    S0M76137  44.727  59.521  44.839
    1STR    S0X76138  45.879  60.034  45.168
    1STR    S1476139  45.238  60.108  45.898
    1STR    S1B76140  44.413  60.106  45.239
    1HEX    C0176141  45.326  14.898  59.406
    1HEX    C0276142  45.321  14.945  59.553
    1HEX    C0376143  45.189  14.907  59.618
    1HEX    O0476144  45.155  14.789  59.625
    1HEX    O0576145  45.119  15.013  59.663
    1HEX    C0676146  44.983  14.995  59.702
    1HEX    C0776147  44.962  14.991  59.856
    1HEX    C0876148  44.983  15.134  59.915
    1HEX    O0976149  44.910  15.254  59.884
    1HEX    C0A76150  44.910  15.352  59.981
    1HEX    O0B76151  44.907  15.328  60.102
    1HEX    C0C76152  44.922  15.498  59.931
    1HEX    C0D76153  44.908  15.609  60.042
    1HEX    C0F76154  44.818  14.932  59.882
    1HEX    O0G76155  44.823  14.792  59.915
    1HEX    C0H76156  44.801  14.693  59.826
    1HEX    O0I76157  44.746  14.708  59.717
    1HEX    C0J76158  44.857  14.556  59.870
    1HEX    C0K76159  44.768  14.478  59.971
    1HEX    C0N76160  45.066  14.895  59.927
    1HEX    O0O76161  45.196  14.944  59.963
    1HEX    C0P76162  45.224  15.025  60.080
    1HEX    C0Q76163  45.182  14.979   0.064
    1HEX    C0R76164  45.238  14.836   0.088
    1HEX    O0S76165  45.379  14.825   0.057
    1HEX    C0T76166  45.475  14.831   0.153
    1HEX    O0U76167  45.454  14.851   0.272
    1HEX    C0V76168  45.618  14.806   0.101
    1HEX    C0W76169  45.682  14.922   0.021
    1HEX    C0Y76170  45.248  15.075   0.166
    1HEX    O0Z76171  45.208  15.042   0.299
    1HEX    C1076172  45.253  15.113   0.402
    1HEX    O1176173  45.334  15.205   0.395
    1HEX    C1276174  45.189  15.071   0.535
    1HEX    C1376175  45.287  15.073   0.655
    1HEX    C1576176  45.027  14.997   0.082
    1HEX    O1676177  44.962  14.955   0.201
    1HEX    C1776178  44.846  14.887   0.189
    1HEX    O1876179  44.827  14.795   0.110
    1HEX    C1976180  44.731  14.944   0.273
    1HEX    C1A76181  44.624  15.006   0.180
    1HEX    H1D76182  45.425  14.859  59.381
    1HEX    H1E76183  45.257  14.815  59.391
    1HEX    H1F76184  45.339  15.052  59.562
    1HEX    H1G76185  45.398  14.894  59.611
    1HEX    H1H76186  44.942  14.906  59.654
    1HEX    H1I76187  44.927  15.078  59.658
    1HEX    H1J76188  45.085  15.162  59.890
    1HEX    H1K76189  44.978  15.121  60.022
    1HEX    H1M76190  44.848  15.514  59.852
    1HEX    H1N76191  45.019  15.506  59.883
    1HEX    H1O76192  44.909  15.566  60.142
    1HEX    H1P76193  44.810  15.656  60.033
    1HEX    H1R76194  44.751  14.950  59.797
    1HEX    H1S76195  44.771  14.984  59.965
    1HEX    H1T76196  44.956  14.575  59.912
    1HEX    H1U76197  44.873  14.496  59.781
    1HEX    H1V76198  44.702  14.410  59.918
    1HEX    H1W76199  44.704  14.550  60.023
    1HEX    H1Y76200  45.083  14.813  59.858
    1HEX    H1Z76201  45.026  14.839  60.011
    1HEX    H2076202  45.195  15.128  60.066
    1HEX    H2176203  45.333  15.031  60.079
    1HEX    H2276204  45.184  14.765   0.024
    1HEX    H2376205  45.218  14.804   0.190
    1HEX    H2476206  45.614  14.715   0.040
    1HEX    H2576207  45.680  14.781   0.187
    1HEX    H2676208  45.607  15.001   0.007
    1HEX    H2776209  45.709  14.888  60.081
    1HEX    H2976210  45.219  15.179   0.147
    1HEX    H2A76211  45.357  15.073   0.160
    1HEX    H2B76212  45.145  14.972   0.524
    1HEX    H2C76213  45.106  15.140   0.551
    1HEX    H2D76214  45.377  15.129   0.628
    1HEX    H2E76215  45.321  14.972   0.679
    1HEX    H2G76216  44.971  14.956  60.159
    1HEX    H2H76217  45.005  15.103   0.077
    1HEX    H2I76218  44.770  15.016   0.344
    1HEX    H2J76219  44.688  14.861   0.330
    1HEX    H2K76220  44.593  14.932   0.106
    1HEX    H2M76221  44.664  15.090   0.123
    1STR    S0076222  45.282  15.027  59.286
    1STR    S0E76223  45.039  15.738  60.042
    1STR    S0M76224  44.858  14.382  60.102
    1STR    S0X76225  45.831  14.999   0.097
    1STR    S1476226  45.218  15.153   0.805
    1STR    S1B76227  44.475  15.061   0.270
    1HEX    C0176228  45.354  14.970  14.292
    1HEX    C0276229  45.318  14.923  14.436
    1HEX    C0376230  45.169  14.914  14.464
    1HEX    O0476231  45.106  14.812  14.437
    1HEX    O0576232  45.120  15.024  14.525
    1HEX    C0676233  44.982  15.031  14.559
    1HEX    C0776234  44.955  15.010  14.711
    1HEX    C0876235  44.966  15.148  14.787
    1HEX    O0976236  44.908  15.278  14.756
    1HEX    C0A76237  44.929  15.377  14.854
    1HEX    O0B76238  44.959  15.351  14.971
    1HEX    C0C76239  44.919  15.526  14.811
    1HEX    C0D76240  44.959  15.626  14.928
    1HEX    C0F76241  44.817  14.935  14.724
    1HEX    O0G76242  44.837  14.792  14.710
    1HEX    C0H76243  44.791  14.719  14.606
    1HEX    O0I76244  44.706  14.758  14.527
    1HEX    C0J76245  44.862  14.583  14.587
    1HEX    C0K76246  44.869  14.485  14.708
    1HEX    C0N76247  45.060  14.909  14.775
    1HEX    O0O76248  45.191  14.952  14.813
    1HEX    C0P76249  45.222  15.025  14.934
    1HEX    C0Q76250  45.181  14.974  15.076
    1HEX    C0R76251  45.242  14.832  15.099
    1HEX    O0S76252  45.383  14.824  15.067
    1HEX    C0T76253  45.480  14.834  15.162
    1HEX    O0U76254  45.461  14.859  15.280
    1HEX    C0V76255  45.623  14.804  15.111
    1HEX    C0W76256  45.714  14.928  15.088
    1HEX    C0Y76257  45.246  15.073  15.175
    1HEX    O0Z76258  45.204  15.042  15.306
    1HEX    C1076259  45.257  15.108  15.409
    1HEX    O1176260  45.349  15.190  15.403
    1HEX    C1276261  45.186  15.073  15.538
    1HEX    C1376262  45.264  15.116  15.663
    1HEX    C1576263  45.025  14.986  15.096
    1HEX    O1676264  44.954  14.927  15.206
    1HEX    C1776265  44.838  14.860  15.179
    1HEX    O1876266  44.818  14.793  15.077
    1HEX    C1976267  44.725  14.879  15.281
    1HEX    C1A76268  44.609  14.965  15.223
    1HEX    H1D76269  45.307  14.873  14.272
    1HEX    H1E76270  45.306  15.067  14.302
    1HEX    H1F76271  45.361  14.992  14.509
    1HEX    H1G76272  45.362  14.826  14.460
    1HEX    H1H76273  44.926  14.959  14.500
    1HEX    H1I76274  44.944  15.128  14.526
    1HEX    H1J76275  45.071  15.174  14.776
    1HEX    H1K76276  44.944  15.129  14.890
    1HEX    H1M76277  44.818  15.546  14.776
    1HEX    H1N76278  44.986  15.541  14.726
    1HEX    H1O76279  45.061  15.604  14.961
    1HEX    H1P76280  44.897  15.605  15.015
    1HEX    H1R76281  44.742  14.973  14.654
    1HEX    H1S76282  44.773  14.952  14.823
    1HEX    H1T76283  44.963  14.607  14.554
    1HEX    H1U76284  44.814  14.533  14.503
    1HEX    H1V76285  44.771  14.445  14.731
    1HEX    H1W76286  44.903  14.537  14.798
    1HEX    H1Y76287  45.078  14.833  14.699
    1HEX    H1Z76288  45.018  14.845  14.852
    1HEX    H2076289  45.195  15.129  14.925
    1HEX    H2176290  45.331  15.028  14.931
    1HEX    H2276291  45.189  14.760  15.037
    1HEX    H2376292  45.224  14.801  15.202
    1HEX    H2476293  45.617  14.741  15.023
    1HEX    H2576294  45.667  14.742  15.189
    1HEX    H2676295  45.698  15.004  15.165
    1HEX    H2776296  45.690  14.975  14.993
    1HEX    H2976297  45.217  15.176  15.154
    1HEX    H2A76298  45.355  15.071  15.169
    1HEX    H2B76299  45.169  14.965  15.539
    1HEX    H2C76300  45.089  15.121  15.534
    1HEX    H2D76301  45.295  15.221  15.659
    1HEX    H2E76302  45.356  15.057  15.672
    1HEX    H2G76303  44.973  14.957  15.007
    1HEX    H2H76304  45.001  15.093  15.104
    1HEX    H2I76305  44.766  14.925  15.371
    1HEX    H2J76306  44.689  14.781  15.310
    1HEX    H2K76307  44.630  14.991  15.120
    1HEX    H2M76308  44.604  15.061  15.275
    1STR    S0076309  45.275  14.954  14.127
    1STR    S0E76310  44.948  15.809  14.896
    1STR    S0M76311  44.986  14.345  14.673
    1STR    S0X76312  45.892  14.880  15.087
    1STR    S1476313  45.158  15.089  15.809
    1STR    S1B76314  44.440  14.891  15.231
    1HEX    C0176315  45.342  14.874  29.393
    1HEX    C0276316  45.299  14.897  29.538
    1HEX    C0376317  45.148  14.906  29.547
    1HEX    O0476318  45.079  14.809  29.518
    1HEX    O0576319  45.105  15.025  29.591
    1HEX    C0676320  44.966  15.046  29.611
    1HEX    C0776321  44.924  15.029  29.759
    1HEX    C0876322  44.948  15.163  29.835
    1HEX    O0976323  44.894  15.292  29.800
    1HEX    C0A76324  44.913  15.392  29.894
    1HEX    O0B76325  44.934  15.368  30.014
    1HEX    C0C76326  44.914  15.539  29.844
    1HEX    C0D76327  44.976  15.636  29.951
    1HEX    C0F76328  44.775  14.982  29.761
    1HEX    O0G76329  44.770  14.840  29.738
    1HEX    C0H76330  44.731  14.788  29.620
    1HEX    O0I76331  44.668  14.849  29.534
    1HEX    C0J76332  44.778  14.644  29.597
    1HEX    C0K76333  44.774  14.554  29.723
    1HEX    C0N76334  45.007  14.916  29.834
    1HEX    O0O76335  45.143  14.938  29.880
    1HEX    C0P76336  45.186  15.019  29.993
    1HEX    C0Q76337  45.154  14.979  30.141
    1HEX    C0R76338  45.213  14.837  30.169
    1HEX    O0S76339  45.352  14.826  30.129
    1HEX    C0T76340  45.455  14.832  30.218
    1HEX    O0U76341  45.444  14.850  30.339
    1HEX    C0V76342  45.594  14.811  30.154
    1HEX    C0W76343  45.708  14.893  30.222
    1HEX    C0Y76344  45.225  15.080  30.236
    1HEX    O0Z76345  45.194  15.056  30.373
    1HEX    C1076346  45.255  15.130  30.468
    1HEX    O1176347  45.341  15.215  30.447
    1HEX    C1276348  45.205  15.100  30.610
    1HEX    C1376349  45.317  15.050  30.704
    1HEX    C1576350  45.000  15.000  30.160
    1HEX    O1676351  44.927  14.964  30.278
    1HEX    C1776352  44.808  14.900  30.259
    1HEX    O1876353  44.793  14.803  30.185
    1HEX    C1976354  44.686  14.966  30.325
    1HEX    C1A76355  44.577  14.995  30.218
    1HEX    H1D76356  45.439  14.825  29.391
    1HEX    H1E76357  45.272  14.809  29.339
    1HEX    H1F76358  45.344  14.987  29.580
    1HEX    H1G76359  45.329  14.814  29.602
    1HEX    H1H76360  44.909  14.979  29.545
    1HEX    H1I76361  44.940  15.145  29.575
    1HEX    H1J76362  45.054  15.183  29.824
    1HEX    H1K76363  44.926  15.144  29.939
    1HEX    H1M76364  44.812  15.567  29.820
    1HEX    H1N76365  44.972  15.544  29.752
    1HEX    H1O76366  45.084  15.622  29.958
    1HEX    H1P76367  44.938  15.608  30.050
    1HEX    H1R76368  44.714  15.038  29.690
    1HEX    H1S76369  44.730  15.000  29.859
    1HEX    H1T76370  44.880  14.650  29.560
    1HEX    H1U76371  44.719  14.600  29.517
    1HEX    H1V76372  44.671  14.539  29.756
    1HEX    H1W76373  44.827  14.601  29.806
    1HEX    H1Y76374  45.017  14.835  29.762
    1HEX    H1Z76375  44.947  14.862  29.907
    1HEX    H2076376  45.165  15.124  29.980
    1HEX    H2176377  45.295  15.016  29.982
    1HEX    H2276378  45.156  14.763  30.112
    1HEX    H2376379  45.200  14.810  30.274
    1HEX    H2476380  45.586  14.836  30.048
    1HEX    H2576381  45.618  14.705  30.159
    1HEX    H2676382  45.671  14.992  30.250
    1HEX    H2776383  45.735  14.845  30.316
    1HEX    H2976384  45.197  15.183  30.212
    1HEX    H2A76385  45.334  15.076  30.222
    1HEX    H2B76386  45.125  15.026  30.605
    1HEX    H2C76387  45.160  15.191  30.648
    1HEX    H2D76388  45.413  15.068  30.656
    1HEX    H2E76389  45.310  14.942  30.718
    1HEX    H2G76390  44.948  14.955  30.078
    1HEX    H2H76391  44.979  15.106  30.149
    1HEX    H2I76392  44.717  15.057  30.376
    1HEX    H2J76393  44.647  14.898  30.401
    1HEX    H2K76394  44.547  14.900  30.173
    1HEX    H2M76395  44.621  15.053  30.136
    1STR    S0076396  45.351  15.034  29.308
    1STR    S0E76397  44.939  15.816  29.940
    1STR    S0M76398  44.848  14.390  29.689
    1STR    S0X76399  45.860  14.915  30.120
    1STR    S1476400  45.329  15.131  30.869
    1STR    S1B76401  44.427  15.085  30.273
    1HEX    C0176402  45.359  14.880  44.384
    1HEX    C0276403  45.320  14.934  44.524
    1HEX    C0376404  45.179  14.897  44.565
    1HEX    O0476405  45.138  14.781  44.559
    1HEX    O0576406  45.109  15.003  44.611
    1HEX    C0676407  44.975  14.987  44.655
    1HEX    C0776408  44.962  14.981  44.809
    1HEX    C0876409  44.979  15.125  44.869
    1HEX    O0976410  44.913  15.248  44.831
    1HEX    C0A76411  44.924  15.352  44.924
    1HEX    O0B76412  44.932  15.334  45.045
    1HEX    C0C76413  44.935  15.495  44.867
    1HEX    C0D76414  44.948  15.605  44.978
    1HEX    C0F76415  44.826  14.909  44.843
    1HEX    O0G76416  44.845  14.766  44.859
    1HEX    C0H76417  44.812  14.676  44.764
    1HEX    O0I76418  44.740  14.700  44.668
    1HEX    C0J76419  44.880  14.538  44.780
    1HEX    C0K76420  44.886  14.475  44.923
    1HEX    C0N76421  45.075  14.890  44.874
    1HEX    O0O76422  45.203  14.945  44.909
    1HEX    C0P76423  45.227  15.021  45.030
    1HEX    C0Q76424  45.184  14.971  45.172
    1HEX    C0R76425  45.239  14.827  45.195
    1HEX    O0S76426  45.380  14.817  45.167
    1HEX    C0T76427  45.473  14.821  45.266
    1HEX    O0U76428  45.449  14.840  45.385
    1HEX    C0V76429  45.616  14.792  45.220
    1HEX    C0W76430  45.698  14.918  45.179
    1HEX    C0Y76431  45.248  15.067  45.275
    1HEX    O0Z76432  45.208  15.035  45.407
    1HEX    C1076433  45.265  15.098  45.510
    1HEX    O1176434  45.355  15.182  45.500
    1HEX    C1276435  45.202  15.060  45.643
    1HEX    C1376436  45.293  15.087  45.765
    1HEX    C1576437  45.029  14.985  45.189
    1HEX    O1676438  44.964  14.934  45.306
    1HEX    C1776439  44.845  14.871  45.292
    1HEX    O1876440  44.812  14.804  45.194
    1HEX    C1976441  44.746  14.896  45.405
    1HEX    C1A76442  44.627  14.983  45.356
    1HEX    H1D76443  45.369  14.772  44.388
    1HEX    H1E76444  45.455  14.921  44.355
    1HEX    H1F76445  45.330  15.042  44.528
    1HEX    H1G76446  45.387  14.894  44.599
    1HEX    H1H76447  44.930  14.900  44.607
    1HEX    H1I76448  44.918  15.072  44.616
    1HEX    H1J76449  45.082  15.152  44.848
    1HEX    H1K76450  44.967  15.114  44.976
    1HEX    H1M76451  44.850  15.515  44.802
    1HEX    H1N76452  45.024  15.496  44.804
    1HEX    H1O76453  45.007  15.570  45.063
    1HEX    H1P76454  44.849  15.627  45.020
    1HEX    H1R76455  44.749  14.931  44.768
    1HEX    H1S76456  44.785  14.947  44.936
    1HEX    H1T76457  44.981  14.548  44.740
    1HEX    H1U76458  44.828  14.470  44.712
    1HEX    H1V76459  44.788  14.475  44.970
    1HEX    H1W76460  44.951  14.534  44.987
    1HEX    H1Y76461  45.096  14.810  44.803
    1HEX    H1Z76462  45.041  14.830  44.958
    1HEX    H2076463  45.196  15.125  45.018
    1HEX    H2176464  45.336  15.029  45.030
    1HEX    H2276465  45.188  14.757  45.130
    1HEX    H2376466  45.217  14.794  45.296
    1HEX    H2476467  45.614  14.719  45.139
    1HEX    H2576468  45.665  14.743  45.304
    1HEX    H2676469  45.644  15.008  45.207
    1HEX    H2776470  45.709  14.921  45.070
    1HEX    H2976471  45.220  15.171  45.255
    1HEX    H2A76472  45.357  15.065  45.268
    1HEX    H2B76473  45.173  14.955  45.640
    1HEX    H2C76474  45.110  15.118  45.650
    1HEX    H2D76475  45.358  15.172  45.745
    1HEX    H2E76476  45.359  15.003  45.784
    1HEX    H2G76477  44.976  14.947  45.104
    1HEX    H2H76478  45.004  15.091  45.189
    1HEX    H2I76479  44.797  14.941  45.490
    1HEX    H2J76480  44.710  14.798  45.438
    1HEX    H2K76481  44.625  14.985  45.247
    1HEX    H2M76482  44.638  15.087  45.387
    1STR    S0076483  45.239  14.920  44.253
    1STR    S0E76484  45.024  15.764  44.924
    1STR    S0M76485  44.948  14.300  44.916
    1STR    S0X76486  45.864  14.924  45.258
    1STR    S1476487  45.196  15.129  45.914
    1STR    S1B76488  44.464  14.921  45.410
    1HEX    C0176489  45.349  29.915  59.435
    1HEX    C0276490  45.320  29.949  59.582
    1HEX    C0376491  45.170  29.950  59.610
    1HEX    O0476492  45.104  29.847  59.596
    1HEX    O0576493  45.124  30.069  59.654
    1HEX    C0676494  44.985  30.084  59.683
    1HEX    C0776495  44.951  30.072  59.835
    1HEX    C0876496  44.980  30.210  59.905
    1HEX    O0976497  44.922  30.340  59.880
    1HEX    C0A76498  44.940  30.436  59.981
    1HEX    O0B76499  44.963  30.407  60.098
    1HEX    C0C76500  44.938  30.585  59.940
    1HEX    C0D76501  44.999  30.679  60.051
    1HEX    C0F76502  44.803  30.022  59.848
    1HEX    O0G76503  44.798  29.878  59.842
    1HEX    C0H76504  44.770  29.812  59.728
    1HEX    O0I76505  44.714  29.862  59.631
    1HEX    C0J76506  44.820  29.666  59.722
    1HEX    C0K76507  44.840  29.587  59.855
    1HEX    C0N76508  45.039  29.959  59.904
    1HEX    O0O76509  45.175  29.986  59.942
    1HEX    C0P76510  45.214  30.064  60.057
    1HEX    C0Q76511  45.174  30.020   0.042
    1HEX    C0R76512  45.235  29.879   0.070
    1HEX    O0S76513  45.376  29.870   0.036
    1HEX    C0T76514  45.476  29.883   0.129
    1HEX    O0U76515  45.459  29.908   0.248
    1HEX    C0V76516  45.618  29.861   0.074
    1HEX    C0W76517  45.711  29.987   0.073
    1HEX    C0Y76518  45.241  30.121   0.138
    1HEX    O0Z76519  45.194  30.089   0.267
    1HEX    C1076520  45.248  30.144   0.374
    1HEX    O1176521  45.339  30.227   0.376
    1HEX    C1276522  45.180  30.091   0.498
    1HEX    C1376523  45.248  30.138   0.627
    1HEX    C1576524  45.018  30.040   0.063
    1HEX    O1676525  44.941  29.975   0.165
    1HEX    C1776526  44.829  29.907   0.124
    1HEX    O1876527  44.827  29.830   0.029
    1HEX    C1976528  44.698  29.946   0.196
    1HEX    C1A76529  44.600  30.017   0.097
    1HEX    H1D76530  45.445  29.865  59.426
    1HEX    H1E76531  45.275  29.844  59.397
    1HEX    H1F76532  45.364  30.044  59.611
    1HEX    H1G76533  45.362  29.873  59.647
    1HEX    H1H76534  44.928  30.011  59.624
    1HEX    H1I76535  44.952  30.180  59.645
    1HEX    H1J76536  45.085  30.230  59.884
    1HEX    H1K76537  44.970  30.191  60.011
    1HEX    H1M76538  44.835  30.613  59.917
    1HEX    H1N76539  44.996  30.596  59.848
    1HEX    H1O76540  45.104  30.654  60.066
    1HEX    H1P76541  44.952  30.656  60.147
    1HEX    H1R76542  44.737  30.068  59.773
    1HEX    H1S76543  44.761  30.051  59.944
    1HEX    H1T76544  44.915  29.673  59.671
    1HEX    H1U76545  44.754  29.610  59.655
    1HEX    H1V76546  44.747  29.537  59.883
    1HEX    H1W76547  44.865  29.652  59.939
    1HEX    H1Y76548  45.046  29.877  59.833
    1HEX    H1Z76549  44.988  29.904  59.983
    1HEX    H2076550  45.194  30.169  60.045
    1HEX    H2176551  45.323  30.061  60.051
    1HEX    H2276552  45.181  29.805   0.011
    1HEX    H2376553  45.218  29.851   0.174
    1HEX    H2476554  45.612  29.815  60.135
    1HEX    H2576555  45.663  29.786   0.139
    1HEX    H2676556  45.706  30.038   0.169
    1HEX    H2776557  45.677  30.058  60.158
    1HEX    H2976558  45.215  30.225   0.115
    1HEX    H2A76559  45.350  30.116   0.134
    1HEX    H2B76560  45.180  29.982   0.492
    1HEX    H2C76561  45.076  30.125   0.495
    1HEX    H2D76562  45.245  30.247   0.633
    1HEX    H2E76563  45.353  30.110   0.628
    1HEX    H2G76564  44.963  30.027  60.132
    1HEX    H2H76565  45.001  30.146   0.082
    1HEX    H2I76566  44.719  30.007   0.283
    1HEX    H2J76567  44.654  29.853   0.232
    1HEX    H2K76568  44.628  29.989  60.155
    1HEX    H2M76569  44.612  30.125   0.102
    1STR    S0076570  45.352  30.065  59.332
    1STR    S0E76571  44.983  30.863  60.030
    1STR    S0M76572  44.971  29.459  59.833
    1STR    S0X76573  45.888  29.946   0.037
    1STR    S1476574  45.163  30.063   0.769
    1STR    S1B76575  44.420  29.979   0.115
    1HEX    C0176576  45.377  29.924  14.353
    1HEX    C0276577  45.316  29.921  14.495
    1HEX    C0376578  45.165  29.921  14.499
    1HEX    O0476579  45.101  29.818  14.477
    1HEX    O0576580  45.114  30.039  14.540
    1HEX    C0676581  44.976  30.048  14.573
    1HEX    C0776582  44.951  30.043  14.727
    1HEX    C0876583  44.978  30.184  14.790
    1HEX    O0976584  44.911  30.308  14.759
    1HEX    C0A76585  44.924  30.409  14.854
    1HEX    O0B76586  44.941  30.389  14.974
    1HEX    C0C76587  44.921  30.554  14.800
    1HEX    C0D76588  44.892  30.666  14.906
    1HEX    C0F76589  44.805  29.991  14.751
    1HEX    O0G76590  44.805  29.848  14.773
    1HEX    C0H76591  44.762  29.759  14.682
    1HEX    O0I76592  44.696  29.786  14.582
    1HEX    C0J76593  44.809  29.615  14.711
    1HEX    C0K76594  44.705  29.527  14.787
    1HEX    C0N76595  45.050  29.940  14.797
    1HEX    O0O76596  45.183  29.982  14.835
    1HEX    C0P76597  45.214  30.061  14.954
    1HEX    C0Q76598  45.174  30.013  15.097
    1HEX    C0R76599  45.235  29.871  15.120
    1HEX    O0S76600  45.378  29.867  15.093
    1HEX    C0T76601  45.471  29.873  15.193
    1HEX    O0U76602  45.446  29.889  15.312
    1HEX    C0V76603  45.617  29.850  15.148
    1HEX    C0W76604  45.679  29.958  15.053
    1HEX    C0Y76605  45.237  30.110  15.200
    1HEX    O0Z76606  45.202  30.072  15.333
    1HEX    C1076607  45.254  30.140  15.436
    1HEX    O1176608  45.326  30.239  15.424
    1HEX    C1276609  45.212  30.086  15.572
    1HEX    C1376610  45.276  30.166  15.687
    1HEX    C1576611  45.018  30.030  15.115
    1HEX    O1676612  44.948  29.978  15.228
    1HEX    C1776613  44.835  29.907  15.204
    1HEX    O1876614  44.822  29.825  15.113
    1HEX    C1976615  44.715  29.945  15.292
    1HEX    C1A76616  44.609  30.021  15.208
    1HEX    H1D76617  45.355  29.817  14.350
    1HEX    H1E76618  45.320  30.013  14.332
    1HEX    H1F76619  45.351  30.007  14.552
    1HEX    H1G76620  45.350  29.833  14.552
    1HEX    H1H76621  44.919  29.970  14.521
    1HEX    H1I76622  44.937  30.142  14.532
    1HEX    H1J76623  45.082  30.208  14.767
    1HEX    H1K76624  44.970  30.170  14.897
    1HEX    H1M76625  44.846  30.558  14.721
    1HEX    H1N76626  45.017  30.572  14.752
    1HEX    H1O76627  44.864  30.621  15.001
    1HEX    H1P76628  44.805  30.725  14.876
    1HEX    H1R76629  44.738  30.019  14.670
    1HEX    H1S76630  44.762  30.036  14.840
    1HEX    H1T76631  44.903  29.619  14.764
    1HEX    H1U76632  44.831  29.568  14.615
    1HEX    H1V76633  44.659  29.456  14.718
    1HEX    H1W76634  44.625  29.591  14.824
    1HEX    H1Y76635  45.063  29.858  14.727
    1HEX    H1Z76636  45.006  29.883  14.878
    1HEX    H2076637  45.186  30.165  14.942
    1HEX    H2176638  45.323  30.065  14.951
    1HEX    H2276639  45.186  29.800  15.053
    1HEX    H2376640  45.213  29.836  15.221
    1HEX    H2476641  45.620  29.753  15.098
    1HEX    H2576642  45.679  29.839  15.237
    1HEX    H2676643  45.601  30.031  15.030
    1HEX    H2776644  45.707  29.912  14.959
    1HEX    H2976645  45.205  30.212  15.183
    1HEX    H2A76646  45.346  30.111  15.191
    1HEX    H2B76647  45.242  29.981  15.576
    1HEX    H2C76648  45.103  30.088  15.579
    1HEX    H2D76649  45.234  30.267  15.690
    1HEX    H2E76650  45.382  30.180  15.664
    1HEX    H2G76651  44.963  30.001  15.028
    1HEX    H2H76652  44.997  30.137  15.119
    1HEX    H2I76653  44.748  30.002  15.378
    1HEX    H2J76654  44.673  29.852  15.329
    1HEX    H2K76655  44.602  29.979  15.107
    1HEX    H2M76656  44.639  30.125  15.195
    1STR    S0076657  45.305  29.875  14.192
    1STR    S0E76658  45.030  30.784  14.944
    1STR    S0M76659  44.767  29.430  14.932
    1STR    S0X76660  45.825  30.053  15.115
    1STR    S1476661  45.268  30.092  15.855
    1STR    S1B76662  44.441  30.019  15.280
    1HEX    C0176663  45.359  29.990  29.323
    1HEX    C0276664  45.318  29.965  29.470
    1HEX    C0376665  45.170  29.951  29.501
    1HEX    O0476666  45.112  29.844  29.482
    1HEX    O0576667  45.118  30.060  29.560
    1HEX    C0676668  44.982  30.060  29.601
    1HEX    C0776669  44.962  30.038  29.754
    1HEX    C0876670  44.963  30.177  29.829
    1HEX    O0976671  44.910  30.305  29.788
    1HEX    C0A76672  44.927  30.409  29.881
    1HEX    O0B76673  44.951  30.388  30.001
    1HEX    C0C76674  44.921  30.555  29.830
    1HEX    C0D76675  44.949  30.660  29.945
    1HEX    C0F76676  44.829  29.955  29.772
    1HEX    O0G76677  44.858  29.812  29.771
    1HEX    C0H76678  44.828  29.730  29.669
    1HEX    O0I76679  44.746  29.757  29.581
    1HEX    C0J76680  44.912  29.600  29.664
    1HEX    C0K76681  44.911  29.506  29.789
    1HEX    C0N76682  45.075  29.945  29.816
    1HEX    O0O76683  45.203  29.997  29.854
    1HEX    C0P76684  45.230  30.066  29.978
    1HEX    C0Q76685  45.185  30.012  30.118
    1HEX    C0R76686  45.242  29.869  30.141
    1HEX    O0S76687  45.383  29.858  30.112
    1HEX    C0T76688  45.477  29.865  30.210
    1HEX    O0U76689  45.454  29.891  30.328
    1HEX    C0V76690  45.619  29.830  30.164
    1HEX    C0W76691  45.711  29.952  30.134
    1HEX    C0Y76692  45.249  30.109  30.220
    1HEX    O0Z76693  45.207  30.079  30.352
    1HEX    C1076694  45.261  30.146  30.454
    1HEX    O1176695  45.351  30.230  30.445
    1HEX    C1276696  45.194  30.112  30.586
    1HEX    C1376697  45.282  30.142  30.709
    1HEX    C1576698  45.029  30.025  30.134
    1HEX    O1676699  44.958  29.960  30.241
    1HEX    C1776700  44.838  29.900  30.213
    1HEX    O1876701  44.806  29.852  30.104
    1HEX    C1976702  44.737  29.900  30.328
    1HEX    C1A76703  44.605  29.976  30.294
    1HEX    H1D76704  45.441  29.923  29.299
    1HEX    H1E76705  45.398  30.091  29.311
    1HEX    H1F76706  45.357  30.045  29.533
    1HEX    H1G76707  45.365  29.873  29.506
    1HEX    H1H76708  44.926  29.987  29.542
    1HEX    H1I76709  44.939  30.156  29.571
    1HEX    H1J76710  45.068  30.204  29.830
    1HEX    H1K76711  44.928  30.161  29.930
    1HEX    H1M76712  44.825  30.573  29.784
    1HEX    H1N76713  44.997  30.565  29.753
    1HEX    H1O76714  45.043  30.637  29.995
    1HEX    H1P76715  44.872  30.649  30.023
    1HEX    H1R76716  44.753  29.981  29.698
    1HEX    H1S76717  44.783  29.976  29.869
    1HEX    H1T76718  45.014  29.633  29.643
    1HEX    H1U76719  44.881  29.544  29.576
    1HEX    H1V76720  44.817  29.451  29.793
    1HEX    H1W76721  44.915  29.565  29.881
    1HEX    H1Y76722  45.097  29.870  29.741
    1HEX    H1Z76723  45.040  29.880  29.896
    1HEX    H2076724  45.205  30.171  29.971
    1HEX    H2176725  45.339  30.069  29.978
    1HEX    H2276726  45.189  29.799  30.076
    1HEX    H2376727  45.220  29.837  30.243
    1HEX    H2476728  45.614  29.763  30.078
    1HEX    H2576729  45.661  29.773  30.246
    1HEX    H2676730  45.685  30.037  30.196
    1HEX    H2776731  45.700  29.983  30.031
    1HEX    H2976732  45.221  30.213  30.200
    1HEX    H2A76733  45.358  30.107  30.215
    1HEX    H2B76734  45.167  30.006  30.584
    1HEX    H2C76735  45.102  30.169  30.588
    1HEX    H2D76736  45.332  30.239  30.700
    1HEX    H2E76737  45.360  30.067  30.718
    1HEX    H2G76738  44.980  29.997  30.044
    1HEX    H2H76739  45.004  30.131  30.144
    1HEX    H2I76740  44.785  29.949  30.413
    1HEX    H2J76741  44.716  29.798  30.359
    1HEX    H2K76742  44.623  30.051  30.216
    1HEX    H2M76743  44.570  30.032  30.381
    1STR    S0076744  45.234  29.965  29.192
    1STR    S0E76745  44.952  30.839  29.898
    1STR    S0M76746  45.051  29.385  29.787
    1STR    S0X76747  45.888  29.909  30.165
    1STR    S1476748  45.175  30.144  30.856
    1STR    S1B76749  44.464  29.872  30.237
    1HEX    C0176750  45.407  29.959  44.436
    1HEX    C0276751  45.337  30.050  44.538
    1HEX    C0376752  45.192  30.013  44.564
    1HEX    O0476753  45.149  29.899  44.544
    1HEX    O0576754  45.122  30.116  44.614
    1HEX    C0676755  44.982  30.104  44.633
    1HEX    C0776756  44.942  30.080  44.781
    1HEX    C0876757  44.962  30.211  44.863
    1HEX    O0976758  44.912  30.343  44.830
    1HEX    C0A76759  44.934  30.439  44.928
    1HEX    O0B76760  44.957  30.412  45.046
    1HEX    C0C76761  44.935  30.587  44.882
    1HEX    C0D76762  44.999  30.681  44.990
    1HEX    C0F76763  44.794  30.028  44.782
    1HEX    O0G76764  44.790  29.886  44.761
    1HEX    C0H76765  44.761  29.831  44.641
    1HEX    O0I76766  44.711  29.892  44.546
    1HEX    C0J76767  44.800  29.683  44.628
    1HEX    C0K76768  44.776  29.599  44.755
    1HEX    C0N76769  45.029  29.966  44.848
    1HEX    O0O76770  45.162  29.988  44.902
    1HEX    C0P76771  45.198  30.060  45.023
    1HEX    C0Q76772  45.161  30.010  45.167
    1HEX    C0R76773  45.231  29.873  45.194
    1HEX    O0S76774  45.372  29.873  45.164
    1HEX    C0T76775  45.468  29.881  45.261
    1HEX    O0U76776  45.446  29.901  45.380
    1HEX    C0V76777  45.611  29.858  45.210
    1HEX    C0W76778  45.702  29.983  45.219
    1HEX    C0Y76779  45.217  30.114  45.267
    1HEX    O0Z76780  45.186  30.077  45.400
    1HEX    C1076781  45.243  30.143  45.501
    1HEX    O1176782  45.321  30.237  45.490
    1HEX    C1276783  45.198  30.090  45.637
    1HEX    C1376784  45.300  30.125  45.747
    1HEX    C1576785  45.005  30.009  45.177
    1HEX    O1676786  44.926  29.986  45.294
    1HEX    C1776787  44.807  29.921  45.275
    1HEX    O1876788  44.791  29.823  45.204
    1HEX    C1976789  44.684  29.987  45.340
    1HEX    C1A76790  44.592  30.051  45.231
    1HEX    H1D76791  45.515  29.965  44.452
    1HEX    H1E76792  45.381  29.856  44.458
    1HEX    H1F76793  45.343  30.155  44.510
    1HEX    H1G76794  45.385  30.040  44.635
    1HEX    H1H76795  44.942  30.026  44.568
    1HEX    H1I76796  44.935  30.195  44.596
    1HEX    H1J76797  45.068  30.230  44.860
    1HEX    H1K76798  44.931  30.189  44.964
    1HEX    H1M76799  44.832  30.617  44.860
    1HEX    H1N76800  44.991  30.594  44.789
    1HEX    H1O76801  45.106  30.660  44.999
    1HEX    H1P76802  44.958  30.656  45.088
    1HEX    H1R76803  44.732  30.082  44.710
    1HEX    H1S76804  44.747  30.047  44.879
    1HEX    H1T76805  44.905  29.679  44.599
    1HEX    H1U76806  44.744  29.641  44.544
    1HEX    H1V76807  44.676  29.618  44.793
    1HEX    H1W76808  44.845  29.629  44.835
    1HEX    H1Y76809  45.046  29.892  44.770
    1HEX    H1Z76810  44.969  29.904  44.914
    1HEX    H2076811  45.175  30.165  45.016
    1HEX    H2176812  45.307  30.061  45.017
    1HEX    H2276813  45.184  29.796  45.132
    1HEX    H2376814  45.213  29.842  45.297
    1HEX    H2476815  45.608  29.817  45.109
    1HEX    H2576816  45.654  29.779  45.273
    1HEX    H2676817  45.701  30.023  45.321
    1HEX    H2776818  45.663  30.062  45.155
    1HEX    H2976819  45.178  30.214  45.248
    1HEX    H2A76820  45.326  30.122  45.256
    1HEX    H2B76821  45.188  29.982  45.628
    1HEX    H2C76822  45.100  30.131  45.660
    1HEX    H2D76823  45.302  30.233  45.764
    1HEX    H2E76824  45.400  30.098  45.714
    1HEX    H2G76825  44.971  29.939  45.104
    1HEX    H2H76826  44.971  30.108  45.147
    1HEX    H2I76827  44.714  30.059  45.416
    1HEX    H2J76828  44.630  29.907  45.391
    1HEX    H2K76829  44.609  30.003  45.134
    1HEX    H2M76830  44.618  30.156  45.216
    1STR    S0076831  45.379  29.992  44.257
    1STR    S0E76832  44.974  30.863  44.973
    1STR    S0M76833  44.791  29.419  44.724
    1STR    S0X76834  45.877  29.951  45.169
    1STR    S1476835  45.265  30.040  45.905
    1STR    S1B76836  44.410  30.042  45.261
    1HEX    C0176837  45.354  45.003  59.422
    1HEX    C0276838  45.333  45.050  59.568
    1HEX    C0376839  45.201  45.001  59.625
    1HEX    O0476840  45.176  44.880  59.629
    1HEX    O0576841  45.122  45.101  59.667
    1HEX    C0676842  44.987  45.073  59.702
    1HEX    C0776843  44.963  45.066  59.856
    1HEX    C0876844  44.980  45.209  59.917
    1HEX    O0976845  44.911  45.330  59.882
    1HEX    C0A76846  44.914  45.430  59.978
    1HEX    O0B76847  44.913  45.409  60.099
    1HEX    C0C76848  44.930  45.575  59.925
    1HEX    C0D76849  44.929  45.686  60.036
    1HEX    C0F76850  44.821  45.002  59.879
    1HEX    O0G76851  44.831  44.859  59.899
    1HEX    C0H76852  44.797  44.770  59.804
    1HEX    O0I76853  44.734  44.797  59.702
    1HEX    C0J76854  44.852  44.627  59.826
    1HEX    C0K76855  44.839  44.567  59.969
    1HEX    C0N76856  45.067  44.971  59.927
    1HEX    O0O76857  45.197  45.021  59.964
    1HEX    C0P76858  45.224  45.102  60.081
    1HEX    C0Q76859  45.183  45.056   0.065
    1HEX    C0R76860  45.238  44.913   0.090
    1HEX    O0S76861  45.379  44.902   0.059
    1HEX    C0T76862  45.474  44.909   0.156
    1HEX    O0U76863  45.453  44.928   0.275
    1HEX    C0V76864  45.617  44.884   0.105
    1HEX    C0W76865  45.686  45.008   0.040
    1HEX    C0Y76866  45.248  45.154   0.166
    1HEX    O0Z76867  45.208  45.121   0.299
    1HEX    C1076868  45.258  45.189   0.402
    1HEX    O1176869  45.344  45.277   0.395
    1HEX    C1276870  45.194  45.148   0.535
    1HEX    C1376871  45.289  45.159   0.657
    1HEX    C1576872  45.028  45.073   0.083
    1HEX    O1676873  44.963  45.030   0.202
    1HEX    C1776874  44.846  44.963   0.189
    1HEX    O1876875  44.821  44.881   0.101
    1HEX    C1976876  44.738  45.006   0.289
    1HEX    C1A76877  44.634  45.095   0.217
    1HEX    H1D76878  45.459  44.990  59.401
    1HEX    H1E76879  45.307  44.906  59.408
    1HEX    H1F76880  45.341  45.159  59.577
    1HEX    H1G76881  45.411  45.007  59.631
    1HEX    H1H76882  44.953  44.982  59.652
    1HEX    H1I76883  44.926  45.152  59.658
    1HEX    H1J76884  45.082  45.237  59.896
    1HEX    H1K76885  44.969  45.196  60.024
    1HEX    H1M76886  44.853  45.594  59.850
    1HEX    H1N76887  45.025  45.577  59.872
    1HEX    H1O76888  44.950  45.645  60.135
    1HEX    H1P76889  44.828  45.728  60.044
    1HEX    H1R76890  44.752  45.027  59.798
    1HEX    H1S76891  44.775  45.044  59.969
    1HEX    H1T76892  44.957  44.629  59.797
    1HEX    H1U76893  44.802  44.562  59.755
    1HEX    H1V76894  44.736  44.570  60.004
    1HEX    H1W76895  44.897  44.626  60.041
    1HEX    H1Y76896  45.086  44.889  59.858
    1HEX    H1Z76897  45.026  44.915  60.010
    1HEX    H2076898  45.194  45.205  60.067
    1HEX    H2176899  45.333  45.109  60.080
    1HEX    H2276900  45.185  44.842   0.026
    1HEX    H2376901  45.217  44.882   0.192
    1HEX    H2476902  45.614  44.801   0.035
    1HEX    H2576903  45.676  44.850   0.190
    1HEX    H2676904  45.617  45.092   0.042
    1HEX    H2776905  45.707  44.988  60.095
    1HEX    H2976906  45.219  45.257   0.146
    1HEX    H2A76907  45.357  45.151   0.160
    1HEX    H2B76908  45.156  45.046   0.526
    1HEX    H2C76909  45.108  45.213   0.547
    1HEX    H2D76910  45.371  45.228   0.634
    1HEX    H2E76911  45.336  45.063   0.679
    1HEX    H2G76912  44.973  45.033  60.159
    1HEX    H2H76913  45.005  45.180   0.079
    1HEX    H2I76914  44.783  45.056   0.375
    1HEX    H2J76915  44.691  44.915   0.325
    1HEX    H2K76916  44.618  45.057   0.116
    1HEX    H2M76917  44.668  45.197   0.206
    1STR    S0076918  45.284  45.116  59.297
    1STR    S0E76919  45.049  45.824  60.011
    1STR    S0M76920  44.899  44.393  59.971
    1STR    S0X76921  45.842  45.062   0.123
    1STR    S1476922  45.206  45.225   0.806
    1STR    S1B76923  44.471  45.093   0.300
    1HEX    C0176924  45.283  44.968  14.266
    1HEX    C0276925  45.306  45.014  14.412
    1HEX    C0376926  45.177  44.994  14.489
    1HEX    O0476927  45.126  44.882  14.495
    1HEX    O0576928  45.124  45.109  14.535
    1HEX    C0676929  44.985  45.113  14.565
    1HEX    C0776930  44.950  45.099  14.716
    1HEX    C0876931  44.968  45.238  14.788
    1HEX    O0976932  44.910  45.368  14.760
    1HEX    C0A76933  44.929  45.466  14.859
    1HEX    O0B76934  44.954  45.438  14.976
    1HEX    C0C76935  44.924  45.616  14.818
    1HEX    C0D76936  44.973  45.712  14.934
    1HEX    C0F76937  44.807  45.034  14.724
    1HEX    O0G76938  44.816  44.890  14.708
    1HEX    C0H76939  44.766  44.823  14.602
    1HEX    O0I76940  44.687  44.871  14.521
    1HEX    C0J76941  44.826  44.682  14.580
    1HEX    C0K76942  44.829  44.579  14.697
    1HEX    C0N76943  45.044  44.992  14.787
    1HEX    O0O76944  45.179  45.026  14.822
    1HEX    C0P76945  45.216  45.104  14.937
    1HEX    C0Q76946  45.178  45.058  15.081
    1HEX    C0R76947  45.238  44.916  15.105
    1HEX    O0S76948  45.379  44.907  15.070
    1HEX    C0T76949  45.479  44.918  15.163
    1HEX    O0U76950  45.462  44.943  15.282
    1HEX    C0V76951  45.620  44.890  15.108
    1HEX    C0W76952  45.713  45.014  15.092
    1HEX    C0Y76953  45.246  45.158  15.178
    1HEX    O0Z76954  45.202  45.127  15.308
    1HEX    C1076955  45.254  45.190  15.412
    1HEX    O1176956  45.344  45.273  15.410
    1HEX    C1276957  45.182  45.149  15.539
    1HEX    C1376958  45.252  45.200  15.665
    1HEX    C1576959  45.023  45.077  15.104
    1HEX    O1676960  44.949  45.011  15.208
    1HEX    C1776961  44.839  44.939  15.170
    1HEX    O1876962  44.837  44.864  15.073
    1HEX    C1976963  44.711  44.967  15.250
    1HEX    C1A76964  44.606  45.041  15.162
    1HEX    H1D76965  45.355  44.891  14.237
    1HEX    H1E76966  45.185  44.921  14.257
    1HEX    H1F76967  45.338  45.117  14.419
    1HEX    H1G76968  45.382  44.952  14.460
    1HEX    H1H76969  44.933  45.038  14.506
    1HEX    H1I76970  44.946  45.208  14.527
    1HEX    H1J76971  45.073  45.262  14.773
    1HEX    H1K76972  44.951  45.220  14.893
    1HEX    H1M76973  44.822  45.640  14.788
    1HEX    H1N76974  44.987  45.629  14.730
    1HEX    H1O76975  45.077  45.690  14.958
    1HEX    H1P76976  44.918  45.689  15.025
    1HEX    H1R76977  44.738  45.079  14.651
    1HEX    H1S76978  44.761  45.053  14.821
    1HEX    H1T76979  44.928  44.699  14.545
    1HEX    H1U76980  44.773  44.637  14.496
    1HEX    H1V76981  44.729  44.549  14.727
    1HEX    H1W76982  44.876  44.623  14.786
    1HEX    H1Y76983  45.055  44.909  14.718
    1HEX    H1Z76984  44.995  44.936  14.866
    1HEX    H2076985  45.192  45.209  14.925
    1HEX    H2176986  45.325  45.104  14.930
    1HEX    H2276987  45.184  44.844  15.045
    1HEX    H2376988  45.222  44.886  15.209
    1HEX    H2476989  45.613  44.833  15.016
    1HEX    H2576990  45.665  44.823  15.181
    1HEX    H2676991  45.704  45.081  15.178
    1HEX    H2776992  45.683  45.072  15.005
    1HEX    H2976993  45.220  45.261  15.155
    1HEX    H2A76994  45.355  45.153  15.172
    1HEX    H2B76995  45.176  45.040  15.540
    1HEX    H2C76996  45.081  45.187  15.532
    1HEX    H2D76997  45.268  45.308  15.662
    1HEX    H2E76998  45.350  45.154  15.675
    1HEX    H2G76999  44.967  45.060  15.015
    1HEX    H2H77000  45.004  45.183  15.121
    1HEX    H2I77001  44.734  45.022  15.341
    1HEX    H2J77002  44.671  44.870  15.281
    1HEX    H2K77003  44.626  45.019  15.057
    1HEX    H2M77004  44.619  45.149  15.172
    1STR    S0077005  45.283  45.103  14.145
    1STR    S0E77006  44.958  45.896  14.909
    1STR    S0M77007  44.925  44.429  14.645
    1STR    S0X77008  45.890  44.966  15.073
    1STR    S1477009  45.150  45.157  15.810
    1STR    S1B77010  44.429  45.001  15.194
    1HEX    C0177011  45.348  44.980  29.427
    1HEX    C0277012  45.288  44.913  29.551
    1HEX    C0377013  45.139  44.937  29.558
    1HEX    O0477014  45.059  44.846  29.539
    1HEX    O0577015  45.110  45.064  29.594
    1HEX    C0677016  44.974  45.100  29.618
    1HEX    C0777017  44.936  45.095  29.769
    1HEX    C0877018  44.964  45.233  29.837
    1HEX    O0977019  44.911  45.362  29.798
    1HEX    C0A77020  44.935  45.467  29.887
    1HEX    O0B77021  44.958  45.451  30.007
    1HEX    C0C77022  44.937  45.609  29.826
    1HEX    C0D77023  44.899  45.727  29.923
    1HEX    C0F77024  44.787  45.049  29.778
    1HEX    O0G77025  44.779  44.905  29.783
    1HEX    C0H77026  44.742  44.829  29.678
    1HEX    O0I77027  44.683  44.871  29.578
    1HEX    C0J77028  44.786  44.682  29.690
    1HEX    C0K77029  44.676  44.585  29.740
    1HEX    C0N77030  45.021  44.985  29.848
    1HEX    O0O77031  45.157  45.012  29.888
    1HEX    C0P77032  45.198  45.094  30.000
    1HEX    C0Q77033  45.163  45.055  30.148
    1HEX    C0R77034  45.220  44.912  30.173
    1HEX    O0S77035  45.361  44.900  30.138
    1HEX    C0T77036  45.461  44.905  30.231
    1HEX    O0U77037  45.444  44.924  30.352
    1HEX    C0V77038  45.604  44.885  30.175
    1HEX    C0W77039  45.681  45.018  30.156
    1HEX    C0Y77040  45.235  45.154  30.243
    1HEX    O0Z77041  45.199  45.130  30.379
    1HEX    C1077042  45.257  45.204  30.476
    1HEX    O1177043  45.344  45.289  30.457
    1HEX    C1277044  45.200  45.175  30.615
    1HEX    C1377045  45.309  45.138  30.719
    1HEX    C1577046  45.009  45.079  30.168
    1HEX    O1677047  44.934  45.034  30.282
    1HEX    C1777048  44.816  44.969  30.257
    1HEX    O1877049  44.802  44.883  30.171
    1HEX    C1977050  44.695  45.021  30.335
    1HEX    C1A77051  44.592  45.086  30.237
    1HEX    H1D77052  45.457  44.971  29.428
    1HEX    H1E77053  45.324  45.087  29.425
    1HEX    H1F77054  45.332  44.954  29.642
    1HEX    H1G77055  45.307  44.806  29.550
    1HEX    H1H77056  44.909  45.036  29.557
    1HEX    H1I77057  44.957  45.200  29.578
    1HEX    H1J77058  45.070  45.250  29.820
    1HEX    H1K77059  44.947  45.220  29.943
    1HEX    H1M77060  44.866  45.608  29.743
    1HEX    H1N77061  45.035  45.626  29.783
    1HEX    H1O77062  44.848  45.685  30.010
    1HEX    H1P77063  44.827  45.793  29.876
    1HEX    H1R77064  44.726  45.090  29.697
    1HEX    H1S77065  44.741  45.086  29.870
    1HEX    H1T77066  44.876  44.677  29.751
    1HEX    H1U77067  44.818  44.651  29.590
    1HEX    H1V77068  44.645  44.519  29.659
    1HEX    H1W77069  44.587  44.643  29.768
    1HEX    H1Y77070  45.029  44.899  29.782
    1HEX    H1Z77071  44.966  44.935  29.926
    1HEX    H2077072  45.174  45.199  29.986
    1HEX    H2177073  45.307  45.094  29.992
    1HEX    H2277074  45.166  44.839  30.113
    1HEX    H2377075  45.204  44.882  30.277
    1HEX    H2477076  45.598  44.828  30.082
    1HEX    H2577077  45.658  44.822  30.246
    1HEX    H2677078  45.687  45.072  30.251
    1HEX    H2777079  45.623  45.080  30.088
    1HEX    H2977080  45.209  45.257  30.219
    1HEX    H2A77081  45.343  45.147  30.232
    1HEX    H2B77082  45.127  45.095  30.608
    1HEX    H2C77083  45.145  45.264  30.646
    1HEX    H2D77084  45.407  45.159  30.675
    1HEX    H2E77085  45.308  45.032  30.740
    1HEX    H2G77086  44.953  45.050  30.081
    1HEX    H2H77087  44.993  45.187  30.168
    1HEX    H2I77088  44.727  45.090  30.413
    1HEX    H2J77089  44.649  44.935  30.385
    1HEX    H2K77090  44.577  45.018  30.153
    1HEX    H2M77091  44.634  45.177  30.195
    1STR    S0077092  45.288  44.905  29.274
    1STR    S0E77093  45.035  45.833  29.991
    1STR    S0M77094  44.716  44.478  29.885
    1STR    S0X77095  45.852  45.005  30.085
    1STR    S1477096  45.304  45.232  30.876
    1STR    S1B77097  44.427  45.128  30.307
    1HEX    C0177098  45.360  44.982  44.372
    1HEX    C0277099  45.320  45.026  44.514
    1HEX    C0377100  45.179  44.987  44.555
    1HEX    O0477101  45.139  44.871  44.546
    1HEX    O0577102  45.110  45.091  44.606
    1HEX    C0677103  44.976  45.074  44.649
    1HEX    C0777104  44.962  45.063  44.804
    1HEX    C0877105  44.973  45.207  44.868
    1HEX    O0977106  44.911  45.331  44.828
    1HEX    C0A77107  44.925  45.436  44.919
    1HEX    O0B77108  44.941  45.420  45.040
    1HEX    C0C77109  44.928  45.580  44.862
    1HEX    C0D77110  44.949  45.689  44.973
    1HEX    C0F77111  44.828  44.986  44.834
    1HEX    O0G77112  44.852  44.843  44.845
    1HEX    C0H77113  44.820  44.755  44.748
    1HEX    O0I77114  44.745  44.780  44.654
    1HEX    C0J77115  44.890  44.617  44.759
    1HEX    C0K77116  44.905  44.553  44.900
    1HEX    C0N77117  45.077  44.973  44.867
    1HEX    O0O77118  45.204  45.029  44.902
    1HEX    C0P77119  45.228  45.102  45.025
    1HEX    C0Q77120  45.185  45.050  45.166
    1HEX    C0R77121  45.241  44.908  45.189
    1HEX    O0S77122  45.382  44.897  45.161
    1HEX    C0T77123  45.475  44.902  45.261
    1HEX    O0U77124  45.450  44.925  45.379
    1HEX    C0V77125  45.618  44.870  45.215
    1HEX    C0W77126  45.705  44.993  45.180
    1HEX    C0Y77127  45.248  45.148  45.268
    1HEX    O0Z77128  45.209  45.117  45.401
    1HEX    C1077129  45.268  45.180  45.503
    1HEX    O1177130  45.359  45.261  45.493
    1HEX    C1277131  45.205  45.143  45.637
    1HEX    C1377132  45.294  45.175  45.758
    1HEX    C1577133  45.029  45.063  45.183
    1HEX    O1677134  44.963  45.007  45.297
    1HEX    C1777135  44.841  44.948  45.279
    1HEX    O1877136  44.802  44.894  45.175
    1HEX    C1977137  44.746  44.963  45.398
    1HEX    C1A77138  44.619  45.045  45.361
    1HEX    H1D77139  45.386  44.877  44.373
    1HEX    H1E77140  45.450  45.037  44.342
    1HEX    H1F77141  45.328  45.134  44.524
    1HEX    H1G77142  45.387  44.983  44.588
    1HEX    H1H77143  44.931  44.988  44.599
    1HEX    H1I77144  44.919  45.160  44.613
    1HEX    H1J77145  45.076  45.235  44.854
    1HEX    H1K77146  44.953  45.195  44.973
    1HEX    H1M77147  44.837  45.599  44.806
    1HEX    H1N77148  45.011  45.584  44.791
    1HEX    H1O77149  45.028  45.660  45.042
    1HEX    H1P77150  44.859  45.696  45.035
    1HEX    H1R77151  44.751  45.008  44.760
    1HEX    H1S77152  44.786  45.018  44.929
    1HEX    H1T77153  44.988  44.629  44.713
    1HEX    H1U77154  44.835  44.550  44.694
    1HEX    H1V77155  44.810  44.555  44.954
    1HEX    H1W77156  44.975  44.610  44.961
    1HEX    H1Y77157  45.099  44.896  44.794
    1HEX    H1Z77158  45.044  44.910  44.949
    1HEX    H2077159  45.198  45.206  45.015
    1HEX    H2177160  45.337  45.110  45.025
    1HEX    H2277161  45.189  44.837  45.124
    1HEX    H2377162  45.218  44.875  45.291
    1HEX    H2477163  45.615  44.798  45.133
    1HEX    H2577164  45.662  44.817  45.300
    1HEX    H2677165  45.660  45.085  45.219
    1HEX    H2777166  45.708  45.005  45.071
    1HEX    H2977167  45.220  45.251  45.248
    1HEX    H2A77168  45.357  45.146  45.261
    1HEX    H2B77169  45.179  45.037  45.635
    1HEX    H2C77170  45.112  45.199  45.641
    1HEX    H2D77171  45.351  45.267  45.741
    1HEX    H2E77172  45.368  45.096  45.773
    1HEX    H2G77173  44.978  45.027  45.095
    1HEX    H2H77174  45.003  45.169  45.186
    1HEX    H2I77175  44.800  45.012  45.479
    1HEX    H2J77176  44.719  44.863  45.433
    1HEX    H2K77177  44.628  45.086  45.260
    1HEX    H2M77178  44.606  45.131  45.427
    1STR    S0077179  45.235  45.006  44.242
    1STR    S0E77180  44.990  45.859  44.914
    1STR    S0M77181  44.963  44.377  44.889
    1STR    S0X77182  45.876  44.979  45.245
    1STR    S1477183  45.192  45.200  45.908
    1STR    S1B77184  44.463  44.948  45.363
  60.16000  60.16000  60.16000
